{
  "metadata": {
    "scraped_from": "https://haz-map.com/Agents/19876",
    "entity_name": "(Phenylthio)acetic acid",
    "category": "agents",
    "uuid": "00b88850-e4ce-433f-ae7e-2cbb85b91e48",
    "scraped_at": "2025-07-23T22:14:31.718990"
  },
  "parsed_at": "2025-07-24T00:58:22.603956",
  "title": "(Phenylthio)acetic acid",
  "sections": {
    "general": {
      "agent_name": {
        "original_name": "Agent Name",
        "value": "(Phenylthio)acetic acid",
        "links": [],
        "cross_references": [
          {
            "type": "name_match",
            "text": "acetic acid",
            "confidence": 1.0,
            "uuid": "0905c6e4-df84-4895-a92d-658819239bbd",
            "name": "Acetic acid",
            "url": "https://haz-map.com/Agents/207",
            "category": "agents"
          },
          {
            "type": "name_match",
            "text": "(phenylthio)acetic acid",
            "confidence": 1.0,
            "uuid": "00b88850-e4ce-433f-ae7e-2cbb85b91e48",
            "name": "(Phenylthio)acetic acid",
            "url": "https://haz-map.com/Agents/19876",
            "category": "agents"
          }
        ]
      },
      "cas_number": {
        "original_name": "CAS Number",
        "value": "103-04-8",
        "links": [],
        "cross_references": []
      },
      "formula": {
        "original_name": "Formula",
        "value": "C8-H8-O2-S",
        "links": [],
        "cross_references": []
      },
      "major_category": {
        "original_name": "Major Category",
        "value": "Other Classes",
        "links": [],
        "cross_references": []
      },
      "synonyms": {
        "original_name": "Synonyms",
        "value": "Phenyl thioacetic acid; Thiophenoxyacetic acid; Carboxymethyl phenyl sulfide; Phenylmercaptoacetic acid; Phenylthioglycolic Acid; Acetic acid, (phenylthio)-; [ChemIDplus] (Phenylmercapto)acetic acid; S-Phenylthioglycolic acid; [Sigma-Aldrich MSDS]",
        "links": [],
        "cross_references": [
          {
            "type": "name_match",
            "text": "acetic acid",
            "confidence": 1.0,
            "uuid": "0905c6e4-df84-4895-a92d-658819239bbd",
            "name": "Acetic acid",
            "url": "https://haz-map.com/Agents/207",
            "category": "agents"
          },
          {
            "type": "name_match",
            "text": "thioglycolic acid",
            "confidence": 1.0,
            "uuid": "e9d73c3a-78e4-4233-af53-7d006fabd18b",
            "name": "Thioglycolic acid",
            "url": "https://haz-map.com/Agents/654",
            "category": "agents"
          },
          {
            "type": "name_match",
            "text": "glycolic acid",
            "confidence": 1.0,
            "uuid": "1584a0fe-5d54-4768-85ea-815563bd0798",
            "name": "Glycolic acid",
            "url": "https://haz-map.com/Agents/1410",
            "category": "agents"
          },
          {
            "type": "name_match",
            "text": "methyl phenyl sulfide",
            "confidence": 1.0,
            "uuid": "e5e65757-b734-418e-a77a-d26e9eb9feb2",
            "name": "Methyl phenyl sulfide",
            "url": "https://haz-map.com/Agents/16551",
            "category": "agents"
          },
          {
            "type": "name_match",
            "text": "phenyl sulfide",
            "confidence": 1.0,
            "uuid": "57f91bec-789e-4483-bbc7-394ed3fee3c1",
            "name": "Phenyl sulfide",
            "url": "https://haz-map.com/Agents/16554",
            "category": "agents"
          },
          {
            "type": "name_match",
            "text": "thioacetic acid",
            "confidence": 1.0,
            "uuid": "5e0a6fe2-f56e-458e-8633-8b1c555ba460",
            "name": "Thioacetic acid",
            "url": "https://haz-map.com/Agents/19868",
            "category": "agents"
          }
        ]
      },
      "category": {
        "original_name": "Category",
        "value": "Organic Acids",
        "links": [],
        "cross_references": []
      },
      "description": {
        "original_name": "Description",
        "value": "Beige powder with a stench; [Sigma-Aldrich MSDS]",
        "links": [],
        "cross_references": []
      },
      "comments": {
        "original_name": "Comments",
        "value": "A skin and strong eye irritant; [Sigma-Aldrich MSDS] See \"Thioglycolic acid.\"",
        "links": [],
        "cross_references": [
          {
            "type": "name_match",
            "text": "thioglycolic acid",
            "confidence": 1.0,
            "uuid": "e9d73c3a-78e4-4233-af53-7d006fabd18b",
            "name": "Thioglycolic acid",
            "url": "https://haz-map.com/Agents/654",
            "category": "agents"
          },
          {
            "type": "name_match",
            "text": "glycolic acid",
            "confidence": 1.0,
            "uuid": "1584a0fe-5d54-4768-85ea-815563bd0798",
            "name": "Glycolic acid",
            "url": "https://haz-map.com/Agents/1410",
            "category": "agents"
          }
        ]
      },
      "biomedical_references": {
        "original_name": "Biomedical References",
        "value": "Search PubMed",
        "links": [
          {
            "text": "Search PubMed",
            "url": "https://www.ncbi.nlm.nih.gov/pubmed?term=(Phenylthio)acetic+acid%20AND%20human%5Bmh%5D%20AND%20%28Occupational%20Diseases%20%5Bmh%5D%20OR%20Occupational%20Exposure%20%5Bmh%5D%29%20%20AND%20%28tox%5Bsb%5D%29&cmd=search"
          }
        ],
        "cross_references": []
      }
    },
    "exposure_assessment": {
      "vapor_pressure": {
        "original_name": "Vapor Pressure",
        "value": "0.000278 mm Hg",
        "links": [],
        "cross_references": []
      }
    },
    "diseases_processes_and_activities_linked_to_this_agent": {
      "other_information": {
        "original_name": "Other Information",
        "value": "No other related information on this agent was found.",
        "links": [],
        "cross_references": []
      }
    }
  },
  "cross_references": [
    {
      "type": "name_match",
      "text": "acetic acid",
      "confidence": 1.0,
      "uuid": "0905c6e4-df84-4895-a92d-658819239bbd",
      "name": "Acetic acid",
      "url": "https://haz-map.com/Agents/207",
      "category": "agents"
    },
    {
      "type": "name_match",
      "text": "thioglycolic acid",
      "confidence": 1.0,
      "uuid": "e9d73c3a-78e4-4233-af53-7d006fabd18b",
      "name": "Thioglycolic acid",
      "url": "https://haz-map.com/Agents/654",
      "category": "agents"
    },
    {
      "type": "name_match",
      "text": "glycolic acid",
      "confidence": 1.0,
      "uuid": "1584a0fe-5d54-4768-85ea-815563bd0798",
      "name": "Glycolic acid",
      "url": "https://haz-map.com/Agents/1410",
      "category": "agents"
    },
    {
      "type": "name_match",
      "text": "methyl phenyl sulfide",
      "confidence": 1.0,
      "uuid": "e5e65757-b734-418e-a77a-d26e9eb9feb2",
      "name": "Methyl phenyl sulfide",
      "url": "https://haz-map.com/Agents/16551",
      "category": "agents"
    },
    {
      "type": "name_match",
      "text": "phenyl sulfide",
      "confidence": 1.0,
      "uuid": "57f91bec-789e-4483-bbc7-394ed3fee3c1",
      "name": "Phenyl sulfide",
      "url": "https://haz-map.com/Agents/16554",
      "category": "agents"
    },
    {
      "type": "name_match",
      "text": "thioacetic acid",
      "confidence": 1.0,
      "uuid": "5e0a6fe2-f56e-458e-8633-8b1c555ba460",
      "name": "Thioacetic acid",
      "url": "https://haz-map.com/Agents/19868",
      "category": "agents"
    },
    {
      "type": "name_match",
      "text": "(phenylthio)acetic acid",
      "confidence": 1.0,
      "uuid": "00b88850-e4ce-433f-ae7e-2cbb85b91e48",
      "name": "(Phenylthio)acetic acid",
      "url": "https://haz-map.com/Agents/19876",
      "category": "agents"
    }
  ],
  "all_links": [
    {
      "text": "Search PubMed",
      "url": "https://www.ncbi.nlm.nih.gov/pubmed?term=(Phenylthio)acetic+acid%20AND%20human%5Bmh%5D%20AND%20%28Occupational%20Diseases%20%5Bmh%5D%20OR%20Occupational%20Exposure%20%5Bmh%5D%29%20%20AND%20%28tox%5Bsb%5D%29&cmd=search"
    }
  ]
}