{
  "metadata": {
    "scraped_from": "https://haz-map.com/Agents/3484",
    "entity_name": "6-Aminocaproic acid",
    "category": "agents",
    "uuid": "00d66019-7920-4bc1-bead-ee163a42c194",
    "scraped_at": "2025-07-23T19:29:58.836591"
  },
  "parsed_at": "2025-07-24T01:08:38.075929",
  "title": "6-Aminocaproic acid",
  "sections": {
    "general": {
      "agent_name": {
        "original_name": "Agent Name",
        "value": "6-Aminocaproic acid",
        "links": [],
        "cross_references": [
          {
            "type": "name_match",
            "text": "6-aminocaproic acid",
            "confidence": 1.0,
            "uuid": "00d66019-7920-4bc1-bead-ee163a42c194",
            "name": "6-Aminocaproic acid",
            "url": "https://haz-map.com/Agents/3484",
            "category": "agents"
          },
          {
            "type": "name_match",
            "text": "caproic acid",
            "confidence": 1.0,
            "uuid": "a68f84aa-0e47-4c25-9c1f-566b2ee47c7e",
            "name": "Caproic acid",
            "url": "https://haz-map.com/Agents/5532",
            "category": "agents"
          }
        ]
      },
      "cas_number": {
        "original_name": "CAS Number",
        "value": "60-32-2",
        "links": [],
        "cross_references": []
      },
      "formula": {
        "original_name": "Formula",
        "value": "C6-H13-N-O2",
        "links": [],
        "cross_references": []
      },
      "major_category": {
        "original_name": "Major Category",
        "value": "Nitrogen Compounds",
        "links": [],
        "cross_references": [
          {
            "type": "name_match",
            "text": "nitrogen",
            "confidence": 1.0,
            "uuid": "db5e90a9-06d2-45b9-8b81-f345a89b0bc0",
            "name": "Nitrogen",
            "url": "https://haz-map.com/Agents/1072",
            "category": "agents"
          }
        ]
      },
      "synonyms": {
        "original_name": "Synonyms",
        "value": "177 J.D.; 6-Amino-n-hexanoic acid; 6-Aminohexanoic acid; ACS; Acepramin; Acepramine; Acide aminocaproique [French]; Acido aminocaproico [DCIT,Spanish]; Acidum aminocaproicum [Latin]; Afibrin; Amicar; Amikar; Aminocaproic; Aminocaproic acid; Aminocaproic acid in plastic container; Aminokapron; Atsemin; CL 10304; CY 116; Caplamin; Capracid; Capralense; Capramol; Caprocid; Caprolisin; EACA; EACS; Eaca kabi; Epsamon; Epsicapron; Epsikapron; Epsilcapramin; Epsilon S; Epsilon-Aminocapronsaeure; Epsilon-aminocaproic acid; Epsilon-aminocapronzuur; Hemocaprol; Hemopar; Hepin; Hexanoic acid, 6-amino-; Ipsilon; JD 177; Kyselina omega-aminokapronova [Czech]; Respramin; epsilon S; epsilon-Amino-n-hexanoic acid; epsilon-Aminocaproic acid; epsilon-Aminohexanoic acid; epsilon-Leucine; epsilon-Norleucine; omega-Aminocaproic acid; omega-Aminohexanoic acid; [ChemIDplus]",
        "links": [],
        "cross_references": [
          {
            "type": "name_match",
            "text": "mica",
            "confidence": 1.0,
            "uuid": "433f26f1-c399-4596-b179-ce3843cfd465",
            "name": "Mica",
            "url": "https://haz-map.com/Agents/621",
            "category": "agents"
          },
          {
            "type": "name_match",
            "text": "ramin",
            "confidence": 1.0,
            "uuid": "f0fbb433-5eef-4a70-a208-66cc45df5768",
            "name": "Ramin",
            "url": "https://haz-map.com/Agents/962",
            "category": "agents"
          },
          {
            "type": "name_match",
            "text": "caproic acid",
            "confidence": 1.0,
            "uuid": "a68f84aa-0e47-4c25-9c1f-566b2ee47c7e",
            "name": "Caproic acid",
            "url": "https://haz-map.com/Agents/5532",
            "category": "agents"
          },
          {
            "type": "name_match",
            "text": "leucine",
            "confidence": 1.0,
            "uuid": "ba733437-a503-4dd6-9f58-9ce7cb505d48",
            "name": "Leucine",
            "url": "https://haz-map.com/Agents/15162",
            "category": "agents"
          }
        ]
      },
      "category": {
        "original_name": "Category",
        "value": "Amino Carboxylic Acids",
        "links": [],
        "cross_references": []
      },
      "description": {
        "original_name": "Description",
        "value": "White solid; [HSDB] White crystalline solid; [MSDSonline]",
        "links": [],
        "cross_references": [
          {
            "type": "fuzzy_match",
            "text": "crystalline",
            "matched_name": "Silica, crystalline",
            "confidence": 0.7061403508771931,
            "uuid": "f920e8a2-46df-41b7-af8d-0368a777251e",
            "category": "agents",
            "url": "https://haz-map.com/Agents/427"
          }
        ]
      },
      "sourcesuses": {
        "original_name": "Sources/Uses",
        "value": "Used as a captive chemical intermediate in the production of nylon 6; [HSDB] Used as a hemostatic; [Merck Index] An inhibitor of fibrinolysis and sold as Amicar; [REPROTOX]",
        "links": [],
        "cross_references": [
          {
            "type": "name_match",
            "text": "mica",
            "confidence": 1.0,
            "uuid": "433f26f1-c399-4596-b179-ce3843cfd465",
            "name": "Mica",
            "url": "https://haz-map.com/Agents/621",
            "category": "agents"
          },
          {
            "type": "name_match",
            "text": "nylon",
            "confidence": 1.0,
            "uuid": "0e2f3b4e-3e5c-4698-94b9-095a82afcc37",
            "name": "Nylon",
            "url": "https://haz-map.com/Agents/16189",
            "category": "agents"
          },
          {
            "type": "name_match",
            "text": "nylon 6",
            "confidence": 1.0,
            "uuid": "ea24ee07-e03f-4775-8a41-34fe64fc2160",
            "name": "Nylon 6",
            "url": "https://haz-map.com/Agents/16675",
            "category": "agents"
          }
        ]
      },
      "comments": {
        "original_name": "Comments",
        "value": "Possible side effects in long-term therapy greater than 2 weeks include seizures, myopathy, renal failure, and kidney failure; [HSDB] May cause irritation; Effects in high-dose animal studies include convulsions or effect on seizure threshold and changes in the renal tubules; [MSDSonline] Not teratogenic in rabbits; [REPROTOX]",
        "links": [],
        "cross_references": [
          {
            "type": "name_match",
            "text": "convulsion",
            "confidence": 1.0,
            "uuid": "af2c36f8-707a-48e3-a62b-1aa07adc9b72",
            "name": "convulsion",
            "url": "https://haz-map.com/Findings/14",
            "category": "findings"
          }
        ]
      },
      "biomedical_references": {
        "original_name": "Biomedical References",
        "value": "Search PubMed",
        "links": [
          {
            "text": "Search PubMed",
            "url": "https://www.ncbi.nlm.nih.gov/pubmed?term=6-Aminocaproic+acid%20AND%20human%5Bmh%5D%20AND%20%28Occupational%20Diseases%20%5Bmh%5D%20OR%20Occupational%20Exposure%20%5Bmh%5D%29%20%20AND%20%28tox%5Bsb%5D%29&cmd=search"
          }
        ],
        "cross_references": []
      }
    },
    "exposure_assessment": {
      "vapor_pressure": {
        "original_name": "Vapor Pressure",
        "value": "3.01E-09 mm Hg",
        "links": [],
        "cross_references": []
      }
    },
    "adverse_effects": {
      "neurotoxin": {
        "original_name": "Neurotoxin",
        "value": "Other CNS neurotoxin",
        "links": [],
        "cross_references": []
      },
      "hepatotoxin": {
        "original_name": "Hepatotoxin",
        "value": "Hepatoxic (a) from occupational exposure (secondary effect) or (b) in animal studies or in humans after ingestion",
        "links": [],
        "cross_references": []
      }
    },
    "diseases_processes_and_activities_linked_to_this_agent": {
      "other_information": {
        "original_name": "Other Information",
        "value": "No other related information on this agent was found.",
        "links": [],
        "cross_references": []
      }
    }
  },
  "cross_references": [
    {
      "type": "name_match",
      "text": "convulsion",
      "confidence": 1.0,
      "uuid": "af2c36f8-707a-48e3-a62b-1aa07adc9b72",
      "name": "convulsion",
      "url": "https://haz-map.com/Findings/14",
      "category": "findings"
    },
    {
      "type": "name_match",
      "text": "mica",
      "confidence": 1.0,
      "uuid": "433f26f1-c399-4596-b179-ce3843cfd465",
      "name": "Mica",
      "url": "https://haz-map.com/Agents/621",
      "category": "agents"
    },
    {
      "type": "name_match",
      "text": "ramin",
      "confidence": 1.0,
      "uuid": "f0fbb433-5eef-4a70-a208-66cc45df5768",
      "name": "Ramin",
      "url": "https://haz-map.com/Agents/962",
      "category": "agents"
    },
    {
      "type": "name_match",
      "text": "nitrogen",
      "confidence": 1.0,
      "uuid": "db5e90a9-06d2-45b9-8b81-f345a89b0bc0",
      "name": "Nitrogen",
      "url": "https://haz-map.com/Agents/1072",
      "category": "agents"
    },
    {
      "type": "name_match",
      "text": "6-aminocaproic acid",
      "confidence": 1.0,
      "uuid": "00d66019-7920-4bc1-bead-ee163a42c194",
      "name": "6-Aminocaproic acid",
      "url": "https://haz-map.com/Agents/3484",
      "category": "agents"
    },
    {
      "type": "name_match",
      "text": "caproic acid",
      "confidence": 1.0,
      "uuid": "a68f84aa-0e47-4c25-9c1f-566b2ee47c7e",
      "name": "Caproic acid",
      "url": "https://haz-map.com/Agents/5532",
      "category": "agents"
    },
    {
      "type": "name_match",
      "text": "leucine",
      "confidence": 1.0,
      "uuid": "ba733437-a503-4dd6-9f58-9ce7cb505d48",
      "name": "Leucine",
      "url": "https://haz-map.com/Agents/15162",
      "category": "agents"
    },
    {
      "type": "name_match",
      "text": "nylon",
      "confidence": 1.0,
      "uuid": "0e2f3b4e-3e5c-4698-94b9-095a82afcc37",
      "name": "Nylon",
      "url": "https://haz-map.com/Agents/16189",
      "category": "agents"
    },
    {
      "type": "name_match",
      "text": "nylon 6",
      "confidence": 1.0,
      "uuid": "ea24ee07-e03f-4775-8a41-34fe64fc2160",
      "name": "Nylon 6",
      "url": "https://haz-map.com/Agents/16675",
      "category": "agents"
    },
    {
      "type": "fuzzy_match",
      "text": "crystalline",
      "matched_name": "Silica, crystalline",
      "confidence": 0.7061403508771931,
      "uuid": "f920e8a2-46df-41b7-af8d-0368a777251e",
      "category": "agents",
      "url": "https://haz-map.com/Agents/427"
    }
  ],
  "all_links": [
    {
      "text": "Search PubMed",
      "url": "https://www.ncbi.nlm.nih.gov/pubmed?term=6-Aminocaproic+acid%20AND%20human%5Bmh%5D%20AND%20%28Occupational%20Diseases%20%5Bmh%5D%20OR%20Occupational%20Exposure%20%5Bmh%5D%29%20%20AND%20%28tox%5Bsb%5D%29&cmd=search"
    }
  ]
}