{
  "metadata": {
    "scraped_from": "https://haz-map.com/Agents/6459",
    "entity_name": "Oleyl alcohol",
    "category": "agents",
    "uuid": "00e45019-ba21-4c68-a102-23b883939ce2",
    "scraped_at": "2025-07-23T20:02:14.496721"
  },
  "parsed_at": "2025-07-24T01:07:27.246102",
  "title": "Oleyl alcohol",
  "sections": {
    "general": {
      "agent_name": {
        "original_name": "Agent Name",
        "value": "Oleyl alcohol",
        "links": [],
        "cross_references": [
          {
            "type": "name_match",
            "text": "oleyl alcohol",
            "confidence": 1.0,
            "uuid": "00e45019-ba21-4c68-a102-23b883939ce2",
            "name": "Oleyl alcohol",
            "url": "https://haz-map.com/Agents/6459",
            "category": "agents"
          }
        ]
      },
      "cas_number": {
        "original_name": "CAS Number",
        "value": "143-28-2",
        "links": [],
        "cross_references": []
      },
      "formula": {
        "original_name": "Formula",
        "value": "C18-H36-O",
        "links": [],
        "cross_references": []
      },
      "major_category": {
        "original_name": "Major Category",
        "value": "Other Uses",
        "links": [],
        "cross_references": []
      },
      "synonyms": {
        "original_name": "Synonyms",
        "value": "9-Octadecen-1-ol; (Z)-9-Octadecen-1-ol; Oleyl alcohol; Adol 320; Adol 330; Adol 34; Adol 340; Adol 80; Adol 85; Adol 90; Atalco O; Cachalot O-1; Cachalot O-15; Cachalot O-3; Cachalot O-8; Conditioner 1; Crodacol A.10; Crodacol-O; Dermaffine; H.D. eutanol; HD oleyl alcohol 70/75; HD oleyl alcohol 80/85; HD oleyl alcohol 90/95; HD oleyl alcohol CG; HD-Ocenol 90/95; HD-Ocenol K; Lancol; Loxanol 95; Loxanol M; Novol; Ocenol; Oceol; Octadecenol; Oleic alcohol; Oleo alcohol; Oleol; Oleoyl alcohol; Olive alcohol; Satol; Sipol O; Siponol OC; Unjecol 110; Unjecol 50; Unjecol 70; Unjecol 90; Witcohol 85; Witcohol 90; cis-9-Octadecen-1-ol; cis-9-Octadecenyl alcohol; [ChemIDplus]",
        "links": [],
        "cross_references": [
          {
            "type": "name_match",
            "text": "oleyl alcohol",
            "confidence": 1.0,
            "uuid": "00e45019-ba21-4c68-a102-23b883939ce2",
            "name": "Oleyl alcohol",
            "url": "https://haz-map.com/Agents/6459",
            "category": "agents"
          }
        ]
      },
      "category": {
        "original_name": "Category",
        "value": "Emulsifiers/Surfactants",
        "links": [],
        "cross_references": []
      },
      "description": {
        "original_name": "Description",
        "value": "Liquid (usually pale yellow); mp = 13-19 deg C; [Merck Index] Pale yellow liquid; [MSDSonline]",
        "links": [],
        "cross_references": []
      },
      "sourcesuses": {
        "original_name": "Sources/Uses",
        "value": "Present in fish oils; [Merck Index] Used to make its sulfuric esters (detergents and wetting agents) and in carbon paper, stencil paper, printing inks, and bath oils; Used as metal cutting lubricant, plasticizer, softener and lubricant for textiles, carrier for medicaments, thickener in hair colorants, solvent for fragrances, and emulsifying, opacifying, antifoam, and viscosity increasing agent; [HSDB]",
        "links": [],
        "cross_references": [
          {
            "type": "name_match",
            "text": "carbon",
            "confidence": 1.0,
            "uuid": "b53f8815-ee80-40ef-b4aa-3b000e17dab5",
            "name": "Carbon",
            "url": "https://haz-map.com/Agents/1891",
            "category": "agents"
          },
          {
            "type": "name_match",
            "text": "sulfur",
            "confidence": 1.0,
            "uuid": "5aabdef6-71c8-44c8-b762-feaabff50696",
            "name": "Sulfur",
            "url": "https://haz-map.com/Agents/1942",
            "category": "agents"
          }
        ]
      },
      "comments": {
        "original_name": "Comments",
        "value": "May cause skin sensitization after prolonged contact, based on human patch test studies; [Reference #1] A skin irritant; [eChemPortal: ERMA] An irritant; [MSDSonline]",
        "links": [],
        "cross_references": []
      },
      "reference_link_1": {
        "original_name": "Reference Link #1",
        "value": "PubMed: Contact dermatitis from fatty alcohols.",
        "links": [
          {
            "text": "PubMed: Contact dermatitis from fatty alcohols.",
            "url": "http://www.ncbi.nlm.nih.gov/pubmed/9007374"
          }
        ],
        "cross_references": [
          {
            "type": "name_match",
            "text": "dermatitis",
            "confidence": 1.0,
            "uuid": "fe9c05f2-b19f-4ceb-ac7a-ffb7d7a0cae0",
            "name": "dermatitis",
            "url": "https://haz-map.com/Findings/59",
            "category": "findings"
          },
          {
            "type": "fuzzy_match",
            "text": "contact dermatitis",
            "matched_name": "Contact dermatitis, allergic",
            "confidence": 0.7214285714285715,
            "uuid": "c9499de0-9aa1-41bf-8753-cd5b28a63e29",
            "category": "diseases",
            "url": "https://haz-map.com/Diseases/18"
          }
        ]
      },
      "biomedical_references": {
        "original_name": "Biomedical References",
        "value": "Search PubMed",
        "links": [
          {
            "text": "Search PubMed",
            "url": "https://www.ncbi.nlm.nih.gov/pubmed?term=Oleyl+alcohol%20AND%20human%5Bmh%5D%20AND%20%28Occupational%20Diseases%20%5Bmh%5D%20OR%20Occupational%20Exposure%20%5Bmh%5D%29%20%20AND%20%28tox%5Bsb%5D%29&cmd=search"
          }
        ],
        "cross_references": []
      }
    },
    "exposure_assessment": {
      "vapor_pressure": {
        "original_name": "Vapor Pressure",
        "value": "9.3E-05 mm Hg",
        "links": [],
        "cross_references": []
      }
    },
    "adverse_effects": {
      "skin_sensitizer": {
        "original_name": "Skin Sensitizer",
        "value": "Yes",
        "links": [],
        "cross_references": []
      }
    },
    "diseases_processes_and_activities_linked_to_this_agent": {
      "diseases": {
        "original_name": "Diseases",
        "value": "Occupational diseases associated with exposure to this agent: Contact dermatitis, allergic",
        "links": [
          {
            "text": "Contact dermatitis, allergic",
            "url": "https://haz-map.com/Diseases/18"
          }
        ],
        "cross_references": [
          {
            "type": "url_match",
            "text": "Contact dermatitis, allergic",
            "url": "https://haz-map.com/Diseases/18",
            "confidence": 1.0,
            "uuid": "c9499de0-9aa1-41bf-8753-cd5b28a63e29",
            "name": "Contact dermatitis, allergic",
            "category": "diseases"
          },
          {
            "type": "name_match",
            "text": "dermatitis",
            "confidence": 1.0,
            "uuid": "fe9c05f2-b19f-4ceb-ac7a-ffb7d7a0cae0",
            "name": "dermatitis",
            "url": "https://haz-map.com/Findings/59",
            "category": "findings"
          }
        ]
      },
      "processes": {
        "original_name": "Processes",
        "value": "Industrial Processes with risk of exposure: Dressing Hair Metal Machining Pulp and Paper Processing Textiles (Fiber & Fabric Manufacturing)",
        "links": [
          {
            "text": "Dressing Hair",
            "url": "https://haz-map.com/Processes/258"
          },
          {
            "text": "Metal Machining",
            "url": "https://haz-map.com/Processes/35"
          },
          {
            "text": "Pulp and Paper Processing",
            "url": "https://haz-map.com/Processes/132"
          },
          {
            "text": "Textiles (Fiber & Fabric Manufacturing)",
            "url": "https://haz-map.com/Processes/135"
          }
        ],
        "cross_references": [
          {
            "type": "url_match",
            "text": "Metal Machining",
            "url": "https://haz-map.com/Processes/35",
            "confidence": 1.0,
            "uuid": "742028ba-ba09-4d7c-bb80-f70af1454300",
            "name": "Metal Machining",
            "category": "processes"
          },
          {
            "type": "url_match",
            "text": "Pulp and Paper Processing",
            "url": "https://haz-map.com/Processes/132",
            "confidence": 1.0,
            "uuid": "30075079-d057-47e2-a7d8-e89bfc59d8df",
            "name": "Pulp and Paper Processing",
            "category": "processes"
          },
          {
            "type": "url_match",
            "text": "Textiles (Fiber & Fabric Manufacturing)",
            "url": "https://haz-map.com/Processes/135",
            "confidence": 1.0,
            "uuid": "43ebdcdb-bb09-4402-87b6-ae8cf169dddd",
            "name": "Textiles (Fiber & Fabric Manufacturing)",
            "category": "processes"
          }
        ]
      }
    }
  },
  "cross_references": [
    {
      "type": "url_match",
      "text": "Contact dermatitis, allergic",
      "url": "https://haz-map.com/Diseases/18",
      "confidence": 1.0,
      "uuid": "c9499de0-9aa1-41bf-8753-cd5b28a63e29",
      "name": "Contact dermatitis, allergic",
      "category": "diseases"
    },
    {
      "type": "url_match",
      "text": "Metal Machining",
      "url": "https://haz-map.com/Processes/35",
      "confidence": 1.0,
      "uuid": "742028ba-ba09-4d7c-bb80-f70af1454300",
      "name": "Metal Machining",
      "category": "processes"
    },
    {
      "type": "url_match",
      "text": "Pulp and Paper Processing",
      "url": "https://haz-map.com/Processes/132",
      "confidence": 1.0,
      "uuid": "30075079-d057-47e2-a7d8-e89bfc59d8df",
      "name": "Pulp and Paper Processing",
      "category": "processes"
    },
    {
      "type": "url_match",
      "text": "Textiles (Fiber & Fabric Manufacturing)",
      "url": "https://haz-map.com/Processes/135",
      "confidence": 1.0,
      "uuid": "43ebdcdb-bb09-4402-87b6-ae8cf169dddd",
      "name": "Textiles (Fiber & Fabric Manufacturing)",
      "category": "processes"
    },
    {
      "type": "name_match",
      "text": "dermatitis",
      "confidence": 1.0,
      "uuid": "fe9c05f2-b19f-4ceb-ac7a-ffb7d7a0cae0",
      "name": "dermatitis",
      "url": "https://haz-map.com/Findings/59",
      "category": "findings"
    },
    {
      "type": "name_match",
      "text": "carbon",
      "confidence": 1.0,
      "uuid": "b53f8815-ee80-40ef-b4aa-3b000e17dab5",
      "name": "Carbon",
      "url": "https://haz-map.com/Agents/1891",
      "category": "agents"
    },
    {
      "type": "name_match",
      "text": "sulfur",
      "confidence": 1.0,
      "uuid": "5aabdef6-71c8-44c8-b762-feaabff50696",
      "name": "Sulfur",
      "url": "https://haz-map.com/Agents/1942",
      "category": "agents"
    },
    {
      "type": "name_match",
      "text": "oleyl alcohol",
      "confidence": 1.0,
      "uuid": "00e45019-ba21-4c68-a102-23b883939ce2",
      "name": "Oleyl alcohol",
      "url": "https://haz-map.com/Agents/6459",
      "category": "agents"
    }
  ],
  "all_links": [
    {
      "text": "PubMed: Contact dermatitis from fatty alcohols.",
      "url": "http://www.ncbi.nlm.nih.gov/pubmed/9007374"
    },
    {
      "text": "Search PubMed",
      "url": "https://www.ncbi.nlm.nih.gov/pubmed?term=Oleyl+alcohol%20AND%20human%5Bmh%5D%20AND%20%28Occupational%20Diseases%20%5Bmh%5D%20OR%20Occupational%20Exposure%20%5Bmh%5D%29%20%20AND%20%28tox%5Bsb%5D%29&cmd=search"
    },
    {
      "text": "Contact dermatitis, allergic",
      "url": "https://haz-map.com/Diseases/18"
    },
    {
      "text": "Dressing Hair",
      "url": "https://haz-map.com/Processes/258"
    },
    {
      "text": "Metal Machining",
      "url": "https://haz-map.com/Processes/35"
    },
    {
      "text": "Pulp and Paper Processing",
      "url": "https://haz-map.com/Processes/132"
    },
    {
      "text": "Textiles (Fiber & Fabric Manufacturing)",
      "url": "https://haz-map.com/Processes/135"
    }
  ]
}