{
  "metadata": {
    "scraped_from": "https://haz-map.com/Agents/10528",
    "entity_name": "13H-Dibenzo(a,i)carbazole",
    "category": "agents",
    "uuid": "0116072c-8c32-4699-80d5-290c3b5a67db",
    "scraped_at": "2025-07-23T20:48:45.971695"
  },
  "parsed_at": "2025-07-24T01:16:54.641889",
  "title": "13H-Dibenzo(a,i)carbazole",
  "sections": {
    "general": {
      "agent_name": {
        "original_name": "Agent Name",
        "value": "13H-Dibenzo(a,i)carbazole",
        "links": [],
        "cross_references": [
          {
            "type": "name_match",
            "text": "carbazole",
            "confidence": 1.0,
            "uuid": "73ba2b09-9c5e-48dd-ab91-49766b779812",
            "name": "Carbazole",
            "url": "https://haz-map.com/Agents/4216",
            "category": "agents"
          },
          {
            "type": "name_match",
            "text": "13h-dibenzo(a,i)carbazole",
            "confidence": 1.0,
            "uuid": "0116072c-8c32-4699-80d5-290c3b5a67db",
            "name": "13H-Dibenzo(a,i)carbazole",
            "url": "https://haz-map.com/Agents/10528",
            "category": "agents"
          }
        ]
      },
      "cas_number": {
        "original_name": "CAS Number",
        "value": "239-64-5",
        "links": [],
        "cross_references": []
      },
      "formula": {
        "original_name": "Formula",
        "value": "C20-H13-N",
        "links": [],
        "cross_references": []
      },
      "major_category": {
        "original_name": "Major Category",
        "value": "Other Classes",
        "links": [],
        "cross_references": []
      },
      "synonyms": {
        "original_name": "Synonyms",
        "value": "1,2,7,8-Dibenzcarbazole; 1,2:7,8-Dibenzocarbazole; 13-Aza-13H-dibenzo(a,i)fluorene; Dibenzo(a,i)carbazole; [ChemIDplus]",
        "links": [],
        "cross_references": [
          {
            "type": "name_match",
            "text": "carbazole",
            "confidence": 1.0,
            "uuid": "73ba2b09-9c5e-48dd-ab91-49766b779812",
            "name": "Carbazole",
            "url": "https://haz-map.com/Agents/4216",
            "category": "agents"
          },
          {
            "type": "name_match",
            "text": "fluorene",
            "confidence": 1.0,
            "uuid": "4ec22b2a-d246-4dea-a0fe-a9022b632454",
            "name": "Fluorene",
            "url": "https://haz-map.com/Agents/7844",
            "category": "agents"
          }
        ]
      },
      "category": {
        "original_name": "Category",
        "value": "Polycyclic Aromatic Hydrocarbons",
        "links": [],
        "cross_references": [
          {
            "type": "name_match",
            "text": "polycyclic aromatic hydrocarbons",
            "confidence": 1.0,
            "uuid": "0f103271-339e-42e1-80e3-bf90a8be7084",
            "name": "POLYCYCLIC AROMATIC HYDROCARBONS",
            "url": "https://haz-map.com/Agents/720",
            "category": "agents"
          },
          {
            "type": "name_match",
            "text": "carbon",
            "confidence": 1.0,
            "uuid": "b53f8815-ee80-40ef-b4aa-3b000e17dab5",
            "name": "Carbon",
            "url": "https://haz-map.com/Agents/1891",
            "category": "agents"
          },
          {
            "type": "fuzzy_match",
            "text": "aromatic hydrocarbons",
            "matched_name": "Aromatic hydrocarbons, C9-C11",
            "confidence": 0.7509578544061303,
            "uuid": "1e86d79b-784d-40c4-8412-39a4432a7a75",
            "category": "agents",
            "url": "https://haz-map.com/Agents/20258"
          },
          {
            "type": "fuzzy_match",
            "text": "hydrocarbons",
            "matched_name": "Hydrocarbons, C>3",
            "confidence": 0.7100840336134454,
            "uuid": "8eaa37ac-3931-44e4-9242-2734127fd661",
            "category": "agents",
            "url": "https://haz-map.com/Agents/14795"
          }
        ]
      },
      "comments": {
        "original_name": "Comments",
        "value": "See \"POLYCYCLIC AROMATIC HYDROCARBONS.\"",
        "links": [],
        "cross_references": [
          {
            "type": "name_match",
            "text": "polycyclic aromatic hydrocarbons",
            "confidence": 1.0,
            "uuid": "0f103271-339e-42e1-80e3-bf90a8be7084",
            "name": "POLYCYCLIC AROMATIC HYDROCARBONS",
            "url": "https://haz-map.com/Agents/720",
            "category": "agents"
          },
          {
            "type": "name_match",
            "text": "carbon",
            "confidence": 1.0,
            "uuid": "b53f8815-ee80-40ef-b4aa-3b000e17dab5",
            "name": "Carbon",
            "url": "https://haz-map.com/Agents/1891",
            "category": "agents"
          },
          {
            "type": "fuzzy_match",
            "text": "aromatic hydrocarbons",
            "matched_name": "Aromatic hydrocarbons, C9-C11",
            "confidence": 0.7509578544061303,
            "uuid": "1e86d79b-784d-40c4-8412-39a4432a7a75",
            "category": "agents",
            "url": "https://haz-map.com/Agents/20258"
          },
          {
            "type": "fuzzy_match",
            "text": "hydrocarbons",
            "matched_name": "Hydrocarbons, C>3",
            "confidence": 0.7100840336134454,
            "uuid": "8eaa37ac-3931-44e4-9242-2734127fd661",
            "category": "agents",
            "url": "https://haz-map.com/Agents/14795"
          }
        ]
      },
      "biomedical_references": {
        "original_name": "Biomedical References",
        "value": "Search PubMed",
        "links": [
          {
            "text": "Search PubMed",
            "url": "https://www.ncbi.nlm.nih.gov/pubmed?term=13H-Dibenzo(a%2ci)carbazole%20AND%20human%5Bmh%5D%20AND%20%28Occupational%20Diseases%20%5Bmh%5D%20OR%20Occupational%20Exposure%20%5Bmh%5D%29%20%20AND%20%28tox%5Bsb%5D%29&cmd=search"
          }
        ],
        "cross_references": []
      }
    },
    "exposure_assessment": {
      "vapor_pressure": {
        "original_name": "Vapor Pressure",
        "value": "1.22E-09 mm Hg",
        "links": [],
        "cross_references": []
      }
    },
    "diseases_processes_and_activities_linked_to_this_agent": {
      "other_information": {
        "original_name": "Other Information",
        "value": "No other related information on this agent was found.",
        "links": [],
        "cross_references": []
      }
    }
  },
  "cross_references": [
    {
      "type": "name_match",
      "text": "polycyclic aromatic hydrocarbons",
      "confidence": 1.0,
      "uuid": "0f103271-339e-42e1-80e3-bf90a8be7084",
      "name": "POLYCYCLIC AROMATIC HYDROCARBONS",
      "url": "https://haz-map.com/Agents/720",
      "category": "agents"
    },
    {
      "type": "name_match",
      "text": "carbon",
      "confidence": 1.0,
      "uuid": "b53f8815-ee80-40ef-b4aa-3b000e17dab5",
      "name": "Carbon",
      "url": "https://haz-map.com/Agents/1891",
      "category": "agents"
    },
    {
      "type": "name_match",
      "text": "carbazole",
      "confidence": 1.0,
      "uuid": "73ba2b09-9c5e-48dd-ab91-49766b779812",
      "name": "Carbazole",
      "url": "https://haz-map.com/Agents/4216",
      "category": "agents"
    },
    {
      "type": "name_match",
      "text": "fluorene",
      "confidence": 1.0,
      "uuid": "4ec22b2a-d246-4dea-a0fe-a9022b632454",
      "name": "Fluorene",
      "url": "https://haz-map.com/Agents/7844",
      "category": "agents"
    },
    {
      "type": "name_match",
      "text": "13h-dibenzo(a,i)carbazole",
      "confidence": 1.0,
      "uuid": "0116072c-8c32-4699-80d5-290c3b5a67db",
      "name": "13H-Dibenzo(a,i)carbazole",
      "url": "https://haz-map.com/Agents/10528",
      "category": "agents"
    },
    {
      "type": "fuzzy_match",
      "text": "aromatic hydrocarbons",
      "matched_name": "Aromatic hydrocarbons, C9-C11",
      "confidence": 0.7509578544061303,
      "uuid": "1e86d79b-784d-40c4-8412-39a4432a7a75",
      "category": "agents",
      "url": "https://haz-map.com/Agents/20258"
    },
    {
      "type": "fuzzy_match",
      "text": "hydrocarbons",
      "matched_name": "Hydrocarbons, C>3",
      "confidence": 0.7100840336134454,
      "uuid": "8eaa37ac-3931-44e4-9242-2734127fd661",
      "category": "agents",
      "url": "https://haz-map.com/Agents/14795"
    }
  ],
  "all_links": [
    {
      "text": "Search PubMed",
      "url": "https://www.ncbi.nlm.nih.gov/pubmed?term=13H-Dibenzo(a%2ci)carbazole%20AND%20human%5Bmh%5D%20AND%20%28Occupational%20Diseases%20%5Bmh%5D%20OR%20Occupational%20Exposure%20%5Bmh%5D%29%20%20AND%20%28tox%5Bsb%5D%29&cmd=search"
    }
  ]
}