{
  "metadata": {
    "scraped_from": "https://haz-map.com/Agents/2736",
    "entity_name": "1,2-Acenaphthylenedione",
    "category": "agents",
    "uuid": "01964207-a9c8-4636-bb4a-b1d214a6b259",
    "scraped_at": "2025-07-23T19:18:18.905751"
  },
  "parsed_at": "2025-07-24T00:56:25.481939",
  "title": "1,2-Acenaphthylenedione",
  "sections": {
    "general": {
      "agent_name": {
        "original_name": "Agent Name",
        "value": "1,2-Acenaphthylenedione",
        "links": [],
        "cross_references": [
          {
            "type": "name_match",
            "text": "ht",
            "confidence": 1.0,
            "uuid": "764df367-8d53-4a11-81a2-31ccfe122a8d",
            "name": "HT",
            "url": "https://haz-map.com/Agents/2168",
            "category": "agents"
          },
          {
            "type": "name_match",
            "text": "1,2-acenaphthylenedione",
            "confidence": 1.0,
            "uuid": "01964207-a9c8-4636-bb4a-b1d214a6b259",
            "name": "1,2-Acenaphthylenedione",
            "url": "https://haz-map.com/Agents/2736",
            "category": "agents"
          },
          {
            "type": "name_match",
            "text": "acenaphthylene",
            "confidence": 1.0,
            "uuid": "cb63a68e-45f1-4807-b1fb-4f4bf24a42d2",
            "name": "Acenaphthylene",
            "url": "https://haz-map.com/Agents/11354",
            "category": "agents"
          }
        ]
      },
      "cas_number": {
        "original_name": "CAS Number",
        "value": "82-86-0",
        "links": [],
        "cross_references": []
      },
      "formula": {
        "original_name": "Formula",
        "value": "C12-H6-O2",
        "links": [],
        "cross_references": []
      },
      "major_category": {
        "original_name": "Major Category",
        "value": "Pesticides",
        "links": [],
        "cross_references": []
      },
      "synonyms": {
        "original_name": "Synonyms",
        "value": "1,2-Acenaphthenequinone; Acenaphthaquinone; Acenaphthenedione; Acenaphthenequinone; Acenaphthoquinone; Acenaphthylene-1,2-quinone; Acenaphthylenequinone; [ChemIDplus]",
        "links": [],
        "cross_references": [
          {
            "type": "name_match",
            "text": "quinone",
            "confidence": 1.0,
            "uuid": "d01e66c3-ad06-4707-8d42-3c6655001c1a",
            "name": "Quinone",
            "url": "https://haz-map.com/Agents/303",
            "category": "agents"
          },
          {
            "type": "name_match",
            "text": "acenaphthene",
            "confidence": 1.0,
            "uuid": "bbecf494-7789-426b-935c-37e34762d9b7",
            "name": "Acenaphthene",
            "url": "https://haz-map.com/Agents/1772",
            "category": "agents"
          },
          {
            "type": "name_match",
            "text": "ht",
            "confidence": 1.0,
            "uuid": "764df367-8d53-4a11-81a2-31ccfe122a8d",
            "name": "HT",
            "url": "https://haz-map.com/Agents/2168",
            "category": "agents"
          },
          {
            "type": "name_match",
            "text": "acenaphthylene",
            "confidence": 1.0,
            "uuid": "cb63a68e-45f1-4807-b1fb-4f4bf24a42d2",
            "name": "Acenaphthylene",
            "url": "https://haz-map.com/Agents/11354",
            "category": "agents"
          }
        ]
      },
      "category": {
        "original_name": "Category",
        "value": "Fungicides",
        "links": [],
        "cross_references": [
          {
            "type": "name_match",
            "text": "fungicides",
            "confidence": 1.0,
            "uuid": "f4a9c1e1-4d57-4480-be97-d3590d38ce39",
            "name": "FUNGICIDES",
            "url": "https://haz-map.com/Agents/763",
            "category": "agents"
          },
          {
            "type": "name_match",
            "text": "fungi",
            "confidence": 1.0,
            "uuid": "e0d489cb-bfee-4aee-b665-999c017268a2",
            "name": "Fungi",
            "url": "https://haz-map.com/Agents/1988",
            "category": "agents"
          }
        ]
      },
      "description": {
        "original_name": "Description",
        "value": "Yellow solid; [HSDB] Yellow powder; [MSDSonline]",
        "links": [],
        "cross_references": []
      },
      "sourcesuses": {
        "original_name": "Sources/Uses",
        "value": "Used as fungicide; [HSDB]",
        "links": [],
        "cross_references": [
          {
            "type": "name_match",
            "text": "fungi",
            "confidence": 1.0,
            "uuid": "e0d489cb-bfee-4aee-b665-999c017268a2",
            "name": "Fungi",
            "url": "https://haz-map.com/Agents/1988",
            "category": "agents"
          }
        ]
      },
      "comments": {
        "original_name": "Comments",
        "value": "An irritant; [MSDSonline]",
        "links": [],
        "cross_references": []
      },
      "biomedical_references": {
        "original_name": "Biomedical References",
        "value": "Search PubMed",
        "links": [
          {
            "text": "Search PubMed",
            "url": "https://www.ncbi.nlm.nih.gov/pubmed?term=1%2c2-Acenaphthylenedione%20AND%20human%5Bmh%5D%20AND%20%28Occupational%20Diseases%20%5Bmh%5D%20OR%20Occupational%20Exposure%20%5Bmh%5D%29%20%20AND%20%28tox%5Bsb%5D%29&cmd=search"
          }
        ],
        "cross_references": []
      }
    },
    "exposure_assessment": {
      "vapor_pressure": {
        "original_name": "Vapor Pressure",
        "value": "1.57E-05 mm Hg",
        "links": [],
        "cross_references": []
      }
    },
    "diseases_processes_and_activities_linked_to_this_agent": {
      "processes": {
        "original_name": "Processes",
        "value": "Industrial Processes with risk of exposure: Farming (Pesticides)",
        "links": [
          {
            "text": "Farming (Pesticides)",
            "url": "https://haz-map.com/Processes/218"
          }
        ],
        "cross_references": [
          {
            "type": "url_match",
            "text": "Farming (Pesticides)",
            "url": "https://haz-map.com/Processes/218",
            "confidence": 1.0,
            "uuid": "cf1e5815-c9bb-4917-82a5-391848170b7e",
            "name": "Farming (Pesticides)",
            "category": "processes"
          }
        ]
      }
    }
  },
  "cross_references": [
    {
      "type": "url_match",
      "text": "Farming (Pesticides)",
      "url": "https://haz-map.com/Processes/218",
      "confidence": 1.0,
      "uuid": "cf1e5815-c9bb-4917-82a5-391848170b7e",
      "name": "Farming (Pesticides)",
      "category": "processes"
    },
    {
      "type": "name_match",
      "text": "quinone",
      "confidence": 1.0,
      "uuid": "d01e66c3-ad06-4707-8d42-3c6655001c1a",
      "name": "Quinone",
      "url": "https://haz-map.com/Agents/303",
      "category": "agents"
    },
    {
      "type": "name_match",
      "text": "fungicides",
      "confidence": 1.0,
      "uuid": "f4a9c1e1-4d57-4480-be97-d3590d38ce39",
      "name": "FUNGICIDES",
      "url": "https://haz-map.com/Agents/763",
      "category": "agents"
    },
    {
      "type": "name_match",
      "text": "acenaphthene",
      "confidence": 1.0,
      "uuid": "bbecf494-7789-426b-935c-37e34762d9b7",
      "name": "Acenaphthene",
      "url": "https://haz-map.com/Agents/1772",
      "category": "agents"
    },
    {
      "type": "name_match",
      "text": "fungi",
      "confidence": 1.0,
      "uuid": "e0d489cb-bfee-4aee-b665-999c017268a2",
      "name": "Fungi",
      "url": "https://haz-map.com/Agents/1988",
      "category": "agents"
    },
    {
      "type": "name_match",
      "text": "ht",
      "confidence": 1.0,
      "uuid": "764df367-8d53-4a11-81a2-31ccfe122a8d",
      "name": "HT",
      "url": "https://haz-map.com/Agents/2168",
      "category": "agents"
    },
    {
      "type": "name_match",
      "text": "1,2-acenaphthylenedione",
      "confidence": 1.0,
      "uuid": "01964207-a9c8-4636-bb4a-b1d214a6b259",
      "name": "1,2-Acenaphthylenedione",
      "url": "https://haz-map.com/Agents/2736",
      "category": "agents"
    },
    {
      "type": "name_match",
      "text": "acenaphthylene",
      "confidence": 1.0,
      "uuid": "cb63a68e-45f1-4807-b1fb-4f4bf24a42d2",
      "name": "Acenaphthylene",
      "url": "https://haz-map.com/Agents/11354",
      "category": "agents"
    }
  ],
  "all_links": [
    {
      "text": "Search PubMed",
      "url": "https://www.ncbi.nlm.nih.gov/pubmed?term=1%2c2-Acenaphthylenedione%20AND%20human%5Bmh%5D%20AND%20%28Occupational%20Diseases%20%5Bmh%5D%20OR%20Occupational%20Exposure%20%5Bmh%5D%29%20%20AND%20%28tox%5Bsb%5D%29&cmd=search"
    },
    {
      "text": "Farming (Pesticides)",
      "url": "https://haz-map.com/Processes/218"
    }
  ]
}