{
  "metadata": {
    "scraped_from": "https://haz-map.com/Agents/6076",
    "entity_name": "3,5-Xylyl methylcarbamate",
    "category": "agents",
    "uuid": "01cd297e-62f7-4127-bf76-d3a35e2143a7",
    "scraped_at": "2025-07-23T19:58:21.940056"
  },
  "parsed_at": "2025-07-24T01:00:29.309776",
  "title": "3,5-Xylyl methylcarbamate",
  "sections": {
    "general": {
      "agent_name": {
        "original_name": "Agent Name",
        "value": "3,5-Xylyl methylcarbamate",
        "links": [],
        "cross_references": [
          {
            "type": "name_match",
            "text": "3,5-xylyl methylcarbamate",
            "confidence": 1.0,
            "uuid": "01cd297e-62f7-4127-bf76-d3a35e2143a7",
            "name": "3,5-Xylyl methylcarbamate",
            "url": "https://haz-map.com/Agents/6076",
            "category": "agents"
          }
        ]
      },
      "cas_number": {
        "original_name": "CAS Number",
        "value": "2655-14-3",
        "links": [],
        "cross_references": []
      },
      "formula": {
        "original_name": "Formula",
        "value": "C10-H13-N-O2",
        "links": [],
        "cross_references": []
      },
      "major_category": {
        "original_name": "Major Category",
        "value": "Pesticides",
        "links": [],
        "cross_references": []
      },
      "synonyms": {
        "original_name": "Synonyms",
        "value": "3,5-Dimethylphenol methylcarbamate; 3,5-Dimethylphenyl N-methylcarbamate; 3,5-Dimethylphenyl methylcarbamate (9CI); 3,5-XMC; 3,5-Xylenol, methylcarbamate; 3,5-Xylenyl N-methylcarbamate; 3,5-Xylyl N-methylcarbamate; 3,5-Xylylester kyseliny methylkarbaminove [Czech]; Carbaron; Cosban; DRC 3340; H-69; Macbal; Maqbal; Maqbarl; Methylcarbamic acid 3,5-xylyl ester; N-Methyl-3,5-xylyl carbamate; S 1041; XMC; XMC (VAN); XMC (pesticide); Carbamic acid, methyl-, 3,5-xylyl ester; Phenol, 3,5-dimethyl-, methylcarbamate (9CI); [ChemIDplus]",
        "links": [],
        "cross_references": [
          {
            "type": "name_match",
            "text": "phenol",
            "confidence": 1.0,
            "uuid": "03141a03-a7df-4f51-9a37-adde1a7c4b31",
            "name": "Phenol",
            "url": "https://haz-map.com/Agents/84",
            "category": "agents"
          },
          {
            "type": "name_match",
            "text": "xylenol",
            "confidence": 1.0,
            "uuid": "b3841b62-71db-4e83-86de-5a0182f482a9",
            "name": "Xylenol",
            "url": "https://haz-map.com/Agents/1442",
            "category": "agents"
          },
          {
            "type": "name_match",
            "text": "3,5-dimethylphenol",
            "confidence": 1.0,
            "uuid": "ffb14c2b-57f9-495d-9a6e-f6ee2ca79837",
            "name": "3,5-Dimethylphenol",
            "url": "https://haz-map.com/Agents/3208",
            "category": "agents"
          },
          {
            "type": "name_match",
            "text": "phenyl methylcarbamate",
            "confidence": 1.0,
            "uuid": "d4affaf6-2df5-4c83-8dc7-54a9c7973886",
            "name": "Phenyl methylcarbamate",
            "url": "https://haz-map.com/Agents/6657",
            "category": "agents"
          },
          {
            "type": "fuzzy_match",
            "text": "5-dimethylphenol",
            "matched_name": "2,5-Dimethylphenol",
            "confidence": 0.8777777777777778,
            "uuid": "362c1d56-559e-4727-a680-7e24502f0a7d",
            "category": "agents",
            "url": "https://haz-map.com/Agents/3027"
          }
        ]
      },
      "category": {
        "original_name": "Category",
        "value": "Carbamate Insecticides",
        "links": [],
        "cross_references": [
          {
            "type": "name_match",
            "text": "carbamate insecticides",
            "confidence": 1.0,
            "uuid": "d406afe4-aed9-49d6-a6fa-726d8c380439",
            "name": "CARBAMATE INSECTICIDES",
            "url": "https://haz-map.com/Agents/33",
            "category": "agents"
          }
        ]
      },
      "description": {
        "original_name": "Description",
        "value": "Colorless solid; [HSDB]",
        "links": [],
        "cross_references": []
      },
      "sourcesuses": {
        "original_name": "Sources/Uses",
        "value": "Used as an insecticide on rice and tea; [HSDB]",
        "links": [],
        "cross_references": [
          {
            "type": "name_match",
            "text": "tea",
            "confidence": 1.0,
            "uuid": "773409e5-ac1a-4c9e-9470-9667ca82091c",
            "name": "Tea",
            "url": "https://haz-map.com/Agents/878",
            "category": "agents"
          }
        ]
      },
      "comments": {
        "original_name": "Comments",
        "value": "Cholinesterase inhibitor; No effect level in 90-day feeding studies of mice and rats was 230 mg/kg/day; Most likely to be hazardous to workers by dermal route; Residues may be measured by ultraviolet spectroscopy after hydrolysis to 3,5-xylenol; [HSDB] See \"CARBAMATE INSECTICIDES.\"",
        "links": [],
        "cross_references": [
          {
            "type": "name_match",
            "text": "carbamate insecticides",
            "confidence": 1.0,
            "uuid": "d406afe4-aed9-49d6-a6fa-726d8c380439",
            "name": "CARBAMATE INSECTICIDES",
            "url": "https://haz-map.com/Agents/33",
            "category": "agents"
          },
          {
            "type": "name_match",
            "text": "xylenol",
            "confidence": 1.0,
            "uuid": "b3841b62-71db-4e83-86de-5a0182f482a9",
            "name": "Xylenol",
            "url": "https://haz-map.com/Agents/1442",
            "category": "agents"
          },
          {
            "type": "name_match",
            "text": "choline",
            "confidence": 1.0,
            "uuid": "a21a71e9-9d67-4563-9da2-98c4dcb1b766",
            "name": "Choline",
            "url": "https://haz-map.com/Agents/12978",
            "category": "agents"
          }
        ]
      },
      "biomedical_references": {
        "original_name": "Biomedical References",
        "value": "Search PubMed",
        "links": [
          {
            "text": "Search PubMed",
            "url": "https://www.ncbi.nlm.nih.gov/pubmed?term=3%2c5-Xylyl+methylcarbamate%20AND%20human%5Bmh%5D%20AND%20%28Occupational%20Diseases%20%5Bmh%5D%20OR%20Occupational%20Exposure%20%5Bmh%5D%29%20%20AND%20%28tox%5Bsb%5D%29&cmd=search"
          }
        ],
        "cross_references": []
      }
    },
    "exposure_assessment": {
      "bei": {
        "original_name": "BEI",
        "value": "Acetylcholinesterase activity in red blood cells = 70% of individual's baseline; Butylcholinesterase activity in serum or plasma = 60% of individual's baseline; Sample at end of shift; [TLVs and BEIs]",
        "links": [],
        "cross_references": [
          {
            "type": "name_match",
            "text": "choline",
            "confidence": 1.0,
            "uuid": "a21a71e9-9d67-4563-9da2-98c4dcb1b766",
            "name": "Choline",
            "url": "https://haz-map.com/Agents/12978",
            "category": "agents"
          }
        ]
      },
      "vapor_pressure": {
        "original_name": "Vapor Pressure",
        "value": "0.00036 mm Hg",
        "links": [],
        "cross_references": []
      },
      "explanatory_notes": {
        "original_name": "Explanatory Notes",
        "value": "VP from ChemIDplus;",
        "links": [],
        "cross_references": []
      }
    },
    "adverse_effects": {
      "other_poison": {
        "original_name": "Other Poison",
        "value": "Carbamate",
        "links": [],
        "cross_references": []
      }
    },
    "diseases_processes_and_activities_linked_to_this_agent": {
      "diseases": {
        "original_name": "Diseases",
        "value": "Occupational diseases associated with exposure to this agent: Organophosphates & carbamates, acute poisoning",
        "links": [
          {
            "text": "Organophosphates & carbamates, acute poisoning",
            "url": "https://haz-map.com/Diseases/66"
          }
        ],
        "cross_references": [
          {
            "type": "url_match",
            "text": "Organophosphates & carbamates, acute poisoning",
            "url": "https://haz-map.com/Diseases/66",
            "confidence": 1.0,
            "uuid": "aea2cba9-fb36-463f-84d8-b819551bb327",
            "name": "Organophosphates & carbamates, acute poisoning",
            "category": "diseases"
          },
          {
            "type": "name_match",
            "text": "organophosphates",
            "confidence": 1.0,
            "uuid": "8d2d239c-20f9-4f02-9916-5e7667b9990c",
            "name": "ORGANOPHOSPHATES",
            "url": "https://haz-map.com/Agents/702",
            "category": "agents"
          }
        ]
      },
      "processes": {
        "original_name": "Processes",
        "value": "Industrial Processes with risk of exposure: Farming (Pesticides)",
        "links": [
          {
            "text": "Farming (Pesticides)",
            "url": "https://haz-map.com/Processes/218"
          }
        ],
        "cross_references": [
          {
            "type": "url_match",
            "text": "Farming (Pesticides)",
            "url": "https://haz-map.com/Processes/218",
            "confidence": 1.0,
            "uuid": "cf1e5815-c9bb-4917-82a5-391848170b7e",
            "name": "Farming (Pesticides)",
            "category": "processes"
          }
        ]
      }
    }
  },
  "cross_references": [
    {
      "type": "url_match",
      "text": "Organophosphates & carbamates, acute poisoning",
      "url": "https://haz-map.com/Diseases/66",
      "confidence": 1.0,
      "uuid": "aea2cba9-fb36-463f-84d8-b819551bb327",
      "name": "Organophosphates & carbamates, acute poisoning",
      "category": "diseases"
    },
    {
      "type": "url_match",
      "text": "Farming (Pesticides)",
      "url": "https://haz-map.com/Processes/218",
      "confidence": 1.0,
      "uuid": "cf1e5815-c9bb-4917-82a5-391848170b7e",
      "name": "Farming (Pesticides)",
      "category": "processes"
    },
    {
      "type": "name_match",
      "text": "carbamate insecticides",
      "confidence": 1.0,
      "uuid": "d406afe4-aed9-49d6-a6fa-726d8c380439",
      "name": "CARBAMATE INSECTICIDES",
      "url": "https://haz-map.com/Agents/33",
      "category": "agents"
    },
    {
      "type": "name_match",
      "text": "phenol",
      "confidence": 1.0,
      "uuid": "03141a03-a7df-4f51-9a37-adde1a7c4b31",
      "name": "Phenol",
      "url": "https://haz-map.com/Agents/84",
      "category": "agents"
    },
    {
      "type": "name_match",
      "text": "organophosphates",
      "confidence": 1.0,
      "uuid": "8d2d239c-20f9-4f02-9916-5e7667b9990c",
      "name": "ORGANOPHOSPHATES",
      "url": "https://haz-map.com/Agents/702",
      "category": "agents"
    },
    {
      "type": "name_match",
      "text": "tea",
      "confidence": 1.0,
      "uuid": "773409e5-ac1a-4c9e-9470-9667ca82091c",
      "name": "Tea",
      "url": "https://haz-map.com/Agents/878",
      "category": "agents"
    },
    {
      "type": "name_match",
      "text": "xylenol",
      "confidence": 1.0,
      "uuid": "b3841b62-71db-4e83-86de-5a0182f482a9",
      "name": "Xylenol",
      "url": "https://haz-map.com/Agents/1442",
      "category": "agents"
    },
    {
      "type": "name_match",
      "text": "3,5-dimethylphenol",
      "confidence": 1.0,
      "uuid": "ffb14c2b-57f9-495d-9a6e-f6ee2ca79837",
      "name": "3,5-Dimethylphenol",
      "url": "https://haz-map.com/Agents/3208",
      "category": "agents"
    },
    {
      "type": "name_match",
      "text": "3,5-xylyl methylcarbamate",
      "confidence": 1.0,
      "uuid": "01cd297e-62f7-4127-bf76-d3a35e2143a7",
      "name": "3,5-Xylyl methylcarbamate",
      "url": "https://haz-map.com/Agents/6076",
      "category": "agents"
    },
    {
      "type": "name_match",
      "text": "phenyl methylcarbamate",
      "confidence": 1.0,
      "uuid": "d4affaf6-2df5-4c83-8dc7-54a9c7973886",
      "name": "Phenyl methylcarbamate",
      "url": "https://haz-map.com/Agents/6657",
      "category": "agents"
    },
    {
      "type": "name_match",
      "text": "choline",
      "confidence": 1.0,
      "uuid": "a21a71e9-9d67-4563-9da2-98c4dcb1b766",
      "name": "Choline",
      "url": "https://haz-map.com/Agents/12978",
      "category": "agents"
    },
    {
      "type": "fuzzy_match",
      "text": "5-dimethylphenol",
      "matched_name": "2,5-Dimethylphenol",
      "confidence": 0.8777777777777778,
      "uuid": "362c1d56-559e-4727-a680-7e24502f0a7d",
      "category": "agents",
      "url": "https://haz-map.com/Agents/3027"
    }
  ],
  "all_links": [
    {
      "text": "Search PubMed",
      "url": "https://www.ncbi.nlm.nih.gov/pubmed?term=3%2c5-Xylyl+methylcarbamate%20AND%20human%5Bmh%5D%20AND%20%28Occupational%20Diseases%20%5Bmh%5D%20OR%20Occupational%20Exposure%20%5Bmh%5D%29%20%20AND%20%28tox%5Bsb%5D%29&cmd=search"
    },
    {
      "text": "Organophosphates & carbamates, acute poisoning",
      "url": "https://haz-map.com/Diseases/66"
    },
    {
      "text": "Farming (Pesticides)",
      "url": "https://haz-map.com/Processes/218"
    }
  ]
}