{
  "metadata": {
    "scraped_from": "https://haz-map.com/Agents/4880",
    "entity_name": "Pinane",
    "category": "agents",
    "uuid": "01e3b463-99e5-4519-8803-b34c24f0c68d",
    "scraped_at": "2025-07-23T19:46:03.629050"
  },
  "parsed_at": "2025-07-24T01:05:00.834964",
  "title": "Pinane",
  "sections": {
    "general": {
      "agent_name": {
        "original_name": "Agent Name",
        "value": "Pinane",
        "links": [],
        "cross_references": [
          {
            "type": "name_match",
            "text": "pinane",
            "confidence": 1.0,
            "uuid": "01e3b463-99e5-4519-8803-b34c24f0c68d",
            "name": "Pinane",
            "url": "https://haz-map.com/Agents/4880",
            "category": "agents"
          }
        ]
      },
      "alternative_name": {
        "original_name": "Alternative Name",
        "value": "Dihydropinene",
        "links": [],
        "cross_references": [
          {
            "type": "name_match",
            "text": "pinene",
            "confidence": 1.0,
            "uuid": "901547b6-56e4-403d-ade3-5fa9862fa975",
            "name": "Pinene",
            "url": "https://haz-map.com/Agents/16102",
            "category": "agents"
          }
        ]
      },
      "cas_number": {
        "original_name": "CAS Number",
        "value": "473-55-2",
        "links": [],
        "cross_references": []
      },
      "formula": {
        "original_name": "Formula",
        "value": "C10-H18",
        "links": [],
        "cross_references": []
      },
      "major_category": {
        "original_name": "Major Category",
        "value": "Biological Agents",
        "links": [],
        "cross_references": []
      },
      "synonyms": {
        "original_name": "Synonyms",
        "value": "1a,2b,5a-2,6,6-Trimethylbicyclo(3.1.1)heptane; 2,6,6-Trimethylbicyclo(3.1.1)heptane; Bicyclo(3.1.1)heptane, 2,6,6-trimethyl-; Dihydropinene; [ChemIDplus] UN3295",
        "links": [],
        "cross_references": [
          {
            "type": "name_match",
            "text": "pinene",
            "confidence": 1.0,
            "uuid": "901547b6-56e4-403d-ade3-5fa9862fa975",
            "name": "Pinene",
            "url": "https://haz-map.com/Agents/16102",
            "category": "agents"
          }
        ]
      },
      "category": {
        "original_name": "Category",
        "value": "Wood Dusts & Extracts",
        "links": [],
        "cross_references": []
      },
      "description": {
        "original_name": "Description",
        "value": "Colorless liquid with lint-like particles; [CAMEO] Oily liquid; [MSDSonline]",
        "links": [],
        "cross_references": []
      },
      "sourcesuses": {
        "original_name": "Sources/Uses",
        "value": "Used to make 3,7-dimethyl-1,6-octadiene (perfumery intermediate); [HSDB]",
        "links": [],
        "cross_references": [
          {
            "type": "name_match",
            "text": "octadiene",
            "confidence": 1.0,
            "uuid": "1c5a8b36-be1a-4a27-beee-c85bdd9789c7",
            "name": "Octadiene",
            "url": "https://haz-map.com/Agents/16220",
            "category": "agents"
          }
        ]
      },
      "comments": {
        "original_name": "Comments",
        "value": "Emergency treatment: \"Turpentine oil\"; Turpentine oil can cause delirium, seizures, and coma after ingestion; [HSDB] May cause skin and eye irritation; [CAMEO] An irritant; [MSDSonline] See \"alpha-Pinene.\" See \"Turpentine.\"",
        "links": [],
        "cross_references": [
          {
            "type": "name_match",
            "text": "delirium",
            "confidence": 1.0,
            "uuid": "6aac5657-d857-4ce5-97ba-3ad9dc5c4a98",
            "name": "delirium",
            "url": "https://haz-map.com/Findings/61",
            "category": "findings"
          },
          {
            "type": "name_match",
            "text": "turpentine",
            "confidence": 1.0,
            "uuid": "b7d51e8a-db01-4cbb-b033-17f7c355d353",
            "name": "Turpentine",
            "url": "https://haz-map.com/Agents/640",
            "category": "agents"
          },
          {
            "type": "name_match",
            "text": "alpha-pinene",
            "confidence": 1.0,
            "uuid": "3c1d0592-7261-4545-a246-b58dfddcc0d0",
            "name": "alpha-Pinene",
            "url": "https://haz-map.com/Agents/3591",
            "category": "agents"
          },
          {
            "type": "name_match",
            "text": "pinene",
            "confidence": 1.0,
            "uuid": "901547b6-56e4-403d-ade3-5fa9862fa975",
            "name": "Pinene",
            "url": "https://haz-map.com/Agents/16102",
            "category": "agents"
          }
        ]
      },
      "biomedical_references": {
        "original_name": "Biomedical References",
        "value": "Search PubMed",
        "links": [
          {
            "text": "Search PubMed",
            "url": "https://www.ncbi.nlm.nih.gov/pubmed?term=Pinane%20AND%20human%5Bmh%5D%20AND%20%28Occupational%20Diseases%20%5Bmh%5D%20OR%20Occupational%20Exposure%20%5Bmh%5D%29%20%20AND%20%28tox%5Bsb%5D%29&cmd=search"
          }
        ],
        "cross_references": []
      }
    },
    "exposure_assessment": {
      "vapor_pressure": {
        "original_name": "Vapor Pressure",
        "value": "5.16 mm Hg",
        "links": [],
        "cross_references": []
      },
      "explanatory_notes": {
        "original_name": "Explanatory Notes",
        "value": "The Guide in the Emergency Response Guidebook is for \"Hydrocarbons, liquid, n.o.s.\" VP from ChemIDplus;",
        "links": [],
        "cross_references": [
          {
            "type": "name_match",
            "text": "carbon",
            "confidence": 1.0,
            "uuid": "b53f8815-ee80-40ef-b4aa-3b000e17dab5",
            "name": "Carbon",
            "url": "https://haz-map.com/Agents/1891",
            "category": "agents"
          },
          {
            "type": "fuzzy_match",
            "text": "hydrocarbons",
            "matched_name": "Hydrocarbons, C>3",
            "confidence": 0.7100840336134454,
            "uuid": "8eaa37ac-3931-44e4-9242-2734127fd661",
            "category": "agents",
            "url": "https://haz-map.com/Agents/14795"
          }
        ]
      }
    },
    "adverse_effects": {
      "neurotoxin": {
        "original_name": "Neurotoxin",
        "value": "Acute solvent syndrome",
        "links": [],
        "cross_references": []
      }
    },
    "diseases_processes_and_activities_linked_to_this_agent": {
      "diseases": {
        "original_name": "Diseases",
        "value": "Occupational diseases associated with exposure to this agent: Solvents, acute toxic effect",
        "links": [
          {
            "text": "Solvents, acute toxic effect",
            "url": "https://haz-map.com/Diseases/326"
          }
        ],
        "cross_references": [
          {
            "type": "url_match",
            "text": "Solvents, acute toxic effect",
            "url": "https://haz-map.com/Diseases/326",
            "confidence": 1.0,
            "uuid": "581e90e3-9d0c-45f0-aa6c-3468c28da129",
            "name": "Solvents, acute toxic effect",
            "category": "diseases"
          }
        ]
      }
    }
  },
  "cross_references": [
    {
      "type": "url_match",
      "text": "Solvents, acute toxic effect",
      "url": "https://haz-map.com/Diseases/326",
      "confidence": 1.0,
      "uuid": "581e90e3-9d0c-45f0-aa6c-3468c28da129",
      "name": "Solvents, acute toxic effect",
      "category": "diseases"
    },
    {
      "type": "name_match",
      "text": "delirium",
      "confidence": 1.0,
      "uuid": "6aac5657-d857-4ce5-97ba-3ad9dc5c4a98",
      "name": "delirium",
      "url": "https://haz-map.com/Findings/61",
      "category": "findings"
    },
    {
      "type": "name_match",
      "text": "turpentine",
      "confidence": 1.0,
      "uuid": "b7d51e8a-db01-4cbb-b033-17f7c355d353",
      "name": "Turpentine",
      "url": "https://haz-map.com/Agents/640",
      "category": "agents"
    },
    {
      "type": "name_match",
      "text": "carbon",
      "confidence": 1.0,
      "uuid": "b53f8815-ee80-40ef-b4aa-3b000e17dab5",
      "name": "Carbon",
      "url": "https://haz-map.com/Agents/1891",
      "category": "agents"
    },
    {
      "type": "name_match",
      "text": "alpha-pinene",
      "confidence": 1.0,
      "uuid": "3c1d0592-7261-4545-a246-b58dfddcc0d0",
      "name": "alpha-Pinene",
      "url": "https://haz-map.com/Agents/3591",
      "category": "agents"
    },
    {
      "type": "name_match",
      "text": "pinane",
      "confidence": 1.0,
      "uuid": "01e3b463-99e5-4519-8803-b34c24f0c68d",
      "name": "Pinane",
      "url": "https://haz-map.com/Agents/4880",
      "category": "agents"
    },
    {
      "type": "name_match",
      "text": "pinene",
      "confidence": 1.0,
      "uuid": "901547b6-56e4-403d-ade3-5fa9862fa975",
      "name": "Pinene",
      "url": "https://haz-map.com/Agents/16102",
      "category": "agents"
    },
    {
      "type": "name_match",
      "text": "octadiene",
      "confidence": 1.0,
      "uuid": "1c5a8b36-be1a-4a27-beee-c85bdd9789c7",
      "name": "Octadiene",
      "url": "https://haz-map.com/Agents/16220",
      "category": "agents"
    },
    {
      "type": "fuzzy_match",
      "text": "hydrocarbons",
      "matched_name": "Hydrocarbons, C>3",
      "confidence": 0.7100840336134454,
      "uuid": "8eaa37ac-3931-44e4-9242-2734127fd661",
      "category": "agents",
      "url": "https://haz-map.com/Agents/14795"
    }
  ],
  "all_links": [
    {
      "text": "Search PubMed",
      "url": "https://www.ncbi.nlm.nih.gov/pubmed?term=Pinane%20AND%20human%5Bmh%5D%20AND%20%28Occupational%20Diseases%20%5Bmh%5D%20OR%20Occupational%20Exposure%20%5Bmh%5D%29%20%20AND%20%28tox%5Bsb%5D%29&cmd=search"
    },
    {
      "text": "Solvents, acute toxic effect",
      "url": "https://haz-map.com/Diseases/326"
    }
  ]
}