{
  "metadata": {
    "scraped_from": "https://haz-map.com/Agents/6836",
    "entity_name": "Pirimiphos-methyl",
    "category": "agents",
    "uuid": "0206c989-a775-43c4-969f-0ec572d84179",
    "scraped_at": "2025-07-23T20:06:10.276475"
  },
  "parsed_at": "2025-07-24T01:02:47.534050",
  "title": "Pirimiphos-methyl",
  "sections": {
    "general": {
      "agent_name": {
        "original_name": "Agent Name",
        "value": "Pirimiphos-methyl",
        "links": [],
        "cross_references": [
          {
            "type": "name_match",
            "text": "pirimiphos-methyl",
            "confidence": 1.0,
            "uuid": "0206c989-a775-43c4-969f-0ec572d84179",
            "name": "Pirimiphos-methyl",
            "url": "https://haz-map.com/Agents/6836",
            "category": "agents"
          }
        ]
      },
      "cas_number": {
        "original_name": "CAS Number",
        "value": "29232-93-7",
        "links": [],
        "cross_references": []
      },
      "formula": {
        "original_name": "Formula",
        "value": "C11-H20-N3-O3-P-S",
        "links": [],
        "cross_references": []
      },
      "major_category": {
        "original_name": "Major Category",
        "value": "Pesticides",
        "links": [],
        "cross_references": []
      },
      "synonyms": {
        "original_name": "Synonyms",
        "value": "2-Diethylamino-6-methylpyrimidin-4-yl dimethyl phosphorothionate; Actelic; Actellic; Actellifog; Aktelik; Aktellik; BLEX; Fosforan pirimidyny [Polish]; Methylpirimiphos; O,O-Dimethyl O-(2-(diethylamino)-6-methyl-4-pyrimidinyl) phosphorothioate; O-(2-Diethylamino-6-methylpyrimidin-4-yl) O,O-dimethyl phosphorothioate; OMS 1424; PP511; Pirimifosmethyl; Pirimiphos methyl; Primiphos-methyl; Plant protection PP511; Pyridimine phosphate; Pyrimiphos methyl; Pyrimiphos-methyl [ISO-French]; R 33986; Silosan; Sybol 2; O-(2-(Diethylamino)-6-methyl-4-pyrimidinyl) O,O-dimethylphosphorothioate; [ChemIDplus]",
        "links": [],
        "cross_references": [
          {
            "type": "fuzzy_match",
            "text": "pirimiphos methyl",
            "matched_name": "Pirimiphos-methyl",
            "confidence": 0.9230769230769231,
            "uuid": "0206c989-a775-43c4-969f-0ec572d84179",
            "category": "agents",
            "url": "https://haz-map.com/Agents/6836"
          }
        ]
      },
      "category": {
        "original_name": "Category",
        "value": "Organophosphate Insecticides",
        "links": [],
        "cross_references": []
      },
      "description": {
        "original_name": "Description",
        "value": "Straw colored liquid; mp = 15-18 deg C (technical grade); [HSDB]",
        "links": [],
        "cross_references": []
      },
      "sourcesuses": {
        "original_name": "Sources/Uses",
        "value": "Used as insecticide and veterinary ectoparasiticide; [Merck Index] Used to control insects and mites in vegetables, warehouses, stored grain, animal housings, and domestic and industrial areas; [HSDB] Registered in the US as general use classification insecticide for sorghum and corn (seed and stored), cattle ear tags, and fogging iris bulbs; [Reference #1]",
        "links": [],
        "cross_references": [
          {
            "type": "name_match",
            "text": "insects",
            "confidence": 1.0,
            "uuid": "aa09eb63-8062-4e8a-ba83-b4fd16d81454",
            "name": "Insects",
            "url": "https://haz-map.com/Agents/1216",
            "category": "agents"
          }
        ]
      },
      "comments": {
        "original_name": "Comments",
        "value": "Effects observed in two week study with rats include weight loss, decreased hemoglobin, and reticulocytosis; Minor reversible bile duct proliferation and liver damage observed in 90 day feeding study with dogs; Caused minor skin and eye irritation in rabbits; No evidence of skin sensitization in guinea pigs; [HSDB] “The average of two baseline respective cholinesterase activity determinations three days apart, with no exposures to enzyme inhibiting pesticides for at least 30 days, is recommended for each worker prior to exposure to cholinesterase inhibitors because of large inter-individual differences in published baseline values. To be established at least once a year. Removal from workplace exposures is recommended until the cholinesterase activity returns to within 20% of baseline.” [TLVs and BEIs]",
        "links": [],
        "cross_references": [
          {
            "type": "name_match",
            "text": "weight loss",
            "confidence": 1.0,
            "uuid": "9b7baca4-cf1b-4e78-99d2-2377fbac8f8b",
            "name": "weight loss",
            "url": "https://haz-map.com/Findings/3",
            "category": "findings"
          },
          {
            "type": "name_match",
            "text": "ht",
            "confidence": 1.0,
            "uuid": "764df367-8d53-4a11-81a2-31ccfe122a8d",
            "name": "HT",
            "url": "https://haz-map.com/Agents/2168",
            "category": "agents"
          },
          {
            "type": "name_match",
            "text": "choline",
            "confidence": 1.0,
            "uuid": "a21a71e9-9d67-4563-9da2-98c4dcb1b766",
            "name": "Choline",
            "url": "https://haz-map.com/Agents/12978",
            "category": "agents"
          }
        ]
      },
      "reference_link_1": {
        "original_name": "Reference Link #1",
        "value": "EPA Pesticide Chemical Search",
        "links": [
          {
            "text": "EPA Pesticide Chemical Search",
            "url": "https://iaspub.epa.gov/apex/pesticides/f?p=CHEMICALSEARCH:1:"
          }
        ],
        "cross_references": [
          {
            "type": "name_match",
            "text": "mica",
            "confidence": 1.0,
            "uuid": "433f26f1-c399-4596-b179-ce3843cfd465",
            "name": "Mica",
            "url": "https://haz-map.com/Agents/621",
            "category": "agents"
          }
        ]
      },
      "biomedical_references": {
        "original_name": "Biomedical References",
        "value": "Search PubMed",
        "links": [
          {
            "text": "Search PubMed",
            "url": "https://www.ncbi.nlm.nih.gov/pubmed?term=Pirimiphos-methyl%20AND%20human%5Bmh%5D%20AND%20%28Occupational%20Diseases%20%5Bmh%5D%20OR%20Occupational%20Exposure%20%5Bmh%5D%29%20%20AND%20%28tox%5Bsb%5D%29&cmd=search"
          }
        ],
        "cross_references": []
      }
    },
    "exposure_assessment": {
      "bei": {
        "original_name": "BEI",
        "value": "Acetylcholinesterase activity in red blood cells = 70% of individual's baseline; Butylcholinesterase activity in serum or plasma = 60% of individual's baseline; Sample at end of shift; [TLVs and BEIs]",
        "links": [],
        "cross_references": [
          {
            "type": "name_match",
            "text": "choline",
            "confidence": 1.0,
            "uuid": "a21a71e9-9d67-4563-9da2-98c4dcb1b766",
            "name": "Choline",
            "url": "https://haz-map.com/Agents/12978",
            "category": "agents"
          }
        ]
      },
      "vapor_pressure": {
        "original_name": "Vapor Pressure",
        "value": "1.5E-05 mm Hg",
        "links": [],
        "cross_references": []
      },
      "lethal_concentration": {
        "original_name": "Lethal Concentration",
        "value": "LC (rat) > 5040 mg/m3/4h",
        "links": [],
        "cross_references": []
      },
      "reference_link_2": {
        "original_name": "Reference Link #2",
        "value": "INCHEM JMPR: Pirimiphos-methyl",
        "links": [
          {
            "text": "INCHEM JMPR: Pirimiphos-methyl",
            "url": "http://www.inchem.org/documents/jmpr/jmpmono/v92pr16.htm"
          }
        ],
        "cross_references": [
          {
            "type": "name_match",
            "text": "pirimiphos-methyl",
            "confidence": 1.0,
            "uuid": "0206c989-a775-43c4-969f-0ec572d84179",
            "name": "Pirimiphos-methyl",
            "url": "https://haz-map.com/Agents/6836",
            "category": "agents"
          }
        ]
      }
    },
    "adverse_effects": {
      "hepatotoxin": {
        "original_name": "Hepatotoxin",
        "value": "Hepatoxic (a) from occupational exposure (secondary effect) or (b) in animal studies or in humans after ingestion",
        "links": [],
        "cross_references": []
      },
      "other_poison": {
        "original_name": "Other Poison",
        "value": "Organophosphate",
        "links": [],
        "cross_references": []
      }
    },
    "diseases_processes_and_activities_linked_to_this_agent": {
      "diseases": {
        "original_name": "Diseases",
        "value": "Occupational diseases associated with exposure to this agent: Organophosphates & carbamates, acute poisoning",
        "links": [
          {
            "text": "Organophosphates & carbamates, acute poisoning",
            "url": "https://haz-map.com/Diseases/66"
          }
        ],
        "cross_references": [
          {
            "type": "url_match",
            "text": "Organophosphates & carbamates, acute poisoning",
            "url": "https://haz-map.com/Diseases/66",
            "confidence": 1.0,
            "uuid": "aea2cba9-fb36-463f-84d8-b819551bb327",
            "name": "Organophosphates & carbamates, acute poisoning",
            "category": "diseases"
          },
          {
            "type": "name_match",
            "text": "organophosphates",
            "confidence": 1.0,
            "uuid": "8d2d239c-20f9-4f02-9916-5e7667b9990c",
            "name": "ORGANOPHOSPHATES",
            "url": "https://haz-map.com/Agents/702",
            "category": "agents"
          }
        ]
      },
      "processes": {
        "original_name": "Processes",
        "value": "Industrial Processes with risk of exposure: Farming (Pesticides)",
        "links": [
          {
            "text": "Farming (Pesticides)",
            "url": "https://haz-map.com/Processes/218"
          }
        ],
        "cross_references": [
          {
            "type": "url_match",
            "text": "Farming (Pesticides)",
            "url": "https://haz-map.com/Processes/218",
            "confidence": 1.0,
            "uuid": "cf1e5815-c9bb-4917-82a5-391848170b7e",
            "name": "Farming (Pesticides)",
            "category": "processes"
          }
        ]
      }
    }
  },
  "cross_references": [
    {
      "type": "url_match",
      "text": "Organophosphates & carbamates, acute poisoning",
      "url": "https://haz-map.com/Diseases/66",
      "confidence": 1.0,
      "uuid": "aea2cba9-fb36-463f-84d8-b819551bb327",
      "name": "Organophosphates & carbamates, acute poisoning",
      "category": "diseases"
    },
    {
      "type": "url_match",
      "text": "Farming (Pesticides)",
      "url": "https://haz-map.com/Processes/218",
      "confidence": 1.0,
      "uuid": "cf1e5815-c9bb-4917-82a5-391848170b7e",
      "name": "Farming (Pesticides)",
      "category": "processes"
    },
    {
      "type": "name_match",
      "text": "weight loss",
      "confidence": 1.0,
      "uuid": "9b7baca4-cf1b-4e78-99d2-2377fbac8f8b",
      "name": "weight loss",
      "url": "https://haz-map.com/Findings/3",
      "category": "findings"
    },
    {
      "type": "name_match",
      "text": "mica",
      "confidence": 1.0,
      "uuid": "433f26f1-c399-4596-b179-ce3843cfd465",
      "name": "Mica",
      "url": "https://haz-map.com/Agents/621",
      "category": "agents"
    },
    {
      "type": "name_match",
      "text": "organophosphates",
      "confidence": 1.0,
      "uuid": "8d2d239c-20f9-4f02-9916-5e7667b9990c",
      "name": "ORGANOPHOSPHATES",
      "url": "https://haz-map.com/Agents/702",
      "category": "agents"
    },
    {
      "type": "name_match",
      "text": "insects",
      "confidence": 1.0,
      "uuid": "aa09eb63-8062-4e8a-ba83-b4fd16d81454",
      "name": "Insects",
      "url": "https://haz-map.com/Agents/1216",
      "category": "agents"
    },
    {
      "type": "name_match",
      "text": "ht",
      "confidence": 1.0,
      "uuid": "764df367-8d53-4a11-81a2-31ccfe122a8d",
      "name": "HT",
      "url": "https://haz-map.com/Agents/2168",
      "category": "agents"
    },
    {
      "type": "name_match",
      "text": "pirimiphos-methyl",
      "confidence": 1.0,
      "uuid": "0206c989-a775-43c4-969f-0ec572d84179",
      "name": "Pirimiphos-methyl",
      "url": "https://haz-map.com/Agents/6836",
      "category": "agents"
    },
    {
      "type": "name_match",
      "text": "choline",
      "confidence": 1.0,
      "uuid": "a21a71e9-9d67-4563-9da2-98c4dcb1b766",
      "name": "Choline",
      "url": "https://haz-map.com/Agents/12978",
      "category": "agents"
    }
  ],
  "all_links": [
    {
      "text": "EPA Pesticide Chemical Search",
      "url": "https://iaspub.epa.gov/apex/pesticides/f?p=CHEMICALSEARCH:1:"
    },
    {
      "text": "Search PubMed",
      "url": "https://www.ncbi.nlm.nih.gov/pubmed?term=Pirimiphos-methyl%20AND%20human%5Bmh%5D%20AND%20%28Occupational%20Diseases%20%5Bmh%5D%20OR%20Occupational%20Exposure%20%5Bmh%5D%29%20%20AND%20%28tox%5Bsb%5D%29&cmd=search"
    },
    {
      "text": "INCHEM JMPR: Pirimiphos-methyl",
      "url": "http://www.inchem.org/documents/jmpr/jmpmono/v92pr16.htm"
    },
    {
      "text": "Organophosphates & carbamates, acute poisoning",
      "url": "https://haz-map.com/Diseases/66"
    },
    {
      "text": "Farming (Pesticides)",
      "url": "https://haz-map.com/Processes/218"
    }
  ]
}