{
  "metadata": {
    "scraped_from": "https://haz-map.com/Agents/19278",
    "entity_name": "1,4-Diphenyl-1,3-butadiene",
    "category": "agents",
    "uuid": "0235c237-daa8-4f2c-8c26-4979c5632dcf",
    "scraped_at": "2025-07-23T22:02:51.065751"
  },
  "parsed_at": "2025-07-24T00:57:24.361146",
  "title": "1,4-Diphenyl-1,3-butadiene",
  "sections": {
    "general": {
      "agent_name": {
        "original_name": "Agent Name",
        "value": "1,4-Diphenyl-1,3-butadiene",
        "links": [],
        "cross_references": [
          {
            "type": "name_match",
            "text": "1,3-butadiene",
            "confidence": 1.0,
            "uuid": "ea12a86a-218a-42af-aaa1-b113f636b7fe",
            "name": "1,3-Butadiene",
            "url": "https://haz-map.com/Agents/318",
            "category": "agents"
          },
          {
            "type": "name_match",
            "text": "butadiene",
            "confidence": 1.0,
            "uuid": "f4fdb4ce-e062-4db5-8e5d-eba44b8a05be",
            "name": "Butadiene",
            "url": "https://haz-map.com/Agents/12505",
            "category": "agents"
          },
          {
            "type": "name_match",
            "text": "1,4-diphenyl-1,3-butadiene",
            "confidence": 1.0,
            "uuid": "0235c237-daa8-4f2c-8c26-4979c5632dcf",
            "name": "1,4-Diphenyl-1,3-butadiene",
            "url": "https://haz-map.com/Agents/19278",
            "category": "agents"
          }
        ]
      },
      "cas_number": {
        "original_name": "CAS Number",
        "value": "886-65-7",
        "links": [],
        "cross_references": []
      },
      "formula": {
        "original_name": "Formula",
        "value": "C16-H14",
        "links": [],
        "cross_references": []
      },
      "major_category": {
        "original_name": "Major Category",
        "value": "Other Classes",
        "links": [],
        "cross_references": []
      },
      "synonyms": {
        "original_name": "Synonyms",
        "value": "1,4-Diphenylbutadiene; 1,4-Diphenylerythrene; Bistyryl; Distyryl; 1,3-Butadiene, 1,4-diphenyl- (8CI); 1,4-Diphenylbuta-1,3-diene; Benzene, 1,1'-(1,3-butadiene-1,4-diyl)bis-; [ChemIDplus] 1,1′-(1,3-Butadiene-1,4-diyl)bisbenzene; [Merck Index]",
        "links": [],
        "cross_references": [
          {
            "type": "name_match",
            "text": "benzene",
            "confidence": 1.0,
            "uuid": "b05124de-5f34-4c14-8f04-ccb20c3780d9",
            "name": "Benzene",
            "url": "https://haz-map.com/Agents/5",
            "category": "agents"
          },
          {
            "type": "name_match",
            "text": "1,3-butadiene",
            "confidence": 1.0,
            "uuid": "ea12a86a-218a-42af-aaa1-b113f636b7fe",
            "name": "1,3-Butadiene",
            "url": "https://haz-map.com/Agents/318",
            "category": "agents"
          },
          {
            "type": "name_match",
            "text": "butadiene",
            "confidence": 1.0,
            "uuid": "f4fdb4ce-e062-4db5-8e5d-eba44b8a05be",
            "name": "Butadiene",
            "url": "https://haz-map.com/Agents/12505",
            "category": "agents"
          }
        ]
      },
      "category": {
        "original_name": "Category",
        "value": "Aromatic Hydrocarbons",
        "links": [],
        "cross_references": [
          {
            "type": "name_match",
            "text": "carbon",
            "confidence": 1.0,
            "uuid": "b53f8815-ee80-40ef-b4aa-3b000e17dab5",
            "name": "Carbon",
            "url": "https://haz-map.com/Agents/1891",
            "category": "agents"
          },
          {
            "type": "fuzzy_match",
            "text": "aromatic hydrocarbons",
            "matched_name": "Aromatic hydrocarbons, C9-C11",
            "confidence": 0.7509578544061303,
            "uuid": "1e86d79b-784d-40c4-8412-39a4432a7a75",
            "category": "agents",
            "url": "https://haz-map.com/Agents/20258"
          },
          {
            "type": "fuzzy_match",
            "text": "hydrocarbons",
            "matched_name": "Hydrocarbons, C>3",
            "confidence": 0.7100840336134454,
            "uuid": "8eaa37ac-3931-44e4-9242-2734127fd661",
            "category": "agents",
            "url": "https://haz-map.com/Agents/14795"
          }
        ]
      },
      "description": {
        "original_name": "Description",
        "value": "Cream odorless crystalline powder; [Alfa Aesar MSDS]",
        "links": [],
        "cross_references": [
          {
            "type": "fuzzy_match",
            "text": "crystalline",
            "matched_name": "Silica, crystalline",
            "confidence": 0.7061403508771931,
            "uuid": "f920e8a2-46df-41b7-af8d-0368a777251e",
            "category": "agents",
            "url": "https://haz-map.com/Agents/427"
          }
        ]
      },
      "comments": {
        "original_name": "Comments",
        "value": "May cause irritation; [Alfa Aesar MSDS] See \"1,2-Diphenylethylene.\"",
        "links": [],
        "cross_references": [
          {
            "type": "name_match",
            "text": "ethylene",
            "confidence": 1.0,
            "uuid": "958eacc0-5135-4b62-bb93-6df972bf552f",
            "name": "Ethylene",
            "url": "https://haz-map.com/Agents/1076",
            "category": "agents"
          },
          {
            "type": "name_match",
            "text": "1,2-diphenylethylene",
            "confidence": 1.0,
            "uuid": "510e21b0-434c-41c0-b28f-1efee35235bd",
            "name": "1,2-Diphenylethylene",
            "url": "https://haz-map.com/Agents/17732",
            "category": "agents"
          },
          {
            "type": "fuzzy_match",
            "text": "2-diphenylethylene",
            "matched_name": "cis-1,2-Diphenylethylene",
            "confidence": 0.7416666666666667,
            "uuid": "979c6df7-dcaf-4113-a48e-b5780c67d062",
            "category": "agents",
            "url": "https://haz-map.com/Agents/4431"
          }
        ]
      },
      "biomedical_references": {
        "original_name": "Biomedical References",
        "value": "Search PubMed",
        "links": [
          {
            "text": "Search PubMed",
            "url": "https://www.ncbi.nlm.nih.gov/pubmed?term=1%2c4-Diphenyl-1%2c3-butadiene%20AND%20human%5Bmh%5D%20AND%20%28Occupational%20Diseases%20%5Bmh%5D%20OR%20Occupational%20Exposure%20%5Bmh%5D%29%20%20AND%20%28tox%5Bsb%5D%29&cmd=search"
          }
        ],
        "cross_references": []
      }
    },
    "exposure_assessment": {
      "vapor_pressure": {
        "original_name": "Vapor Pressure",
        "value": "0.000354 mm Hg",
        "links": [],
        "cross_references": []
      }
    },
    "diseases_processes_and_activities_linked_to_this_agent": {
      "other_information": {
        "original_name": "Other Information",
        "value": "No other related information on this agent was found.",
        "links": [],
        "cross_references": []
      }
    }
  },
  "cross_references": [
    {
      "type": "name_match",
      "text": "benzene",
      "confidence": 1.0,
      "uuid": "b05124de-5f34-4c14-8f04-ccb20c3780d9",
      "name": "Benzene",
      "url": "https://haz-map.com/Agents/5",
      "category": "agents"
    },
    {
      "type": "name_match",
      "text": "1,3-butadiene",
      "confidence": 1.0,
      "uuid": "ea12a86a-218a-42af-aaa1-b113f636b7fe",
      "name": "1,3-Butadiene",
      "url": "https://haz-map.com/Agents/318",
      "category": "agents"
    },
    {
      "type": "name_match",
      "text": "ethylene",
      "confidence": 1.0,
      "uuid": "958eacc0-5135-4b62-bb93-6df972bf552f",
      "name": "Ethylene",
      "url": "https://haz-map.com/Agents/1076",
      "category": "agents"
    },
    {
      "type": "name_match",
      "text": "carbon",
      "confidence": 1.0,
      "uuid": "b53f8815-ee80-40ef-b4aa-3b000e17dab5",
      "name": "Carbon",
      "url": "https://haz-map.com/Agents/1891",
      "category": "agents"
    },
    {
      "type": "name_match",
      "text": "butadiene",
      "confidence": 1.0,
      "uuid": "f4fdb4ce-e062-4db5-8e5d-eba44b8a05be",
      "name": "Butadiene",
      "url": "https://haz-map.com/Agents/12505",
      "category": "agents"
    },
    {
      "type": "name_match",
      "text": "1,2-diphenylethylene",
      "confidence": 1.0,
      "uuid": "510e21b0-434c-41c0-b28f-1efee35235bd",
      "name": "1,2-Diphenylethylene",
      "url": "https://haz-map.com/Agents/17732",
      "category": "agents"
    },
    {
      "type": "name_match",
      "text": "1,4-diphenyl-1,3-butadiene",
      "confidence": 1.0,
      "uuid": "0235c237-daa8-4f2c-8c26-4979c5632dcf",
      "name": "1,4-Diphenyl-1,3-butadiene",
      "url": "https://haz-map.com/Agents/19278",
      "category": "agents"
    },
    {
      "type": "fuzzy_match",
      "text": "aromatic hydrocarbons",
      "matched_name": "Aromatic hydrocarbons, C9-C11",
      "confidence": 0.7509578544061303,
      "uuid": "1e86d79b-784d-40c4-8412-39a4432a7a75",
      "category": "agents",
      "url": "https://haz-map.com/Agents/20258"
    },
    {
      "type": "fuzzy_match",
      "text": "2-diphenylethylene",
      "matched_name": "cis-1,2-Diphenylethylene",
      "confidence": 0.7416666666666667,
      "uuid": "979c6df7-dcaf-4113-a48e-b5780c67d062",
      "category": "agents",
      "url": "https://haz-map.com/Agents/4431"
    },
    {
      "type": "fuzzy_match",
      "text": "hydrocarbons",
      "matched_name": "Hydrocarbons, C>3",
      "confidence": 0.7100840336134454,
      "uuid": "8eaa37ac-3931-44e4-9242-2734127fd661",
      "category": "agents",
      "url": "https://haz-map.com/Agents/14795"
    },
    {
      "type": "fuzzy_match",
      "text": "crystalline",
      "matched_name": "Silica, crystalline",
      "confidence": 0.7061403508771931,
      "uuid": "f920e8a2-46df-41b7-af8d-0368a777251e",
      "category": "agents",
      "url": "https://haz-map.com/Agents/427"
    }
  ],
  "all_links": [
    {
      "text": "Search PubMed",
      "url": "https://www.ncbi.nlm.nih.gov/pubmed?term=1%2c4-Diphenyl-1%2c3-butadiene%20AND%20human%5Bmh%5D%20AND%20%28Occupational%20Diseases%20%5Bmh%5D%20OR%20Occupational%20Exposure%20%5Bmh%5D%29%20%20AND%20%28tox%5Bsb%5D%29&cmd=search"
    }
  ]
}