{
  "metadata": {
    "scraped_from": "https://haz-map.com/Agents/15781",
    "entity_name": "N,N-Diisopropylethylamine",
    "category": "agents",
    "uuid": "028b0be7-9bd1-40c7-8dab-1019d131d4e7",
    "scraped_at": "2025-07-23T21:32:25.413339"
  },
  "parsed_at": "2025-07-24T00:52:12.697393",
  "title": "N,N-Diisopropylethylamine",
  "sections": {
    "general": {
      "agent_name": {
        "original_name": "Agent Name",
        "value": "N,N-Diisopropylethylamine",
        "links": [],
        "cross_references": [
          {
            "type": "name_match",
            "text": "ethylamine",
            "confidence": 1.0,
            "uuid": "41ca4da8-b990-420a-86b2-3d77404fb7f4",
            "name": "Ethylamine",
            "url": "https://haz-map.com/Agents/220",
            "category": "agents"
          },
          {
            "type": "name_match",
            "text": "n,n-diisopropylethylamine",
            "confidence": 1.0,
            "uuid": "028b0be7-9bd1-40c7-8dab-1019d131d4e7",
            "name": "N,N-Diisopropylethylamine",
            "url": "https://haz-map.com/Agents/15781",
            "category": "agents"
          }
        ]
      },
      "cas_number": {
        "original_name": "CAS Number",
        "value": "7087-68-5",
        "links": [],
        "cross_references": []
      },
      "formula": {
        "original_name": "Formula",
        "value": "C8-H19-N",
        "links": [],
        "cross_references": []
      },
      "major_category": {
        "original_name": "Major Category",
        "value": "Nitrogen Compounds",
        "links": [],
        "cross_references": [
          {
            "type": "name_match",
            "text": "nitrogen",
            "confidence": 1.0,
            "uuid": "db5e90a9-06d2-45b9-8b81-f345a89b0bc0",
            "name": "Nitrogen",
            "url": "https://haz-map.com/Agents/1072",
            "category": "agents"
          }
        ]
      },
      "synonyms": {
        "original_name": "Synonyms",
        "value": "1,1'-Dimethyltriethylamine; Diisopropylethylamine; Ethyldiisopropylamine; N-Ethyl-N,N-diisopropylamine; 2-Propanamine, N-ethyl-N-(1-methylethyl)-; Triethylamine, 1,1'-dimethyl- (8CI); [ChemIDplus] \"Hunig's base'; N-Ethyldiisopropylamine; DIPEA; [Sigma-Aldrich MSDS] UN2733",
        "links": [],
        "cross_references": [
          {
            "type": "name_match",
            "text": "ethylamine",
            "confidence": 1.0,
            "uuid": "41ca4da8-b990-420a-86b2-3d77404fb7f4",
            "name": "Ethylamine",
            "url": "https://haz-map.com/Agents/220",
            "category": "agents"
          },
          {
            "type": "name_match",
            "text": "triethylamine",
            "confidence": 1.0,
            "uuid": "4dbccf9f-11f7-4d31-8f69-263138572da8",
            "name": "Triethylamine",
            "url": "https://haz-map.com/Agents/222",
            "category": "agents"
          },
          {
            "type": "name_match",
            "text": "isopropylamine",
            "confidence": 1.0,
            "uuid": "43316e6a-7cdf-4441-abad-b64fd8b0dd71",
            "name": "Isopropylamine",
            "url": "https://haz-map.com/Agents/223",
            "category": "agents"
          },
          {
            "type": "name_match",
            "text": "diisopropylamine",
            "confidence": 1.0,
            "uuid": "4d609ddb-0072-4bee-9e5f-f413f203a25a",
            "name": "Diisopropylamine",
            "url": "https://haz-map.com/Agents/224",
            "category": "agents"
          }
        ]
      },
      "category": {
        "original_name": "Category",
        "value": "Amines, Aliphatic",
        "links": [],
        "cross_references": []
      },
      "description": {
        "original_name": "Description",
        "value": "Clear colorless liquid; [Sigma-Aldrich MSDS]",
        "links": [],
        "cross_references": []
      },
      "sourcesuses": {
        "original_name": "Sources/Uses",
        "value": "Used to make and/or formulate industrial products; [BASF MSDS]",
        "links": [],
        "cross_references": []
      },
      "comments": {
        "original_name": "Comments",
        "value": "Causes burns; Inhalation may cause corrosive injuries to upper respiratory tract and lungs; Toxic by ingestion; [Sigma-Aldrich MSDS]",
        "links": [],
        "cross_references": [
          {
            "type": "name_match",
            "text": "burn",
            "confidence": 1.0,
            "uuid": "63665de5-6376-4918-8dbf-4c10c4d63837",
            "name": "burn",
            "url": "https://haz-map.com/Findings/204",
            "category": "findings"
          }
        ]
      },
      "biomedical_references": {
        "original_name": "Biomedical References",
        "value": "Search PubMed",
        "links": [
          {
            "text": "Search PubMed",
            "url": "https://www.ncbi.nlm.nih.gov/pubmed?term=N%2cN-Diisopropylethylamine%20AND%20human%5Bmh%5D%20AND%20%28Occupational%20Diseases%20%5Bmh%5D%20OR%20Occupational%20Exposure%20%5Bmh%5D%29%20%20AND%20%28tox%5Bsb%5D%29&cmd=search"
          }
        ],
        "cross_references": []
      }
    },
    "exposure_assessment": {
      "vapor_pressure": {
        "original_name": "Vapor Pressure",
        "value": "12 mm Hg",
        "links": [],
        "cross_references": []
      },
      "explanatory_notes": {
        "original_name": "Explanatory Notes",
        "value": "The Guide in the Emergency Response Guidebook is for \"Amines, flammable, corrosive, n.o.s.\"",
        "links": [],
        "cross_references": []
      }
    },
    "adverse_effects": {
      "toxic_pneumonitis": {
        "original_name": "Toxic Pneumonitis",
        "value": "Yes",
        "links": [],
        "cross_references": []
      },
      "dermatotoxin": {
        "original_name": "Dermatotoxin",
        "value": "Skin burns",
        "links": [],
        "cross_references": [
          {
            "type": "name_match",
            "text": "burn",
            "confidence": 1.0,
            "uuid": "63665de5-6376-4918-8dbf-4c10c4d63837",
            "name": "burn",
            "url": "https://haz-map.com/Findings/204",
            "category": "findings"
          }
        ]
      }
    },
    "diseases_processes_and_activities_linked_to_this_agent": {
      "other_information": {
        "original_name": "Other Information",
        "value": "No other related information on this agent was found.",
        "links": [],
        "cross_references": []
      }
    }
  },
  "cross_references": [
    {
      "type": "name_match",
      "text": "burn",
      "confidence": 1.0,
      "uuid": "63665de5-6376-4918-8dbf-4c10c4d63837",
      "name": "burn",
      "url": "https://haz-map.com/Findings/204",
      "category": "findings"
    },
    {
      "type": "name_match",
      "text": "ethylamine",
      "confidence": 1.0,
      "uuid": "41ca4da8-b990-420a-86b2-3d77404fb7f4",
      "name": "Ethylamine",
      "url": "https://haz-map.com/Agents/220",
      "category": "agents"
    },
    {
      "type": "name_match",
      "text": "triethylamine",
      "confidence": 1.0,
      "uuid": "4dbccf9f-11f7-4d31-8f69-263138572da8",
      "name": "Triethylamine",
      "url": "https://haz-map.com/Agents/222",
      "category": "agents"
    },
    {
      "type": "name_match",
      "text": "isopropylamine",
      "confidence": 1.0,
      "uuid": "43316e6a-7cdf-4441-abad-b64fd8b0dd71",
      "name": "Isopropylamine",
      "url": "https://haz-map.com/Agents/223",
      "category": "agents"
    },
    {
      "type": "name_match",
      "text": "diisopropylamine",
      "confidence": 1.0,
      "uuid": "4d609ddb-0072-4bee-9e5f-f413f203a25a",
      "name": "Diisopropylamine",
      "url": "https://haz-map.com/Agents/224",
      "category": "agents"
    },
    {
      "type": "name_match",
      "text": "nitrogen",
      "confidence": 1.0,
      "uuid": "db5e90a9-06d2-45b9-8b81-f345a89b0bc0",
      "name": "Nitrogen",
      "url": "https://haz-map.com/Agents/1072",
      "category": "agents"
    },
    {
      "type": "name_match",
      "text": "n,n-diisopropylethylamine",
      "confidence": 1.0,
      "uuid": "028b0be7-9bd1-40c7-8dab-1019d131d4e7",
      "name": "N,N-Diisopropylethylamine",
      "url": "https://haz-map.com/Agents/15781",
      "category": "agents"
    }
  ],
  "all_links": [
    {
      "text": "Search PubMed",
      "url": "https://www.ncbi.nlm.nih.gov/pubmed?term=N%2cN-Diisopropylethylamine%20AND%20human%5Bmh%5D%20AND%20%28Occupational%20Diseases%20%5Bmh%5D%20OR%20Occupational%20Exposure%20%5Bmh%5D%29%20%20AND%20%28tox%5Bsb%5D%29&cmd=search"
    }
  ]
}