{
  "metadata": {
    "scraped_from": "https://haz-map.com/Agents/20281",
    "entity_name": "Benzenepentacarboxylic acid",
    "category": "agents",
    "uuid": "02bf5557-7ee7-4450-bc39-7f344a41cb24",
    "scraped_at": "2025-07-23T22:22:19.750886"
  },
  "parsed_at": "2025-07-24T01:14:40.114240",
  "title": "Benzenepentacarboxylic acid",
  "sections": {
    "general": {
      "agent_name": {
        "original_name": "Agent Name",
        "value": "Benzenepentacarboxylic acid",
        "links": [],
        "cross_references": [
          {
            "type": "name_match",
            "text": "benzene",
            "confidence": 1.0,
            "uuid": "b05124de-5f34-4c14-8f04-ccb20c3780d9",
            "name": "Benzene",
            "url": "https://haz-map.com/Agents/5",
            "category": "agents"
          },
          {
            "type": "name_match",
            "text": "benzenepentacarboxylic acid",
            "confidence": 1.0,
            "uuid": "02bf5557-7ee7-4450-bc39-7f344a41cb24",
            "name": "Benzenepentacarboxylic acid",
            "url": "https://haz-map.com/Agents/20281",
            "category": "agents"
          }
        ]
      },
      "cas_number": {
        "original_name": "CAS Number",
        "value": "1585-40-6",
        "links": [],
        "cross_references": []
      },
      "formula": {
        "original_name": "Formula",
        "value": "C11-H6-O10",
        "links": [],
        "cross_references": []
      },
      "major_category": {
        "original_name": "Major Category",
        "value": "Other Classes",
        "links": [],
        "cross_references": []
      },
      "synonyms": {
        "original_name": "Synonyms",
        "value": "Benzenepentacarboxylate; Pentacarboxybenzene; [ChemIDplus]",
        "links": [],
        "cross_references": [
          {
            "type": "name_match",
            "text": "benzene",
            "confidence": 1.0,
            "uuid": "b05124de-5f34-4c14-8f04-ccb20c3780d9",
            "name": "Benzene",
            "url": "https://haz-map.com/Agents/5",
            "category": "agents"
          }
        ]
      },
      "category": {
        "original_name": "Category",
        "value": "Benzoic Acid Derivatives",
        "links": [],
        "cross_references": [
          {
            "type": "name_match",
            "text": "benzoic acid",
            "confidence": 1.0,
            "uuid": "d2c5d3be-d826-4f55-bc32-7b16821aef40",
            "name": "Benzoic acid",
            "url": "https://haz-map.com/Agents/1883",
            "category": "agents"
          }
        ]
      },
      "description": {
        "original_name": "Description",
        "value": "Solid; [Sigma-Aldrich MSDS]",
        "links": [],
        "cross_references": []
      },
      "comments": {
        "original_name": "Comments",
        "value": "May cause irritation; [Sigma-Aldrich MSDS]",
        "links": [],
        "cross_references": []
      },
      "biomedical_references": {
        "original_name": "Biomedical References",
        "value": "Search PubMed",
        "links": [
          {
            "text": "Search PubMed",
            "url": "https://www.ncbi.nlm.nih.gov/pubmed?term=Benzenepentacarboxylic+acid%20AND%20human%5Bmh%5D%20AND%20%28Occupational%20Diseases%20%5Bmh%5D%20OR%20Occupational%20Exposure%20%5Bmh%5D%29%20%20AND%20%28tox%5Bsb%5D%29&cmd=search"
          }
        ],
        "cross_references": []
      }
    },
    "exposure_assessment": {
      "vapor_pressure": {
        "original_name": "Vapor Pressure",
        "value": "2.23E-13 mm Hg",
        "links": [],
        "cross_references": []
      }
    },
    "diseases_processes_and_activities_linked_to_this_agent": {
      "other_information": {
        "original_name": "Other Information",
        "value": "No other related information on this agent was found.",
        "links": [],
        "cross_references": []
      }
    }
  },
  "cross_references": [
    {
      "type": "name_match",
      "text": "benzene",
      "confidence": 1.0,
      "uuid": "b05124de-5f34-4c14-8f04-ccb20c3780d9",
      "name": "Benzene",
      "url": "https://haz-map.com/Agents/5",
      "category": "agents"
    },
    {
      "type": "name_match",
      "text": "benzoic acid",
      "confidence": 1.0,
      "uuid": "d2c5d3be-d826-4f55-bc32-7b16821aef40",
      "name": "Benzoic acid",
      "url": "https://haz-map.com/Agents/1883",
      "category": "agents"
    },
    {
      "type": "name_match",
      "text": "benzenepentacarboxylic acid",
      "confidence": 1.0,
      "uuid": "02bf5557-7ee7-4450-bc39-7f344a41cb24",
      "name": "Benzenepentacarboxylic acid",
      "url": "https://haz-map.com/Agents/20281",
      "category": "agents"
    }
  ],
  "all_links": [
    {
      "text": "Search PubMed",
      "url": "https://www.ncbi.nlm.nih.gov/pubmed?term=Benzenepentacarboxylic+acid%20AND%20human%5Bmh%5D%20AND%20%28Occupational%20Diseases%20%5Bmh%5D%20OR%20Occupational%20Exposure%20%5Bmh%5D%29%20%20AND%20%28tox%5Bsb%5D%29&cmd=search"
    }
  ]
}