{
  "metadata": {
    "scraped_from": "https://haz-map.com/Agents/4212",
    "entity_name": "Carbanilic acid, o-chloro-, methyl ester",
    "category": "agents",
    "uuid": "02c2e081-90a4-470a-952f-3153283d20c8",
    "scraped_at": "2025-07-23T19:38:53.375211"
  },
  "parsed_at": "2025-07-24T01:09:37.262874",
  "title": "Carbanilic acid, o-chloro-, methyl ester",
  "sections": {
    "general": {
      "agent_name": {
        "original_name": "Agent Name",
        "value": "Carbanilic acid, o-chloro-, methyl ester",
        "links": [],
        "cross_references": [
          {
            "type": "name_match",
            "text": "carbanilic acid, o-chloro-, methyl ester",
            "confidence": 1.0,
            "uuid": "02c2e081-90a4-470a-952f-3153283d20c8",
            "name": "Carbanilic acid, o-chloro-, methyl ester",
            "url": "https://haz-map.com/Agents/4212",
            "category": "agents"
          }
        ]
      },
      "cas_number": {
        "original_name": "CAS Number",
        "value": "20668-13-7",
        "links": [],
        "cross_references": []
      },
      "formula": {
        "original_name": "Formula",
        "value": "C8-H8-Cl-N-O2",
        "links": [],
        "cross_references": []
      },
      "major_category": {
        "original_name": "Major Category",
        "value": "Other Classes",
        "links": [],
        "cross_references": []
      },
      "synonyms": {
        "original_name": "Synonyms",
        "value": "Carbamic acid, (2-chlorophenyl)-, methyl ester; Carbamic acid, (o-chlorophenyl)-, methyl ester; [ChemIDplus]",
        "links": [],
        "cross_references": []
      },
      "category": {
        "original_name": "Category",
        "value": "Carbamic Acid Esters",
        "links": [],
        "cross_references": []
      },
      "biomedical_references": {
        "original_name": "Biomedical References",
        "value": "Search PubMed",
        "links": [
          {
            "text": "Search PubMed",
            "url": "https://www.ncbi.nlm.nih.gov/pubmed?term=Carbanilic+acid%2c+o-chloro-%2c+methyl+ester%20AND%20human%5Bmh%5D%20AND%20%28Occupational%20Diseases%20%5Bmh%5D%20OR%20Occupational%20Exposure%20%5Bmh%5D%29%20%20AND%20%28tox%5Bsb%5D%29&cmd=search"
          }
        ],
        "cross_references": []
      }
    },
    "exposure_assessment": {
      "vapor_pressure": {
        "original_name": "Vapor Pressure",
        "value": "0.00831 mm Hg",
        "links": [],
        "cross_references": []
      }
    },
    "diseases_processes_and_activities_linked_to_this_agent": {
      "other_information": {
        "original_name": "Other Information",
        "value": "No other related information on this agent was found.",
        "links": [],
        "cross_references": []
      }
    }
  },
  "cross_references": [
    {
      "type": "name_match",
      "text": "carbanilic acid, o-chloro-, methyl ester",
      "confidence": 1.0,
      "uuid": "02c2e081-90a4-470a-952f-3153283d20c8",
      "name": "Carbanilic acid, o-chloro-, methyl ester",
      "url": "https://haz-map.com/Agents/4212",
      "category": "agents"
    }
  ],
  "all_links": [
    {
      "text": "Search PubMed",
      "url": "https://www.ncbi.nlm.nih.gov/pubmed?term=Carbanilic+acid%2c+o-chloro-%2c+methyl+ester%20AND%20human%5Bmh%5D%20AND%20%28Occupational%20Diseases%20%5Bmh%5D%20OR%20Occupational%20Exposure%20%5Bmh%5D%29%20%20AND%20%28tox%5Bsb%5D%29&cmd=search"
    }
  ]
}