{
  "metadata": {
    "scraped_from": "https://haz-map.com/Agents/1218",
    "entity_name": "Ninhydrin",
    "category": "agents",
    "uuid": "036e928e-560a-4eb5-b725-f79816b06a83",
    "scraped_at": "2025-07-23T18:54:42.260549"
  },
  "parsed_at": "2025-07-24T01:17:20.404165",
  "title": "Ninhydrin",
  "sections": {
    "general": {
      "agent_name": {
        "original_name": "Agent Name",
        "value": "Ninhydrin",
        "links": [],
        "cross_references": [
          {
            "type": "name_match",
            "text": "ninhydrin",
            "confidence": 1.0,
            "uuid": "036e928e-560a-4eb5-b725-f79816b06a83",
            "name": "Ninhydrin",
            "url": "https://haz-map.com/Agents/1218",
            "category": "agents"
          }
        ]
      },
      "cas_number": {
        "original_name": "CAS Number",
        "value": "485-47-2",
        "links": [],
        "cross_references": []
      },
      "formula": {
        "original_name": "Formula",
        "value": "C9-H6-O4",
        "links": [],
        "cross_references": []
      },
      "major_category": {
        "original_name": "Major Category",
        "value": "Other Classes",
        "links": [],
        "cross_references": []
      },
      "synonyms": {
        "original_name": "Synonyms",
        "value": "1,2,3-Indantrione monohydrate; 1,2,3-Indantrione, 2-hydrate; 2,2-Dihydroxy-1,3-indandione; 2,2-Dihydroxy-1H-indene-1,3(2H)-dione; Ninhydrin; Ninhydrin hydrate; Triketohydrindene hydrate; 1,3-Indandione, 2,2-dihydroxy-; 1H-Indene-1,3(2H)-dione, 2,2-dihydroxy-; Indan-1,2,3-trione; [ChemIDplus]",
        "links": [],
        "cross_references": [
          {
            "type": "name_match",
            "text": "indene",
            "confidence": 1.0,
            "uuid": "abe76b78-2986-4d49-b6e5-d1ce49774b99",
            "name": "Indene",
            "url": "https://haz-map.com/Agents/520",
            "category": "agents"
          },
          {
            "type": "name_match",
            "text": "ninhydrin",
            "confidence": 1.0,
            "uuid": "036e928e-560a-4eb5-b725-f79816b06a83",
            "name": "Ninhydrin",
            "url": "https://haz-map.com/Agents/1218",
            "category": "agents"
          },
          {
            "type": "name_match",
            "text": "1,3-indandione",
            "confidence": 1.0,
            "uuid": "11f3f730-a7f0-4fbe-b7e1-443b9dfaf6c9",
            "name": "1,3-Indandione",
            "url": "https://haz-map.com/Agents/19260",
            "category": "agents"
          },
          {
            "type": "name_match",
            "text": "indan",
            "confidence": 1.0,
            "uuid": "ebba867b-a993-436a-85fb-f7d1183da941",
            "name": "Indan",
            "url": "https://haz-map.com/Agents/19450",
            "category": "agents"
          }
        ]
      },
      "category": {
        "original_name": "Category",
        "value": "Other Organic Compounds",
        "links": [],
        "cross_references": [
          {
            "type": "fuzzy_match",
            "text": "organic compounds",
            "matched_name": "Tin, organic compounds",
            "confidence": 0.8196969696969697,
            "uuid": "e027d413-8869-4308-9eb2-27d768b011ea",
            "category": "agents",
            "url": "https://haz-map.com/Agents/656"
          }
        ]
      },
      "description": {
        "original_name": "Description",
        "value": "White to light yellow crystals or powder; [CAMEO]",
        "links": [],
        "cross_references": [
          {
            "type": "name_match",
            "text": "ht",
            "confidence": 1.0,
            "uuid": "764df367-8d53-4a11-81a2-31ccfe122a8d",
            "name": "HT",
            "url": "https://haz-map.com/Agents/2168",
            "category": "agents"
          }
        ]
      },
      "sourcesuses": {
        "original_name": "Sources/Uses",
        "value": "Used as a laboratory reagent to detect amino and carboxyl groups in peptides and proteins; [Pirila P et al. Rhinitis caused by ninhydrin develops into occupational asthma. Eur Respir J. 1997, Aug;10(8):1918-21.]",
        "links": [],
        "cross_references": [
          {
            "type": "name_match",
            "text": "rhinitis",
            "confidence": 1.0,
            "uuid": "0bd4dc1b-0105-44df-9683-1232567564e0",
            "name": "rhinitis",
            "url": "https://haz-map.com/Findings/101",
            "category": "findings"
          },
          {
            "type": "name_match",
            "text": "ninhydrin",
            "confidence": 1.0,
            "uuid": "036e928e-560a-4eb5-b725-f79816b06a83",
            "name": "Ninhydrin",
            "url": "https://haz-map.com/Agents/1218",
            "category": "agents"
          }
        ]
      },
      "comments": {
        "original_name": "Comments",
        "value": "Allergic contact dermatitis and occupational asthma reported in a forensic technician; [Malo] A skin, eye, and respiratory tract irritant; May cause skin sensitization; [ICSC]",
        "links": [],
        "cross_references": [
          {
            "type": "name_match",
            "text": "dermatitis",
            "confidence": 1.0,
            "uuid": "fe9c05f2-b19f-4ceb-ac7a-ffb7d7a0cae0",
            "name": "dermatitis",
            "url": "https://haz-map.com/Findings/59",
            "category": "findings"
          },
          {
            "type": "fuzzy_match",
            "text": "contact dermatitis",
            "matched_name": "Contact dermatitis, allergic",
            "confidence": 0.7214285714285715,
            "uuid": "c9499de0-9aa1-41bf-8753-cd5b28a63e29",
            "category": "diseases",
            "url": "https://haz-map.com/Diseases/18"
          }
        ]
      },
      "reference_link_1": {
        "original_name": "Reference Link #1",
        "value": "Rhinitis caused by ninhydrin develops into occupational asthma",
        "links": [
          {
            "text": "Rhinitis caused by ninhydrin develops into occupational asthma",
            "url": "http://www.ncbi.nlm.nih.gov/entrez/query.fcgi?cmd=Retrieve&db=PubMed&list_uids=9272939&dopt=Abstract"
          }
        ],
        "cross_references": [
          {
            "type": "name_match",
            "text": "rhinitis",
            "confidence": 1.0,
            "uuid": "0bd4dc1b-0105-44df-9683-1232567564e0",
            "name": "rhinitis",
            "url": "https://haz-map.com/Findings/101",
            "category": "findings"
          },
          {
            "type": "name_match",
            "text": "ninhydrin",
            "confidence": 1.0,
            "uuid": "036e928e-560a-4eb5-b725-f79816b06a83",
            "name": "Ninhydrin",
            "url": "https://haz-map.com/Agents/1218",
            "category": "agents"
          }
        ]
      },
      "biomedical_references": {
        "original_name": "Biomedical References",
        "value": "Search PubMed",
        "links": [
          {
            "text": "Search PubMed",
            "url": "https://www.ncbi.nlm.nih.gov/pubmed?term=Ninhydrin%20AND%20human%5Bmh%5D%20AND%20%28Occupational%20Diseases%20%5Bmh%5D%20OR%20Occupational%20Exposure%20%5Bmh%5D%29%20%20AND%20%28tox%5Bsb%5D%29&cmd=search"
          }
        ],
        "cross_references": []
      }
    },
    "exposure_assessment": {
      "vapor_pressure": {
        "original_name": "Vapor Pressure",
        "value": "2.36E-07 mm Hg",
        "links": [],
        "cross_references": []
      },
      "reference_link_2": {
        "original_name": "Reference Link #2",
        "value": "Allergic contact dermatitis from ninhydrin in a forensic scientist",
        "links": [
          {
            "text": "Allergic contact dermatitis from ninhydrin in a forensic scientist",
            "url": "http://www.ncbi.nlm.nih.gov/entrez/query.fcgi?cmd=Retrieve&db=PubMed&list_uids=10871105&dopt=Abstract"
          }
        ],
        "cross_references": [
          {
            "type": "name_match",
            "text": "dermatitis",
            "confidence": 1.0,
            "uuid": "fe9c05f2-b19f-4ceb-ac7a-ffb7d7a0cae0",
            "name": "dermatitis",
            "url": "https://haz-map.com/Findings/59",
            "category": "findings"
          },
          {
            "type": "name_match",
            "text": "ninhydrin",
            "confidence": 1.0,
            "uuid": "036e928e-560a-4eb5-b725-f79816b06a83",
            "name": "Ninhydrin",
            "url": "https://haz-map.com/Agents/1218",
            "category": "agents"
          },
          {
            "type": "fuzzy_match",
            "text": "contact dermatitis",
            "matched_name": "Contact dermatitis, allergic",
            "confidence": 0.7214285714285715,
            "uuid": "c9499de0-9aa1-41bf-8753-cd5b28a63e29",
            "category": "diseases",
            "url": "https://haz-map.com/Diseases/18"
          }
        ]
      }
    },
    "adverse_effects": {
      "skin_sensitizer": {
        "original_name": "Skin Sensitizer",
        "value": "Yes",
        "links": [],
        "cross_references": []
      },
      "asthma": {
        "original_name": "Asthma",
        "value": "Yes",
        "links": [],
        "cross_references": []
      }
    },
    "diseases_processes_and_activities_linked_to_this_agent": {
      "diseases": {
        "original_name": "Diseases",
        "value": "Occupational diseases associated with exposure to this agent: Asthma, occupational Contact dermatitis, allergic",
        "links": [
          {
            "text": "Asthma, occupational",
            "url": "https://haz-map.com/Diseases/23"
          },
          {
            "text": "Contact dermatitis, allergic",
            "url": "https://haz-map.com/Diseases/18"
          }
        ],
        "cross_references": [
          {
            "type": "url_match",
            "text": "Asthma, occupational",
            "url": "https://haz-map.com/Diseases/23",
            "confidence": 1.0,
            "uuid": "29c464cb-36b2-43d8-b6fc-e19a0ea695cb",
            "name": "Asthma, occupational",
            "category": "diseases"
          },
          {
            "type": "url_match",
            "text": "Contact dermatitis, allergic",
            "url": "https://haz-map.com/Diseases/18",
            "confidence": 1.0,
            "uuid": "c9499de0-9aa1-41bf-8753-cd5b28a63e29",
            "name": "Contact dermatitis, allergic",
            "category": "diseases"
          },
          {
            "type": "name_match",
            "text": "dermatitis",
            "confidence": 1.0,
            "uuid": "fe9c05f2-b19f-4ceb-ac7a-ffb7d7a0cae0",
            "name": "dermatitis",
            "url": "https://haz-map.com/Findings/59",
            "category": "findings"
          }
        ]
      }
    }
  },
  "cross_references": [
    {
      "type": "url_match",
      "text": "Asthma, occupational",
      "url": "https://haz-map.com/Diseases/23",
      "confidence": 1.0,
      "uuid": "29c464cb-36b2-43d8-b6fc-e19a0ea695cb",
      "name": "Asthma, occupational",
      "category": "diseases"
    },
    {
      "type": "url_match",
      "text": "Contact dermatitis, allergic",
      "url": "https://haz-map.com/Diseases/18",
      "confidence": 1.0,
      "uuid": "c9499de0-9aa1-41bf-8753-cd5b28a63e29",
      "name": "Contact dermatitis, allergic",
      "category": "diseases"
    },
    {
      "type": "name_match",
      "text": "dermatitis",
      "confidence": 1.0,
      "uuid": "fe9c05f2-b19f-4ceb-ac7a-ffb7d7a0cae0",
      "name": "dermatitis",
      "url": "https://haz-map.com/Findings/59",
      "category": "findings"
    },
    {
      "type": "name_match",
      "text": "rhinitis",
      "confidence": 1.0,
      "uuid": "0bd4dc1b-0105-44df-9683-1232567564e0",
      "name": "rhinitis",
      "url": "https://haz-map.com/Findings/101",
      "category": "findings"
    },
    {
      "type": "name_match",
      "text": "indene",
      "confidence": 1.0,
      "uuid": "abe76b78-2986-4d49-b6e5-d1ce49774b99",
      "name": "Indene",
      "url": "https://haz-map.com/Agents/520",
      "category": "agents"
    },
    {
      "type": "name_match",
      "text": "ninhydrin",
      "confidence": 1.0,
      "uuid": "036e928e-560a-4eb5-b725-f79816b06a83",
      "name": "Ninhydrin",
      "url": "https://haz-map.com/Agents/1218",
      "category": "agents"
    },
    {
      "type": "name_match",
      "text": "ht",
      "confidence": 1.0,
      "uuid": "764df367-8d53-4a11-81a2-31ccfe122a8d",
      "name": "HT",
      "url": "https://haz-map.com/Agents/2168",
      "category": "agents"
    },
    {
      "type": "name_match",
      "text": "1,3-indandione",
      "confidence": 1.0,
      "uuid": "11f3f730-a7f0-4fbe-b7e1-443b9dfaf6c9",
      "name": "1,3-Indandione",
      "url": "https://haz-map.com/Agents/19260",
      "category": "agents"
    },
    {
      "type": "name_match",
      "text": "indan",
      "confidence": 1.0,
      "uuid": "ebba867b-a993-436a-85fb-f7d1183da941",
      "name": "Indan",
      "url": "https://haz-map.com/Agents/19450",
      "category": "agents"
    },
    {
      "type": "fuzzy_match",
      "text": "organic compounds",
      "matched_name": "Tin, organic compounds",
      "confidence": 0.8196969696969697,
      "uuid": "e027d413-8869-4308-9eb2-27d768b011ea",
      "category": "agents",
      "url": "https://haz-map.com/Agents/656"
    }
  ],
  "all_links": [
    {
      "text": "Rhinitis caused by ninhydrin develops into occupational asthma",
      "url": "http://www.ncbi.nlm.nih.gov/entrez/query.fcgi?cmd=Retrieve&db=PubMed&list_uids=9272939&dopt=Abstract"
    },
    {
      "text": "Search PubMed",
      "url": "https://www.ncbi.nlm.nih.gov/pubmed?term=Ninhydrin%20AND%20human%5Bmh%5D%20AND%20%28Occupational%20Diseases%20%5Bmh%5D%20OR%20Occupational%20Exposure%20%5Bmh%5D%29%20%20AND%20%28tox%5Bsb%5D%29&cmd=search"
    },
    {
      "text": "Allergic contact dermatitis from ninhydrin in a forensic scientist",
      "url": "http://www.ncbi.nlm.nih.gov/entrez/query.fcgi?cmd=Retrieve&db=PubMed&list_uids=10871105&dopt=Abstract"
    },
    {
      "text": "Asthma, occupational",
      "url": "https://haz-map.com/Diseases/23"
    },
    {
      "text": "Contact dermatitis, allergic",
      "url": "https://haz-map.com/Diseases/18"
    }
  ]
}