{
  "metadata": {
    "scraped_from": "https://haz-map.com/Agents/8502",
    "entity_name": "1,1-Dichloropropene",
    "category": "agents",
    "uuid": "039ee75c-0075-4a5d-97ac-8bdf7f43ffe4",
    "scraped_at": "2025-07-23T20:27:59.974445"
  },
  "parsed_at": "2025-07-24T01:14:25.407396",
  "title": "1,1-Dichloropropene",
  "sections": {
    "general": {
      "agent_name": {
        "original_name": "Agent Name",
        "value": "1,1-Dichloropropene",
        "links": [],
        "cross_references": [
          {
            "type": "name_match",
            "text": "1,1-dichloropropene",
            "confidence": 1.0,
            "uuid": "039ee75c-0075-4a5d-97ac-8bdf7f43ffe4",
            "name": "1,1-Dichloropropene",
            "url": "https://haz-map.com/Agents/8502",
            "category": "agents"
          }
        ]
      },
      "cas_number": {
        "original_name": "CAS Number",
        "value": "563-58-6",
        "links": [],
        "cross_references": []
      },
      "formula": {
        "original_name": "Formula",
        "value": "C3-H4-Cl2",
        "links": [],
        "cross_references": []
      },
      "major_category": {
        "original_name": "Major Category",
        "value": "Solvents",
        "links": [],
        "cross_references": []
      },
      "synonyms": {
        "original_name": "Synonyms",
        "value": "1,1-Dichloro-1-propene; 1,1-Dichloropropylene; 1-Propene, 1,1-dichloro-; Propene, 1,1-dichloro-; [ChemIDplus] UN2047",
        "links": [],
        "cross_references": [
          {
            "type": "name_match",
            "text": "propylene",
            "confidence": 1.0,
            "uuid": "78ac73a1-0029-4a50-b283-561134c72041",
            "name": "Propylene",
            "url": "https://haz-map.com/Agents/1078",
            "category": "agents"
          }
        ]
      },
      "category": {
        "original_name": "Category",
        "value": "Chlorinated Aliphatics",
        "links": [],
        "cross_references": [
          {
            "type": "name_match",
            "text": "chlorin",
            "confidence": 1.0,
            "uuid": "4a566fec-ec7e-42b0-9f14-ec586335e694",
            "name": "Chlorin",
            "url": "https://haz-map.com/Agents/20422",
            "category": "agents"
          }
        ]
      },
      "description": {
        "original_name": "Description",
        "value": "Clear faintly yellow liquid; [MSDSonline]",
        "links": [],
        "cross_references": []
      },
      "sourcesuses": {
        "original_name": "Sources/Uses",
        "value": "1,3-Dichloropropene is used as a pesticide; 2,3-Dichloropropene is used to make other chemicals; No uses were found for the other isomers (1,1-, 1,2-, and 3,3-); [Reference #1]",
        "links": [],
        "cross_references": [
          {
            "type": "name_match",
            "text": "1,3-dichloropropene",
            "confidence": 1.0,
            "uuid": "e140b45a-f881-4030-863e-0370336b43d7",
            "name": "1,3-Dichloropropene",
            "url": "https://haz-map.com/Agents/404",
            "category": "agents"
          },
          {
            "type": "name_match",
            "text": "mica",
            "confidence": 1.0,
            "uuid": "433f26f1-c399-4596-b179-ce3843cfd465",
            "name": "Mica",
            "url": "https://haz-map.com/Agents/621",
            "category": "agents"
          }
        ]
      },
      "comments": {
        "original_name": "Comments",
        "value": "An irritant and lachrymator; Harmful by inhalation, skin absorption, or ingestion; [MSDSonline] See \"1,3-Dichloropropene.\"",
        "links": [],
        "cross_references": [
          {
            "type": "name_match",
            "text": "1,3-dichloropropene",
            "confidence": 1.0,
            "uuid": "e140b45a-f881-4030-863e-0370336b43d7",
            "name": "1,3-Dichloropropene",
            "url": "https://haz-map.com/Agents/404",
            "category": "agents"
          }
        ]
      },
      "reference_link_1": {
        "original_name": "Reference Link #1",
        "value": "ATSDR - ToxFAQs: Dichloropropenes",
        "links": [
          {
            "text": "ATSDR - ToxFAQs: Dichloropropenes",
            "url": "http://www.atsdr.cdc.gov/toxfaqs/tf.asp?id=835&tid=163"
          }
        ],
        "cross_references": []
      },
      "biomedical_references": {
        "original_name": "Biomedical References",
        "value": "Search PubMed",
        "links": [
          {
            "text": "Search PubMed",
            "url": "https://www.ncbi.nlm.nih.gov/pubmed?term=1%2c1-Dichloropropene%20AND%20human%5Bmh%5D%20AND%20%28Occupational%20Diseases%20%5Bmh%5D%20OR%20Occupational%20Exposure%20%5Bmh%5D%29%20%20AND%20%28tox%5Bsb%5D%29&cmd=search"
          }
        ],
        "cross_references": []
      }
    },
    "exposure_assessment": {
      "vapor_pressure": {
        "original_name": "Vapor Pressure",
        "value": "90.8 mm Hg",
        "links": [],
        "cross_references": []
      },
      "explanatory_notes": {
        "original_name": "Explanatory Notes",
        "value": "The Guide in the Emergency Response Guidebook is for \"Dichloropropenes.\" VP from ChemIDplus;",
        "links": [],
        "cross_references": []
      }
    },
    "adverse_effects": {
      "lachrymator": {
        "original_name": "Lachrymator",
        "value": "Yes",
        "links": [],
        "cross_references": []
      },
      "neurotoxin": {
        "original_name": "Neurotoxin",
        "value": "Acute solvent syndrome",
        "links": [],
        "cross_references": []
      }
    },
    "diseases_processes_and_activities_linked_to_this_agent": {
      "diseases": {
        "original_name": "Diseases",
        "value": "Occupational diseases associated with exposure to this agent: Solvents, acute toxic effect",
        "links": [
          {
            "text": "Solvents, acute toxic effect",
            "url": "https://haz-map.com/Diseases/326"
          }
        ],
        "cross_references": [
          {
            "type": "url_match",
            "text": "Solvents, acute toxic effect",
            "url": "https://haz-map.com/Diseases/326",
            "confidence": 1.0,
            "uuid": "581e90e3-9d0c-45f0-aa6c-3468c28da129",
            "name": "Solvents, acute toxic effect",
            "category": "diseases"
          }
        ]
      }
    }
  },
  "cross_references": [
    {
      "type": "url_match",
      "text": "Solvents, acute toxic effect",
      "url": "https://haz-map.com/Diseases/326",
      "confidence": 1.0,
      "uuid": "581e90e3-9d0c-45f0-aa6c-3468c28da129",
      "name": "Solvents, acute toxic effect",
      "category": "diseases"
    },
    {
      "type": "name_match",
      "text": "1,3-dichloropropene",
      "confidence": 1.0,
      "uuid": "e140b45a-f881-4030-863e-0370336b43d7",
      "name": "1,3-Dichloropropene",
      "url": "https://haz-map.com/Agents/404",
      "category": "agents"
    },
    {
      "type": "name_match",
      "text": "mica",
      "confidence": 1.0,
      "uuid": "433f26f1-c399-4596-b179-ce3843cfd465",
      "name": "Mica",
      "url": "https://haz-map.com/Agents/621",
      "category": "agents"
    },
    {
      "type": "name_match",
      "text": "propylene",
      "confidence": 1.0,
      "uuid": "78ac73a1-0029-4a50-b283-561134c72041",
      "name": "Propylene",
      "url": "https://haz-map.com/Agents/1078",
      "category": "agents"
    },
    {
      "type": "name_match",
      "text": "1,1-dichloropropene",
      "confidence": 1.0,
      "uuid": "039ee75c-0075-4a5d-97ac-8bdf7f43ffe4",
      "name": "1,1-Dichloropropene",
      "url": "https://haz-map.com/Agents/8502",
      "category": "agents"
    },
    {
      "type": "name_match",
      "text": "chlorin",
      "confidence": 1.0,
      "uuid": "4a566fec-ec7e-42b0-9f14-ec586335e694",
      "name": "Chlorin",
      "url": "https://haz-map.com/Agents/20422",
      "category": "agents"
    }
  ],
  "all_links": [
    {
      "text": "ATSDR - ToxFAQs: Dichloropropenes",
      "url": "http://www.atsdr.cdc.gov/toxfaqs/tf.asp?id=835&tid=163"
    },
    {
      "text": "Search PubMed",
      "url": "https://www.ncbi.nlm.nih.gov/pubmed?term=1%2c1-Dichloropropene%20AND%20human%5Bmh%5D%20AND%20%28Occupational%20Diseases%20%5Bmh%5D%20OR%20Occupational%20Exposure%20%5Bmh%5D%29%20%20AND%20%28tox%5Bsb%5D%29&cmd=search"
    },
    {
      "text": "Solvents, acute toxic effect",
      "url": "https://haz-map.com/Diseases/326"
    }
  ]
}