{
  "metadata": {
    "scraped_from": "https://haz-map.com/Agents/9067",
    "entity_name": "9-Anthracenecarbonitrile",
    "category": "agents",
    "uuid": "03f66fd3-53f4-478f-a8a1-afea03804a0b",
    "scraped_at": "2025-07-23T20:32:07.778307"
  },
  "parsed_at": "2025-07-24T01:18:16.729305",
  "title": "9-Anthracenecarbonitrile",
  "sections": {
    "general": {
      "agent_name": {
        "original_name": "Agent Name",
        "value": "9-Anthracenecarbonitrile",
        "links": [],
        "cross_references": [
          {
            "type": "name_match",
            "text": "carbon",
            "confidence": 1.0,
            "uuid": "b53f8815-ee80-40ef-b4aa-3b000e17dab5",
            "name": "Carbon",
            "url": "https://haz-map.com/Agents/1891",
            "category": "agents"
          },
          {
            "type": "name_match",
            "text": "anthracene",
            "confidence": 1.0,
            "uuid": "f11a62e4-1e69-4f6d-a8b7-240c9de086ff",
            "name": "Anthracene",
            "url": "https://haz-map.com/Agents/7821",
            "category": "agents"
          },
          {
            "type": "name_match",
            "text": "9-anthracenecarbonitrile",
            "confidence": 1.0,
            "uuid": "03f66fd3-53f4-478f-a8a1-afea03804a0b",
            "name": "9-Anthracenecarbonitrile",
            "url": "https://haz-map.com/Agents/9067",
            "category": "agents"
          }
        ]
      },
      "cas_number": {
        "original_name": "CAS Number",
        "value": "1210-12-4",
        "links": [],
        "cross_references": []
      },
      "formula": {
        "original_name": "Formula",
        "value": "C15-H9-N",
        "links": [],
        "cross_references": []
      },
      "major_category": {
        "original_name": "Major Category",
        "value": "Nitrogen Compounds",
        "links": [],
        "cross_references": [
          {
            "type": "name_match",
            "text": "nitrogen",
            "confidence": 1.0,
            "uuid": "db5e90a9-06d2-45b9-8b81-f345a89b0bc0",
            "name": "Nitrogen",
            "url": "https://haz-map.com/Agents/1072",
            "category": "agents"
          }
        ]
      },
      "synonyms": {
        "original_name": "Synonyms",
        "value": "9-Anthroylnitrile; 9-Cyanoanthracene; 9-Anthronitrile (8CI); [ChemIDplus]",
        "links": [],
        "cross_references": [
          {
            "type": "name_match",
            "text": "anthracene",
            "confidence": 1.0,
            "uuid": "f11a62e4-1e69-4f6d-a8b7-240c9de086ff",
            "name": "Anthracene",
            "url": "https://haz-map.com/Agents/7821",
            "category": "agents"
          }
        ]
      },
      "category": {
        "original_name": "Category",
        "value": "Nitriles",
        "links": [],
        "cross_references": [
          {
            "type": "name_match",
            "text": "nitriles",
            "confidence": 1.0,
            "uuid": "41430895-c07a-4421-888b-3d7122a4cd55",
            "name": "NITRILES",
            "url": "https://haz-map.com/Agents/715",
            "category": "agents"
          }
        ]
      },
      "description": {
        "original_name": "Description",
        "value": "Powder; [MSDSonline]",
        "links": [],
        "cross_references": []
      },
      "comments": {
        "original_name": "Comments",
        "value": "An irritant; [MSDSonline] See \"NITRILES.\"",
        "links": [],
        "cross_references": [
          {
            "type": "name_match",
            "text": "nitriles",
            "confidence": 1.0,
            "uuid": "41430895-c07a-4421-888b-3d7122a4cd55",
            "name": "NITRILES",
            "url": "https://haz-map.com/Agents/715",
            "category": "agents"
          }
        ]
      },
      "biomedical_references": {
        "original_name": "Biomedical References",
        "value": "Search PubMed",
        "links": [
          {
            "text": "Search PubMed",
            "url": "https://www.ncbi.nlm.nih.gov/pubmed?term=9-Anthracenecarbonitrile%20AND%20human%5Bmh%5D%20AND%20%28Occupational%20Diseases%20%5Bmh%5D%20OR%20Occupational%20Exposure%20%5Bmh%5D%29%20%20AND%20%28tox%5Bsb%5D%29&cmd=search"
          }
        ],
        "cross_references": []
      }
    },
    "exposure_assessment": {
      "vapor_pressure": {
        "original_name": "Vapor Pressure",
        "value": "3.26E-06 mm Hg",
        "links": [],
        "cross_references": []
      }
    },
    "diseases_processes_and_activities_linked_to_this_agent": {
      "other_information": {
        "original_name": "Other Information",
        "value": "No other related information on this agent was found.",
        "links": [],
        "cross_references": []
      }
    }
  },
  "cross_references": [
    {
      "type": "name_match",
      "text": "nitriles",
      "confidence": 1.0,
      "uuid": "41430895-c07a-4421-888b-3d7122a4cd55",
      "name": "NITRILES",
      "url": "https://haz-map.com/Agents/715",
      "category": "agents"
    },
    {
      "type": "name_match",
      "text": "nitrogen",
      "confidence": 1.0,
      "uuid": "db5e90a9-06d2-45b9-8b81-f345a89b0bc0",
      "name": "Nitrogen",
      "url": "https://haz-map.com/Agents/1072",
      "category": "agents"
    },
    {
      "type": "name_match",
      "text": "carbon",
      "confidence": 1.0,
      "uuid": "b53f8815-ee80-40ef-b4aa-3b000e17dab5",
      "name": "Carbon",
      "url": "https://haz-map.com/Agents/1891",
      "category": "agents"
    },
    {
      "type": "name_match",
      "text": "anthracene",
      "confidence": 1.0,
      "uuid": "f11a62e4-1e69-4f6d-a8b7-240c9de086ff",
      "name": "Anthracene",
      "url": "https://haz-map.com/Agents/7821",
      "category": "agents"
    },
    {
      "type": "name_match",
      "text": "9-anthracenecarbonitrile",
      "confidence": 1.0,
      "uuid": "03f66fd3-53f4-478f-a8a1-afea03804a0b",
      "name": "9-Anthracenecarbonitrile",
      "url": "https://haz-map.com/Agents/9067",
      "category": "agents"
    }
  ],
  "all_links": [
    {
      "text": "Search PubMed",
      "url": "https://www.ncbi.nlm.nih.gov/pubmed?term=9-Anthracenecarbonitrile%20AND%20human%5Bmh%5D%20AND%20%28Occupational%20Diseases%20%5Bmh%5D%20OR%20Occupational%20Exposure%20%5Bmh%5D%29%20%20AND%20%28tox%5Bsb%5D%29&cmd=search"
    }
  ]
}