{
  "metadata": {
    "scraped_from": "https://haz-map.com/Agents/3531",
    "entity_name": "n-Decyl n-octyl adipate",
    "category": "agents",
    "uuid": "0434fd74-13d9-4140-b42b-1f03441d3885",
    "scraped_at": "2025-07-23T19:30:34.929524"
  },
  "parsed_at": "2025-07-24T01:05:39.899615",
  "title": "n-Decyl n-octyl adipate",
  "sections": {
    "general": {
      "agent_name": {
        "original_name": "Agent Name",
        "value": "n-Decyl n-octyl adipate",
        "links": [],
        "cross_references": [
          {
            "type": "name_match",
            "text": "n-decyl n-octyl adipate",
            "confidence": 1.0,
            "uuid": "0434fd74-13d9-4140-b42b-1f03441d3885",
            "name": "n-Decyl n-octyl adipate",
            "url": "https://haz-map.com/Agents/3531",
            "category": "agents"
          }
        ]
      },
      "cas_number": {
        "original_name": "CAS Number",
        "value": "110-29-2",
        "links": [],
        "cross_references": []
      },
      "formula": {
        "original_name": "Formula",
        "value": "C24-H46-O4",
        "links": [],
        "cross_references": []
      },
      "major_category": {
        "original_name": "Major Category",
        "value": "Plastics & Rubber",
        "links": [],
        "cross_references": []
      },
      "synonyms": {
        "original_name": "Synonyms",
        "value": "Adipic acid, decyl octyl ester; Adipol ODY; Decyl octyl adipate; Hercoflex 290; Hexanedioic acid, decyl octyl ester; Monoplex NODA; Octyl decyl adipate; PX-202; Staflex NODA; Truflex 146; n-Octyl decyl adipate; Hexanedioic acid, 1-decyl 6-octyl ester; [ChemIDplus]",
        "links": [],
        "cross_references": [
          {
            "type": "name_match",
            "text": "adipic acid",
            "confidence": 1.0,
            "uuid": "2acec3e0-0784-4c7a-ac91-efee327d26af",
            "name": "Adipic acid",
            "url": "https://haz-map.com/Agents/1660",
            "category": "agents"
          }
        ]
      },
      "category": {
        "original_name": "Category",
        "value": "Other Plasticizers",
        "links": [],
        "cross_references": []
      },
      "description": {
        "original_name": "Description",
        "value": "Liquid; [Hawley] Clear, straw-colored liquid; [MSDSonline]",
        "links": [],
        "cross_references": []
      },
      "sourcesuses": {
        "original_name": "Sources/Uses",
        "value": "Used as a low-temperature plasticizer for cellulose acetate butyrate, cellulose acetate and nitrate, ethyl cellulose and polystyrene, polyvinyl butyral and chloride, nitrile-butadiene rubbers, natural rubbers, and styrene-butadiene rubbers; [HSDB]",
        "links": [],
        "cross_references": [
          {
            "type": "name_match",
            "text": "styrene",
            "confidence": 1.0,
            "uuid": "03c5632f-5079-4688-82bd-0dacf3d0d36a",
            "name": "Styrene",
            "url": "https://haz-map.com/Agents/32",
            "category": "agents"
          },
          {
            "type": "name_match",
            "text": "cellulose",
            "confidence": 1.0,
            "uuid": "b9b1b190-806c-4622-8201-8f09b0a87eca",
            "name": "Cellulose",
            "url": "https://haz-map.com/Agents/347",
            "category": "agents"
          },
          {
            "type": "name_match",
            "text": "cellulose acetate",
            "confidence": 1.0,
            "uuid": "49569e1f-799a-41c1-89b6-2457a776e513",
            "name": "Cellulose acetate",
            "url": "https://haz-map.com/Agents/4251",
            "category": "agents"
          },
          {
            "type": "name_match",
            "text": "ethyl cellulose",
            "confidence": 1.0,
            "uuid": "b3245a3e-f347-440d-8981-e7c57a38f238",
            "name": "Ethyl cellulose",
            "url": "https://haz-map.com/Agents/8356",
            "category": "agents"
          },
          {
            "type": "name_match",
            "text": "butadiene",
            "confidence": 1.0,
            "uuid": "f4fdb4ce-e062-4db5-8e5d-eba44b8a05be",
            "name": "Butadiene",
            "url": "https://haz-map.com/Agents/12505",
            "category": "agents"
          },
          {
            "type": "name_match",
            "text": "cellulose acetate butyrate",
            "confidence": 1.0,
            "uuid": "84fa751e-0a0e-4c60-9cc7-292c0340b5cb",
            "name": "Cellulose acetate butyrate",
            "url": "https://haz-map.com/Agents/12801",
            "category": "agents"
          },
          {
            "type": "name_match",
            "text": "polyvinyl butyral",
            "confidence": 1.0,
            "uuid": "5e165e53-0463-40a5-bd64-b22d419193a3",
            "name": "Polyvinyl butyral",
            "url": "https://haz-map.com/Agents/16761",
            "category": "agents"
          },
          {
            "type": "name_match",
            "text": "styrene-butadiene rubber",
            "confidence": 1.0,
            "uuid": "e1b32043-1256-434a-b8d0-4a51a151210e",
            "name": "Styrene-butadiene rubber",
            "url": "https://haz-map.com/Agents/17766",
            "category": "agents"
          }
        ]
      },
      "comments": {
        "original_name": "Comments",
        "value": "May cause irritation; [MSDSonline]",
        "links": [],
        "cross_references": []
      },
      "biomedical_references": {
        "original_name": "Biomedical References",
        "value": "Search PubMed",
        "links": [
          {
            "text": "Search PubMed",
            "url": "https://www.ncbi.nlm.nih.gov/pubmed?term=n-Decyl+n-octyl+adipate%20AND%20human%5Bmh%5D%20AND%20%28Occupational%20Diseases%20%5Bmh%5D%20OR%20Occupational%20Exposure%20%5Bmh%5D%29%20%20AND%20%28tox%5Bsb%5D%29&cmd=search"
          }
        ],
        "cross_references": []
      }
    },
    "exposure_assessment": {
      "vapor_pressure": {
        "original_name": "Vapor Pressure",
        "value": "3.31E-06 mm Hg",
        "links": [],
        "cross_references": []
      }
    },
    "diseases_processes_and_activities_linked_to_this_agent": {
      "other_information": {
        "original_name": "Other Information",
        "value": "No other related information on this agent was found.",
        "links": [],
        "cross_references": []
      }
    }
  },
  "cross_references": [
    {
      "type": "name_match",
      "text": "styrene",
      "confidence": 1.0,
      "uuid": "03c5632f-5079-4688-82bd-0dacf3d0d36a",
      "name": "Styrene",
      "url": "https://haz-map.com/Agents/32",
      "category": "agents"
    },
    {
      "type": "name_match",
      "text": "cellulose",
      "confidence": 1.0,
      "uuid": "b9b1b190-806c-4622-8201-8f09b0a87eca",
      "name": "Cellulose",
      "url": "https://haz-map.com/Agents/347",
      "category": "agents"
    },
    {
      "type": "name_match",
      "text": "adipic acid",
      "confidence": 1.0,
      "uuid": "2acec3e0-0784-4c7a-ac91-efee327d26af",
      "name": "Adipic acid",
      "url": "https://haz-map.com/Agents/1660",
      "category": "agents"
    },
    {
      "type": "name_match",
      "text": "n-decyl n-octyl adipate",
      "confidence": 1.0,
      "uuid": "0434fd74-13d9-4140-b42b-1f03441d3885",
      "name": "n-Decyl n-octyl adipate",
      "url": "https://haz-map.com/Agents/3531",
      "category": "agents"
    },
    {
      "type": "name_match",
      "text": "cellulose acetate",
      "confidence": 1.0,
      "uuid": "49569e1f-799a-41c1-89b6-2457a776e513",
      "name": "Cellulose acetate",
      "url": "https://haz-map.com/Agents/4251",
      "category": "agents"
    },
    {
      "type": "name_match",
      "text": "ethyl cellulose",
      "confidence": 1.0,
      "uuid": "b3245a3e-f347-440d-8981-e7c57a38f238",
      "name": "Ethyl cellulose",
      "url": "https://haz-map.com/Agents/8356",
      "category": "agents"
    },
    {
      "type": "name_match",
      "text": "butadiene",
      "confidence": 1.0,
      "uuid": "f4fdb4ce-e062-4db5-8e5d-eba44b8a05be",
      "name": "Butadiene",
      "url": "https://haz-map.com/Agents/12505",
      "category": "agents"
    },
    {
      "type": "name_match",
      "text": "cellulose acetate butyrate",
      "confidence": 1.0,
      "uuid": "84fa751e-0a0e-4c60-9cc7-292c0340b5cb",
      "name": "Cellulose acetate butyrate",
      "url": "https://haz-map.com/Agents/12801",
      "category": "agents"
    },
    {
      "type": "name_match",
      "text": "polyvinyl butyral",
      "confidence": 1.0,
      "uuid": "5e165e53-0463-40a5-bd64-b22d419193a3",
      "name": "Polyvinyl butyral",
      "url": "https://haz-map.com/Agents/16761",
      "category": "agents"
    },
    {
      "type": "name_match",
      "text": "styrene-butadiene rubber",
      "confidence": 1.0,
      "uuid": "e1b32043-1256-434a-b8d0-4a51a151210e",
      "name": "Styrene-butadiene rubber",
      "url": "https://haz-map.com/Agents/17766",
      "category": "agents"
    }
  ],
  "all_links": [
    {
      "text": "Search PubMed",
      "url": "https://www.ncbi.nlm.nih.gov/pubmed?term=n-Decyl+n-octyl+adipate%20AND%20human%5Bmh%5D%20AND%20%28Occupational%20Diseases%20%5Bmh%5D%20OR%20Occupational%20Exposure%20%5Bmh%5D%29%20%20AND%20%28tox%5Bsb%5D%29&cmd=search"
    }
  ]
}