{
  "metadata": {
    "scraped_from": "https://haz-map.com/Agents/8027",
    "entity_name": "Boron trifluoride dimethyl etherate",
    "category": "agents",
    "uuid": "04649e20-df1b-4a60-9727-cf3733f389d0",
    "scraped_at": "2025-07-23T20:20:55.467116"
  },
  "parsed_at": "2025-07-24T01:03:22.041706",
  "title": "Boron trifluoride dimethyl etherate",
  "sections": {
    "general": {
      "agent_name": {
        "original_name": "Agent Name",
        "value": "Boron trifluoride dimethyl etherate",
        "links": [],
        "cross_references": [
          {
            "type": "name_match",
            "text": "boron trifluoride",
            "confidence": 1.0,
            "uuid": "c55f73da-b5a4-492a-81d6-66cc6d2edaea",
            "name": "Boron trifluoride",
            "url": "https://haz-map.com/Agents/313",
            "category": "agents"
          },
          {
            "type": "name_match",
            "text": "ethyl ether",
            "confidence": 1.0,
            "uuid": "c95edddc-9ad3-44f8-bafa-78e0bd19db3a",
            "name": "Ethyl ether",
            "url": "https://haz-map.com/Agents/455",
            "category": "agents"
          },
          {
            "type": "name_match",
            "text": "dimethyl ether",
            "confidence": 1.0,
            "uuid": "a12a0b82-a115-4243-98a7-3e9a2c4700ed",
            "name": "Dimethyl ether",
            "url": "https://haz-map.com/Agents/1483",
            "category": "agents"
          },
          {
            "type": "name_match",
            "text": "boron",
            "confidence": 1.0,
            "uuid": "539de4b5-2187-4144-ac60-98c577b00bca",
            "name": "Boron",
            "url": "https://haz-map.com/Agents/2001",
            "category": "agents"
          },
          {
            "type": "name_match",
            "text": "boron trifluoride dimethyl etherate",
            "confidence": 1.0,
            "uuid": "04649e20-df1b-4a60-9727-cf3733f389d0",
            "name": "Boron trifluoride dimethyl etherate",
            "url": "https://haz-map.com/Agents/8027",
            "category": "agents"
          }
        ]
      },
      "alternative_name": {
        "original_name": "Alternative Name",
        "value": "Boron trifluoride dimethyl ether",
        "links": [],
        "cross_references": [
          {
            "type": "name_match",
            "text": "boron trifluoride",
            "confidence": 1.0,
            "uuid": "c55f73da-b5a4-492a-81d6-66cc6d2edaea",
            "name": "Boron trifluoride",
            "url": "https://haz-map.com/Agents/313",
            "category": "agents"
          },
          {
            "type": "name_match",
            "text": "ethyl ether",
            "confidence": 1.0,
            "uuid": "c95edddc-9ad3-44f8-bafa-78e0bd19db3a",
            "name": "Ethyl ether",
            "url": "https://haz-map.com/Agents/455",
            "category": "agents"
          },
          {
            "type": "name_match",
            "text": "dimethyl ether",
            "confidence": 1.0,
            "uuid": "a12a0b82-a115-4243-98a7-3e9a2c4700ed",
            "name": "Dimethyl ether",
            "url": "https://haz-map.com/Agents/1483",
            "category": "agents"
          },
          {
            "type": "name_match",
            "text": "boron",
            "confidence": 1.0,
            "uuid": "539de4b5-2187-4144-ac60-98c577b00bca",
            "name": "Boron",
            "url": "https://haz-map.com/Agents/2001",
            "category": "agents"
          }
        ]
      },
      "cas_number": {
        "original_name": "CAS Number",
        "value": "353-42-4",
        "links": [],
        "cross_references": []
      },
      "formula": {
        "original_name": "Formula",
        "value": "C2-H6-B-F3-O",
        "links": [],
        "cross_references": []
      },
      "major_category": {
        "original_name": "Major Category",
        "value": "Metals",
        "links": [],
        "cross_references": []
      },
      "synonyms": {
        "original_name": "Synonyms",
        "value": "Borane, trifluoro-, cmpd. with oxybis(methane); Borane, trifluoro-, compd. with oxybis(methane) (1:1); Boron trifluoride - dimethyl ether; Boron trifluoride cmpd. with methyl ether; Boron trifluoride dimethyl ether addition compound; Boron, trifluoro(oxybis(methane)); Bortrifluorid-dimethylether [Czech]; Fluorid bority-dimethylether (1:1) [Czech]; Methyl ether, cmpd with boron fluoride; [ChemIDplus] UN2965",
        "links": [],
        "cross_references": [
          {
            "type": "name_match",
            "text": "boron trifluoride",
            "confidence": 1.0,
            "uuid": "c55f73da-b5a4-492a-81d6-66cc6d2edaea",
            "name": "Boron trifluoride",
            "url": "https://haz-map.com/Agents/313",
            "category": "agents"
          },
          {
            "type": "name_match",
            "text": "ethyl ether",
            "confidence": 1.0,
            "uuid": "c95edddc-9ad3-44f8-bafa-78e0bd19db3a",
            "name": "Ethyl ether",
            "url": "https://haz-map.com/Agents/455",
            "category": "agents"
          },
          {
            "type": "name_match",
            "text": "methane",
            "confidence": 1.0,
            "uuid": "5018bf73-24be-4353-8643-c351d5f52186",
            "name": "Methane",
            "url": "https://haz-map.com/Agents/1074",
            "category": "agents"
          },
          {
            "type": "name_match",
            "text": "ethane",
            "confidence": 1.0,
            "uuid": "5162cc8c-dfb9-4060-81ac-38a8cec7f9dd",
            "name": "Ethane",
            "url": "https://haz-map.com/Agents/1075",
            "category": "agents"
          },
          {
            "type": "name_match",
            "text": "dimethyl ether",
            "confidence": 1.0,
            "uuid": "a12a0b82-a115-4243-98a7-3e9a2c4700ed",
            "name": "Dimethyl ether",
            "url": "https://haz-map.com/Agents/1483",
            "category": "agents"
          },
          {
            "type": "name_match",
            "text": "boron",
            "confidence": 1.0,
            "uuid": "539de4b5-2187-4144-ac60-98c577b00bca",
            "name": "Boron",
            "url": "https://haz-map.com/Agents/2001",
            "category": "agents"
          },
          {
            "type": "name_match",
            "text": "borane",
            "confidence": 1.0,
            "uuid": "a5e38655-49dd-4cdf-bbc0-f37c42350b45",
            "name": "Borane",
            "url": "https://haz-map.com/Agents/8317",
            "category": "agents"
          }
        ]
      },
      "category": {
        "original_name": "Category",
        "value": "Metalloid Compounds (Boron)",
        "links": [],
        "cross_references": [
          {
            "type": "name_match",
            "text": "boron",
            "confidence": 1.0,
            "uuid": "539de4b5-2187-4144-ac60-98c577b00bca",
            "name": "Boron",
            "url": "https://haz-map.com/Agents/2001",
            "category": "agents"
          }
        ]
      },
      "description": {
        "original_name": "Description",
        "value": "Fuming liquid; [CAMEO] Stable but highly flammable, brown liquid; [ACGIH]",
        "links": [],
        "cross_references": []
      },
      "sourcesuses": {
        "original_name": "Sources/Uses",
        "value": "Boron trifluoride ethers are effective reagents used as a source of boron trifluoride in the production of semiconductors and organic compounds; [ACGIH] Used as an esterification reagent for fats and oils; in breeder reactor control rods; [HSDB] Used as a catalyst in chemical reactions; [CAMEO]",
        "links": [],
        "cross_references": [
          {
            "type": "name_match",
            "text": "boron trifluoride",
            "confidence": 1.0,
            "uuid": "c55f73da-b5a4-492a-81d6-66cc6d2edaea",
            "name": "Boron trifluoride",
            "url": "https://haz-map.com/Agents/313",
            "category": "agents"
          },
          {
            "type": "name_match",
            "text": "mica",
            "confidence": 1.0,
            "uuid": "433f26f1-c399-4596-b179-ce3843cfd465",
            "name": "Mica",
            "url": "https://haz-map.com/Agents/621",
            "category": "agents"
          },
          {
            "type": "name_match",
            "text": "boron",
            "confidence": 1.0,
            "uuid": "539de4b5-2187-4144-ac60-98c577b00bca",
            "name": "Boron",
            "url": "https://haz-map.com/Agents/2001",
            "category": "agents"
          },
          {
            "type": "fuzzy_match",
            "text": "organic compounds",
            "matched_name": "Tin, organic compounds",
            "confidence": 0.8196969696969697,
            "uuid": "e027d413-8869-4308-9eb2-27d768b011ea",
            "category": "agents",
            "url": "https://haz-map.com/Agents/656"
          }
        ]
      },
      "comments": {
        "original_name": "Comments",
        "value": "TLV Basis = respiratory tract irritation and pneumonitis; \"Boron trifluoride is the key toxic exposure for workers handling or producing these materials.\" Reacts exothermically with water to release highly flammable ethers and corrosive boron trifluoride hydrates; [ACGIH] Corrosive to the skin; [Quick CPC] A strong skin, eye, and respiratory tract irritant; [HSDB] Very toxic by inhalation; [CAMEO] Reacts violently with water; [MSDSonline] See \"Boron trifluoride.\"",
        "links": [],
        "cross_references": [
          {
            "type": "name_match",
            "text": "boron trifluoride",
            "confidence": 1.0,
            "uuid": "c55f73da-b5a4-492a-81d6-66cc6d2edaea",
            "name": "Boron trifluoride",
            "url": "https://haz-map.com/Agents/313",
            "category": "agents"
          },
          {
            "type": "name_match",
            "text": "mica",
            "confidence": 1.0,
            "uuid": "433f26f1-c399-4596-b179-ce3843cfd465",
            "name": "Mica",
            "url": "https://haz-map.com/Agents/621",
            "category": "agents"
          },
          {
            "type": "name_match",
            "text": "boron",
            "confidence": 1.0,
            "uuid": "539de4b5-2187-4144-ac60-98c577b00bca",
            "name": "Boron",
            "url": "https://haz-map.com/Agents/2001",
            "category": "agents"
          },
          {
            "type": "name_match",
            "text": "water",
            "confidence": 1.0,
            "uuid": "6f2a7557-dfd2-49bc-9b4b-a93cd8e225d4",
            "name": "Water",
            "url": "https://haz-map.com/Agents/18668",
            "category": "agents"
          }
        ]
      },
      "biomedical_references": {
        "original_name": "Biomedical References",
        "value": "Search PubMed",
        "links": [
          {
            "text": "Search PubMed",
            "url": "https://www.ncbi.nlm.nih.gov/pubmed?term=Boron+trifluoride+dimethyl+etherate%20AND%20human%5Bmh%5D%20AND%20%28Occupational%20Diseases%20%5Bmh%5D%20OR%20Occupational%20Exposure%20%5Bmh%5D%29%20%20AND%20%28tox%5Bsb%5D%29&cmd=search"
          }
        ],
        "cross_references": []
      }
    },
    "exposure_assessment": {
      "tlv_acgih": {
        "original_name": "TLV (ACGIH)",
        "value": "0.1 ppm, as BF3",
        "links": [],
        "cross_references": []
      },
      "ceiling_acgih": {
        "original_name": "Ceiling (ACGIH)",
        "value": "0.7 ppm",
        "links": [],
        "cross_references": []
      },
      "vapor_pressure": {
        "original_name": "Vapor Pressure",
        "value": "17.3 mm Hg",
        "links": [],
        "cross_references": []
      },
      "lethal_concentration": {
        "original_name": "Lethal Concentration",
        "value": "LCLo (guinea pigs) = 50 ppm/4h",
        "links": [],
        "cross_references": []
      },
      "explanatory_notes": {
        "original_name": "Explanatory Notes",
        "value": "Flash point = 62 deg C; Explosive limits by volume in air: lower (6.4%); upper (21.6%); [ACGIH]",
        "links": [],
        "cross_references": [
          {
            "type": "name_match",
            "text": "ash",
            "confidence": 1.0,
            "uuid": "68b360f1-5ad0-4337-bea0-d7adca2961b5",
            "name": "Ash",
            "url": "https://haz-map.com/Agents/965",
            "category": "agents"
          }
        ]
      },
      "nfpa": {
        "original_name": "NFPA",
        "value": "high ambient temp required",
        "links": [],
        "cross_references": []
      }
    },
    "adverse_effects": {
      "toxic_pneumonitis": {
        "original_name": "Toxic Pneumonitis",
        "value": "Yes",
        "links": [],
        "cross_references": []
      },
      "dermatotoxin": {
        "original_name": "Dermatotoxin",
        "value": "Skin burns",
        "links": [],
        "cross_references": [
          {
            "type": "name_match",
            "text": "burn",
            "confidence": 1.0,
            "uuid": "63665de5-6376-4918-8dbf-4c10c4d63837",
            "name": "burn",
            "url": "https://haz-map.com/Findings/204",
            "category": "findings"
          }
        ]
      }
    },
    "diseases_processes_and_activities_linked_to_this_agent": {
      "other_information": {
        "original_name": "Other Information",
        "value": "No other related information on this agent was found.",
        "links": [],
        "cross_references": []
      }
    }
  },
  "cross_references": [
    {
      "type": "name_match",
      "text": "burn",
      "confidence": 1.0,
      "uuid": "63665de5-6376-4918-8dbf-4c10c4d63837",
      "name": "burn",
      "url": "https://haz-map.com/Findings/204",
      "category": "findings"
    },
    {
      "type": "name_match",
      "text": "boron trifluoride",
      "confidence": 1.0,
      "uuid": "c55f73da-b5a4-492a-81d6-66cc6d2edaea",
      "name": "Boron trifluoride",
      "url": "https://haz-map.com/Agents/313",
      "category": "agents"
    },
    {
      "type": "name_match",
      "text": "ethyl ether",
      "confidence": 1.0,
      "uuid": "c95edddc-9ad3-44f8-bafa-78e0bd19db3a",
      "name": "Ethyl ether",
      "url": "https://haz-map.com/Agents/455",
      "category": "agents"
    },
    {
      "type": "name_match",
      "text": "mica",
      "confidence": 1.0,
      "uuid": "433f26f1-c399-4596-b179-ce3843cfd465",
      "name": "Mica",
      "url": "https://haz-map.com/Agents/621",
      "category": "agents"
    },
    {
      "type": "name_match",
      "text": "ash",
      "confidence": 1.0,
      "uuid": "68b360f1-5ad0-4337-bea0-d7adca2961b5",
      "name": "Ash",
      "url": "https://haz-map.com/Agents/965",
      "category": "agents"
    },
    {
      "type": "name_match",
      "text": "methane",
      "confidence": 1.0,
      "uuid": "5018bf73-24be-4353-8643-c351d5f52186",
      "name": "Methane",
      "url": "https://haz-map.com/Agents/1074",
      "category": "agents"
    },
    {
      "type": "name_match",
      "text": "ethane",
      "confidence": 1.0,
      "uuid": "5162cc8c-dfb9-4060-81ac-38a8cec7f9dd",
      "name": "Ethane",
      "url": "https://haz-map.com/Agents/1075",
      "category": "agents"
    },
    {
      "type": "name_match",
      "text": "dimethyl ether",
      "confidence": 1.0,
      "uuid": "a12a0b82-a115-4243-98a7-3e9a2c4700ed",
      "name": "Dimethyl ether",
      "url": "https://haz-map.com/Agents/1483",
      "category": "agents"
    },
    {
      "type": "name_match",
      "text": "boron",
      "confidence": 1.0,
      "uuid": "539de4b5-2187-4144-ac60-98c577b00bca",
      "name": "Boron",
      "url": "https://haz-map.com/Agents/2001",
      "category": "agents"
    },
    {
      "type": "name_match",
      "text": "boron trifluoride dimethyl etherate",
      "confidence": 1.0,
      "uuid": "04649e20-df1b-4a60-9727-cf3733f389d0",
      "name": "Boron trifluoride dimethyl etherate",
      "url": "https://haz-map.com/Agents/8027",
      "category": "agents"
    },
    {
      "type": "name_match",
      "text": "borane",
      "confidence": 1.0,
      "uuid": "a5e38655-49dd-4cdf-bbc0-f37c42350b45",
      "name": "Borane",
      "url": "https://haz-map.com/Agents/8317",
      "category": "agents"
    },
    {
      "type": "name_match",
      "text": "water",
      "confidence": 1.0,
      "uuid": "6f2a7557-dfd2-49bc-9b4b-a93cd8e225d4",
      "name": "Water",
      "url": "https://haz-map.com/Agents/18668",
      "category": "agents"
    },
    {
      "type": "fuzzy_match",
      "text": "organic compounds",
      "matched_name": "Tin, organic compounds",
      "confidence": 0.8196969696969697,
      "uuid": "e027d413-8869-4308-9eb2-27d768b011ea",
      "category": "agents",
      "url": "https://haz-map.com/Agents/656"
    }
  ],
  "all_links": [
    {
      "text": "Search PubMed",
      "url": "https://www.ncbi.nlm.nih.gov/pubmed?term=Boron+trifluoride+dimethyl+etherate%20AND%20human%5Bmh%5D%20AND%20%28Occupational%20Diseases%20%5Bmh%5D%20OR%20Occupational%20Exposure%20%5Bmh%5D%29%20%20AND%20%28tox%5Bsb%5D%29&cmd=search"
    }
  ]
}