{
  "metadata": {
    "scraped_from": "https://haz-map.com/Agents/6281",
    "entity_name": "Nabam",
    "category": "agents",
    "uuid": "04c17616-1193-4e28-b190-86cbbf712001",
    "scraped_at": "2025-07-23T20:00:39.258215"
  },
  "parsed_at": "2025-07-24T01:02:56.386084",
  "title": "Nabam",
  "sections": {
    "general": {
      "agent_name": {
        "original_name": "Agent Name",
        "value": "Nabam",
        "links": [],
        "cross_references": [
          {
            "type": "name_match",
            "text": "nabam",
            "confidence": 1.0,
            "uuid": "04c17616-1193-4e28-b190-86cbbf712001",
            "name": "Nabam",
            "url": "https://haz-map.com/Agents/6281",
            "category": "agents"
          }
        ]
      },
      "cas_number": {
        "original_name": "CAS Number",
        "value": "142-59-6",
        "links": [],
        "cross_references": []
      },
      "formula": {
        "original_name": "Formula",
        "value": "C4-H8-N2-S4.2Na",
        "links": [],
        "cross_references": []
      },
      "major_category": {
        "original_name": "Major Category",
        "value": "Pesticides",
        "links": [],
        "cross_references": []
      },
      "synonyms": {
        "original_name": "Synonyms",
        "value": "1,2-Ethanediylbiscarbamodithioic acid disodium salt; Chem BAM; DSE; Di-natrium-aethylenbisdithiocarbamat [German]; Dinatrium-(N,N'-aethylen-bis(dithiocarbamat)) [German]; Dinatrium-(N,N'-ethyleen-bis(dithiocarbamaat)) [Dutch]; Disodium 1,2-ethanediylbis (carbamodithioate); Disodium ethylene-1,2-bisdithiocarbamate; Disodium ethylenebis(dithiocarbamate); Dithane A-40; Dithane D-14; Dithane D-14 (Discontinued); ENT 9106; Ethylen-bis-dithiokarbaman sodny [Czech]; Ethylenebis(dithiocarbamate), disodium salt; Ethylenebis(dithiocarbamic acid) disodium salt; N,N'-Ethylene bis(dithiocarbamate de sodium) [French]; N,N'-Etilen-bis(ditiocarbammato) di sodio [Italian]; Nabame [ISO-French]; Nabasan [discontinued]; Nafun IPO; Parzate; Parzate liquid; Sodium ethylenebis(dithiocarbamate); Spring-bak; X-Spor; Ethylenebis(dithiocarbamate) sodium; [ChemIDplus] UN2771",
        "links": [],
        "cross_references": [
          {
            "type": "name_match",
            "text": "ethane",
            "confidence": 1.0,
            "uuid": "5162cc8c-dfb9-4060-81ac-38a8cec7f9dd",
            "name": "Ethane",
            "url": "https://haz-map.com/Agents/1075",
            "category": "agents"
          },
          {
            "type": "name_match",
            "text": "ethylene",
            "confidence": 1.0,
            "uuid": "958eacc0-5135-4b62-bb93-6df972bf552f",
            "name": "Ethylene",
            "url": "https://haz-map.com/Agents/1076",
            "category": "agents"
          },
          {
            "type": "name_match",
            "text": "tali",
            "confidence": 1.0,
            "uuid": "8c3a0f99-2143-4122-b539-ec5cc49596b0",
            "name": "Tali",
            "url": "https://haz-map.com/Agents/1128",
            "category": "agents"
          },
          {
            "type": "name_match",
            "text": "sodium",
            "confidence": 1.0,
            "uuid": "1adffc42-a4d8-44d5-81d6-7dbd96ef8a6f",
            "name": "Sodium",
            "url": "https://haz-map.com/Agents/1527",
            "category": "agents"
          },
          {
            "type": "name_match",
            "text": "nabam",
            "confidence": 1.0,
            "uuid": "04c17616-1193-4e28-b190-86cbbf712001",
            "name": "Nabam",
            "url": "https://haz-map.com/Agents/6281",
            "category": "agents"
          }
        ]
      },
      "category": {
        "original_name": "Category",
        "value": "Dithiocarbamates (Pesticide)",
        "links": [],
        "cross_references": []
      },
      "description": {
        "original_name": "Description",
        "value": "Colorless solid; [Hawley] White crystalline solid; [MSDSonline]",
        "links": [],
        "cross_references": [
          {
            "type": "fuzzy_match",
            "text": "crystalline",
            "matched_name": "Silica, crystalline",
            "confidence": 0.7061403508771931,
            "uuid": "f920e8a2-46df-41b7-af8d-0368a777251e",
            "category": "agents",
            "url": "https://haz-map.com/Agents/427"
          }
        ]
      },
      "sourcesuses": {
        "original_name": "Sources/Uses",
        "value": "Used as fungicide for agriculture and in leather industry; to make other fungicides such as Zineb, Maneb, Dithane m-45, and Manzate 200; as cooling-water slimicide; Not currently registered with the EPA for use in the US; [HSDB] Used as biocide in pulp and paper mills; [Merck Index] Has repellent effects on plant-eating Japanese beetles; [Ullmann] No longer used in agriculture; [Krieger, p. 1689] Registered for use to control algae and slime-forming bacteria and fungi in industrial water systems including pulp/paper mills and cane and beet sugar processing systems; [Reference #1]",
        "links": [],
        "cross_references": [
          {
            "type": "name_match",
            "text": "fungicides",
            "confidence": 1.0,
            "uuid": "f4a9c1e1-4d57-4480-be97-d3590d38ce39",
            "name": "FUNGICIDES",
            "url": "https://haz-map.com/Agents/763",
            "category": "agents"
          },
          {
            "type": "name_match",
            "text": "maneb",
            "confidence": 1.0,
            "uuid": "c5da1859-a896-4c85-8f7e-1b7f21c20e67",
            "name": "Maneb",
            "url": "https://haz-map.com/Agents/822",
            "category": "agents"
          },
          {
            "type": "name_match",
            "text": "zineb",
            "confidence": 1.0,
            "uuid": "3e1c13ec-ad8b-4f60-9730-44f2647721cd",
            "name": "Zineb",
            "url": "https://haz-map.com/Agents/824",
            "category": "agents"
          },
          {
            "type": "name_match",
            "text": "beetles",
            "confidence": 1.0,
            "uuid": "44c69fd7-a131-4096-9887-460d05d01a06",
            "name": "Beetles",
            "url": "https://haz-map.com/Agents/1215",
            "category": "agents"
          },
          {
            "type": "name_match",
            "text": "fungi",
            "confidence": 1.0,
            "uuid": "e0d489cb-bfee-4aee-b665-999c017268a2",
            "name": "Fungi",
            "url": "https://haz-map.com/Agents/1988",
            "category": "agents"
          },
          {
            "type": "name_match",
            "text": "water",
            "confidence": 1.0,
            "uuid": "6f2a7557-dfd2-49bc-9b4b-a93cd8e225d4",
            "name": "Water",
            "url": "https://haz-map.com/Agents/18668",
            "category": "agents"
          }
        ]
      },
      "comments": {
        "original_name": "Comments",
        "value": "A skin and mucous membrane irritant; CNS depressant at high concentrations; [Hawley] A skin, eye, and mucous membrane irritant; [HSDB] A skin and eye irritant; May cause skin sensitization; [CAMEO] A respiratory tract irritant; May cause skin sensitization; [eChemPortal: ESIS] Etheylene thiourea (ETU) is a metabolite. [Reference #1] Several of the dialkyldithiocarbamates are known skin sensitizers; See \"Ethylene thiourea.\" See \"Carba mix.\"",
        "links": [],
        "cross_references": [
          {
            "type": "name_match",
            "text": "ethylene thiourea",
            "confidence": 1.0,
            "uuid": "ca84d255-5e4f-41d1-a0ea-d920c88b17e9",
            "name": "Ethylene thiourea",
            "url": "https://haz-map.com/Agents/409",
            "category": "agents"
          },
          {
            "type": "name_match",
            "text": "carba mix",
            "confidence": 1.0,
            "uuid": "b8a089f8-1652-4bc7-9d2c-e82a440626d6",
            "name": "Carba mix",
            "url": "https://haz-map.com/Agents/846",
            "category": "agents"
          },
          {
            "type": "name_match",
            "text": "thiourea",
            "confidence": 1.0,
            "uuid": "9d84caab-5d53-428a-985f-be88dd4db13f",
            "name": "Thiourea",
            "url": "https://haz-map.com/Agents/998",
            "category": "agents"
          },
          {
            "type": "name_match",
            "text": "ethylene",
            "confidence": 1.0,
            "uuid": "958eacc0-5135-4b62-bb93-6df972bf552f",
            "name": "Ethylene",
            "url": "https://haz-map.com/Agents/1076",
            "category": "agents"
          },
          {
            "type": "name_match",
            "text": "urea",
            "confidence": 1.0,
            "uuid": "a92a6129-bddd-4f79-9a78-136812ae610f",
            "name": "Urea",
            "url": "https://haz-map.com/Agents/2078",
            "category": "agents"
          }
        ]
      },
      "reference_link_1": {
        "original_name": "Reference Link #1",
        "value": "EPA Pesticide Chemical Search",
        "links": [
          {
            "text": "EPA Pesticide Chemical Search",
            "url": "https://iaspub.epa.gov/apex/pesticides/f?p=CHEMICALSEARCH:1:"
          }
        ],
        "cross_references": [
          {
            "type": "name_match",
            "text": "mica",
            "confidence": 1.0,
            "uuid": "433f26f1-c399-4596-b179-ce3843cfd465",
            "name": "Mica",
            "url": "https://haz-map.com/Agents/621",
            "category": "agents"
          }
        ]
      },
      "biomedical_references": {
        "original_name": "Biomedical References",
        "value": "Search PubMed",
        "links": [
          {
            "text": "Search PubMed",
            "url": "https://www.ncbi.nlm.nih.gov/pubmed?term=Nabam%20AND%20human%5Bmh%5D%20AND%20%28Occupational%20Diseases%20%5Bmh%5D%20OR%20Occupational%20Exposure%20%5Bmh%5D%29%20%20AND%20%28tox%5Bsb%5D%29&cmd=search"
          }
        ],
        "cross_references": []
      }
    },
    "exposure_assessment": {
      "vapor_pressure": {
        "original_name": "Vapor Pressure",
        "value": "9.48E-13 mm Hg",
        "links": [],
        "cross_references": []
      },
      "explanatory_notes": {
        "original_name": "Explanatory Notes",
        "value": "The Guide in the Emergency Response Guidebook is for \"Thiocarbamate pesticide, solid, toxic.\"",
        "links": [],
        "cross_references": []
      }
    },
    "adverse_effects": {
      "skin_sensitizer": {
        "original_name": "Skin Sensitizer",
        "value": "Yes",
        "links": [],
        "cross_references": []
      }
    },
    "diseases_processes_and_activities_linked_to_this_agent": {
      "diseases": {
        "original_name": "Diseases",
        "value": "Occupational diseases associated with exposure to this agent: Contact dermatitis, allergic",
        "links": [
          {
            "text": "Contact dermatitis, allergic",
            "url": "https://haz-map.com/Diseases/18"
          }
        ],
        "cross_references": [
          {
            "type": "url_match",
            "text": "Contact dermatitis, allergic",
            "url": "https://haz-map.com/Diseases/18",
            "confidence": 1.0,
            "uuid": "c9499de0-9aa1-41bf-8753-cd5b28a63e29",
            "name": "Contact dermatitis, allergic",
            "category": "diseases"
          },
          {
            "type": "name_match",
            "text": "dermatitis",
            "confidence": 1.0,
            "uuid": "fe9c05f2-b19f-4ceb-ac7a-ffb7d7a0cae0",
            "name": "dermatitis",
            "url": "https://haz-map.com/Findings/59",
            "category": "findings"
          }
        ]
      },
      "processes": {
        "original_name": "Processes",
        "value": "Industrial Processes with risk of exposure: Farming (Pesticides) Leather Tanning and Processing Pulp and Paper Processing",
        "links": [
          {
            "text": "Farming (Pesticides)",
            "url": "https://haz-map.com/Processes/218"
          },
          {
            "text": "Leather Tanning and Processing",
            "url": "https://haz-map.com/Processes/230"
          },
          {
            "text": "Pulp and Paper Processing",
            "url": "https://haz-map.com/Processes/132"
          }
        ],
        "cross_references": [
          {
            "type": "url_match",
            "text": "Farming (Pesticides)",
            "url": "https://haz-map.com/Processes/218",
            "confidence": 1.0,
            "uuid": "cf1e5815-c9bb-4917-82a5-391848170b7e",
            "name": "Farming (Pesticides)",
            "category": "processes"
          },
          {
            "type": "url_match",
            "text": "Pulp and Paper Processing",
            "url": "https://haz-map.com/Processes/132",
            "confidence": 1.0,
            "uuid": "30075079-d057-47e2-a7d8-e89bfc59d8df",
            "name": "Pulp and Paper Processing",
            "category": "processes"
          }
        ]
      }
    }
  },
  "cross_references": [
    {
      "type": "url_match",
      "text": "Contact dermatitis, allergic",
      "url": "https://haz-map.com/Diseases/18",
      "confidence": 1.0,
      "uuid": "c9499de0-9aa1-41bf-8753-cd5b28a63e29",
      "name": "Contact dermatitis, allergic",
      "category": "diseases"
    },
    {
      "type": "url_match",
      "text": "Farming (Pesticides)",
      "url": "https://haz-map.com/Processes/218",
      "confidence": 1.0,
      "uuid": "cf1e5815-c9bb-4917-82a5-391848170b7e",
      "name": "Farming (Pesticides)",
      "category": "processes"
    },
    {
      "type": "url_match",
      "text": "Pulp and Paper Processing",
      "url": "https://haz-map.com/Processes/132",
      "confidence": 1.0,
      "uuid": "30075079-d057-47e2-a7d8-e89bfc59d8df",
      "name": "Pulp and Paper Processing",
      "category": "processes"
    },
    {
      "type": "name_match",
      "text": "dermatitis",
      "confidence": 1.0,
      "uuid": "fe9c05f2-b19f-4ceb-ac7a-ffb7d7a0cae0",
      "name": "dermatitis",
      "url": "https://haz-map.com/Findings/59",
      "category": "findings"
    },
    {
      "type": "name_match",
      "text": "ethylene thiourea",
      "confidence": 1.0,
      "uuid": "ca84d255-5e4f-41d1-a0ea-d920c88b17e9",
      "name": "Ethylene thiourea",
      "url": "https://haz-map.com/Agents/409",
      "category": "agents"
    },
    {
      "type": "name_match",
      "text": "mica",
      "confidence": 1.0,
      "uuid": "433f26f1-c399-4596-b179-ce3843cfd465",
      "name": "Mica",
      "url": "https://haz-map.com/Agents/621",
      "category": "agents"
    },
    {
      "type": "name_match",
      "text": "fungicides",
      "confidence": 1.0,
      "uuid": "f4a9c1e1-4d57-4480-be97-d3590d38ce39",
      "name": "FUNGICIDES",
      "url": "https://haz-map.com/Agents/763",
      "category": "agents"
    },
    {
      "type": "name_match",
      "text": "maneb",
      "confidence": 1.0,
      "uuid": "c5da1859-a896-4c85-8f7e-1b7f21c20e67",
      "name": "Maneb",
      "url": "https://haz-map.com/Agents/822",
      "category": "agents"
    },
    {
      "type": "name_match",
      "text": "zineb",
      "confidence": 1.0,
      "uuid": "3e1c13ec-ad8b-4f60-9730-44f2647721cd",
      "name": "Zineb",
      "url": "https://haz-map.com/Agents/824",
      "category": "agents"
    },
    {
      "type": "name_match",
      "text": "carba mix",
      "confidence": 1.0,
      "uuid": "b8a089f8-1652-4bc7-9d2c-e82a440626d6",
      "name": "Carba mix",
      "url": "https://haz-map.com/Agents/846",
      "category": "agents"
    },
    {
      "type": "name_match",
      "text": "thiourea",
      "confidence": 1.0,
      "uuid": "9d84caab-5d53-428a-985f-be88dd4db13f",
      "name": "Thiourea",
      "url": "https://haz-map.com/Agents/998",
      "category": "agents"
    },
    {
      "type": "name_match",
      "text": "ethane",
      "confidence": 1.0,
      "uuid": "5162cc8c-dfb9-4060-81ac-38a8cec7f9dd",
      "name": "Ethane",
      "url": "https://haz-map.com/Agents/1075",
      "category": "agents"
    },
    {
      "type": "name_match",
      "text": "ethylene",
      "confidence": 1.0,
      "uuid": "958eacc0-5135-4b62-bb93-6df972bf552f",
      "name": "Ethylene",
      "url": "https://haz-map.com/Agents/1076",
      "category": "agents"
    },
    {
      "type": "name_match",
      "text": "tali",
      "confidence": 1.0,
      "uuid": "8c3a0f99-2143-4122-b539-ec5cc49596b0",
      "name": "Tali",
      "url": "https://haz-map.com/Agents/1128",
      "category": "agents"
    },
    {
      "type": "name_match",
      "text": "beetles",
      "confidence": 1.0,
      "uuid": "44c69fd7-a131-4096-9887-460d05d01a06",
      "name": "Beetles",
      "url": "https://haz-map.com/Agents/1215",
      "category": "agents"
    },
    {
      "type": "name_match",
      "text": "sodium",
      "confidence": 1.0,
      "uuid": "1adffc42-a4d8-44d5-81d6-7dbd96ef8a6f",
      "name": "Sodium",
      "url": "https://haz-map.com/Agents/1527",
      "category": "agents"
    },
    {
      "type": "name_match",
      "text": "fungi",
      "confidence": 1.0,
      "uuid": "e0d489cb-bfee-4aee-b665-999c017268a2",
      "name": "Fungi",
      "url": "https://haz-map.com/Agents/1988",
      "category": "agents"
    },
    {
      "type": "name_match",
      "text": "urea",
      "confidence": 1.0,
      "uuid": "a92a6129-bddd-4f79-9a78-136812ae610f",
      "name": "Urea",
      "url": "https://haz-map.com/Agents/2078",
      "category": "agents"
    },
    {
      "type": "name_match",
      "text": "nabam",
      "confidence": 1.0,
      "uuid": "04c17616-1193-4e28-b190-86cbbf712001",
      "name": "Nabam",
      "url": "https://haz-map.com/Agents/6281",
      "category": "agents"
    },
    {
      "type": "name_match",
      "text": "water",
      "confidence": 1.0,
      "uuid": "6f2a7557-dfd2-49bc-9b4b-a93cd8e225d4",
      "name": "Water",
      "url": "https://haz-map.com/Agents/18668",
      "category": "agents"
    },
    {
      "type": "fuzzy_match",
      "text": "crystalline",
      "matched_name": "Silica, crystalline",
      "confidence": 0.7061403508771931,
      "uuid": "f920e8a2-46df-41b7-af8d-0368a777251e",
      "category": "agents",
      "url": "https://haz-map.com/Agents/427"
    }
  ],
  "all_links": [
    {
      "text": "EPA Pesticide Chemical Search",
      "url": "https://iaspub.epa.gov/apex/pesticides/f?p=CHEMICALSEARCH:1:"
    },
    {
      "text": "Search PubMed",
      "url": "https://www.ncbi.nlm.nih.gov/pubmed?term=Nabam%20AND%20human%5Bmh%5D%20AND%20%28Occupational%20Diseases%20%5Bmh%5D%20OR%20Occupational%20Exposure%20%5Bmh%5D%29%20%20AND%20%28tox%5Bsb%5D%29&cmd=search"
    },
    {
      "text": "Contact dermatitis, allergic",
      "url": "https://haz-map.com/Diseases/18"
    },
    {
      "text": "Farming (Pesticides)",
      "url": "https://haz-map.com/Processes/218"
    },
    {
      "text": "Leather Tanning and Processing",
      "url": "https://haz-map.com/Processes/230"
    },
    {
      "text": "Pulp and Paper Processing",
      "url": "https://haz-map.com/Processes/132"
    }
  ]
}