{
  "metadata": {
    "scraped_from": "https://haz-map.com/Agents/14817",
    "entity_name": "Hydroxocobalamin",
    "category": "agents",
    "uuid": "04c39fbb-3093-4a84-a89e-ad6416cbf057",
    "scraped_at": "2025-07-23T21:26:37.397309"
  },
  "parsed_at": "2025-07-24T01:15:53.580442",
  "title": "Hydroxocobalamin",
  "sections": {
    "general": {
      "agent_name": {
        "original_name": "Agent Name",
        "value": "Hydroxocobalamin",
        "links": [],
        "cross_references": [
          {
            "type": "name_match",
            "text": "hydroxocobalamin",
            "confidence": 1.0,
            "uuid": "04c39fbb-3093-4a84-a89e-ad6416cbf057",
            "name": "Hydroxocobalamin",
            "url": "https://haz-map.com/Agents/14817",
            "category": "agents"
          }
        ]
      },
      "cas_number": {
        "original_name": "CAS Number",
        "value": "13422-51-0",
        "links": [],
        "cross_references": []
      },
      "formula": {
        "original_name": "Formula",
        "value": "C62-H89-Co-N13-O15-P",
        "links": [],
        "cross_references": []
      },
      "major_category": {
        "original_name": "Major Category",
        "value": "Biological Agents",
        "links": [],
        "cross_references": []
      },
      "synonyms": {
        "original_name": "Synonyms",
        "value": "AlphaRedisol; Axion; Axlon; Ciplamin H; Cobalamin, hydroxo-; Cobalex; Cobinamide dihydroxide dihydrogen phosphate (ester), mono(inner salt), 3'-ester with 5,6-dimethyl-1-alpha-D-ribofuranosylbenzimidazole; Cobinamide hydroxide phosphate 3'-ester with 5,6-dimethyl-1-alpha-D-ribofuranosylbenzimidazole inner salt; Cobinamide, dihydroxide, dihydrogen phosphate (ester), mono(inner salt), 3'-ester with 5,6-dimethyl-1-alpha-D-ribofuranosyl-1H-benzimidazole; Codroxomin; Cyanokit; Depogamma; Docclan; Docelan; Docelvita; Docevita; Ducobee-Hy; Duradoce; Duralta-12; Hidroxocobalamina [INN-Spanish]; Hydrobamine; Hydrocobalamin; Hydrogrisevit; Hydrovit; Hydroxocobalamine [INN-French]; Hydroxocobalaminum [INN-Latin]; Hydroxocobemine; Hydroxomin; Hydroxy vitamin B12; Hydroxycobalamin; Hydroxycobalamine; Hyxobamine; Idrogrisevit; Idrossocobalamina [DCIT]; Lyovit-H; Neo-Betalin 12; Neo-Cytamen; Neo-Macrabin; Neo-Rojamin; OH-Duphar; Ohb12; Oxobemin; Oxolamine (arcum); Primabalt RP; Redisol-H; Sytobex-H; Vibeden; Vitadurin; Vitamin B(sub 12a); Vitamin B12a; alpha Cobione; alpha-(5,6-Dimethylbenzimidazolyl)hydroxocobamide; Cobinamide, Co-hydroxy-, f-(dihydrogen phosphate), inner salt, 3'-ester with (5,6-dimethyl-1-alpha-D-ribofuranosyl-1H-benzimidazole-kappaN3); Cobinamide, dihydroxide, dihydrogen phosphate (ester), mono (inner salt), 3'- ester with 5,6-dimethyl-1-alpha-D-ribofuranosylbenzimidazole; Cobinamide, hydroxide, dihydrogen phosphate (ester), inner salt, 3'-ester with 5,6-dimethyl-1-alpha-D-ribofuranosyl-1H-benzimidazole; [ChemIDplus]",
        "links": [],
        "cross_references": [
          {
            "type": "name_match",
            "text": "hydrogen",
            "confidence": 1.0,
            "uuid": "e2d9645f-5559-4d88-b820-fc4710c154f2",
            "name": "Hydrogen",
            "url": "https://haz-map.com/Agents/1070",
            "category": "agents"
          },
          {
            "type": "name_match",
            "text": "tali",
            "confidence": 1.0,
            "uuid": "8c3a0f99-2143-4122-b539-ec5cc49596b0",
            "name": "Tali",
            "url": "https://haz-map.com/Agents/1128",
            "category": "agents"
          },
          {
            "type": "name_match",
            "text": "furan",
            "confidence": 1.0,
            "uuid": "96da3d2e-f46b-4100-9000-704d1a86985b",
            "name": "Furan",
            "url": "https://haz-map.com/Agents/1477",
            "category": "agents"
          },
          {
            "type": "name_match",
            "text": "benzimidazole",
            "confidence": 1.0,
            "uuid": "c4af891e-415a-4fdf-bd5d-ad91665b9cca",
            "name": "Benzimidazole",
            "url": "https://haz-map.com/Agents/3848",
            "category": "agents"
          },
          {
            "type": "name_match",
            "text": "hydroxocobalamin",
            "confidence": 1.0,
            "uuid": "04c39fbb-3093-4a84-a89e-ad6416cbf057",
            "name": "Hydroxocobalamin",
            "url": "https://haz-map.com/Agents/14817",
            "category": "agents"
          },
          {
            "type": "name_match",
            "text": "vitamin b12",
            "confidence": 1.0,
            "uuid": "54c1c27b-621a-482e-a4ef-a016491e3b50",
            "name": "Vitamin B12",
            "url": "https://haz-map.com/Agents/18656",
            "category": "agents"
          },
          {
            "type": "name_match",
            "text": "imidazole",
            "confidence": 1.0,
            "uuid": "c328c03e-2b26-487b-8c01-799a91dd318e",
            "name": "Imidazole",
            "url": "https://haz-map.com/Agents/18775",
            "category": "agents"
          }
        ]
      },
      "category": {
        "original_name": "Category",
        "value": "Vitamins and Derivatives",
        "links": [],
        "cross_references": []
      },
      "description": {
        "original_name": "Description",
        "value": "Dark red solid; [Merck Index] Odorless or with a slight odor of acetone; [HSDB]",
        "links": [],
        "cross_references": [
          {
            "type": "name_match",
            "text": "acetone",
            "confidence": 1.0,
            "uuid": "31b7bdae-eb37-44cc-9c56-b6dfc1908d64",
            "name": "Acetone",
            "url": "https://haz-map.com/Agents/138",
            "category": "agents"
          },
          {
            "type": "name_match",
            "text": "ht",
            "confidence": 1.0,
            "uuid": "764df367-8d53-4a11-81a2-31ccfe122a8d",
            "name": "HT",
            "url": "https://haz-map.com/Agents/2168",
            "category": "agents"
          }
        ]
      },
      "sourcesuses": {
        "original_name": "Sources/Uses",
        "value": "An analog of vitamin B12; Used as a vitamin (hematopoietic) and as antidote for cyanide poisoning; [Merck Index] The natural form of vitamin B12 produced by bacteria and converted in the body to the natural coenzyme forms of vitamin B12; [Wikipedia]",
        "links": [],
        "cross_references": [
          {
            "type": "name_match",
            "text": "cyanide",
            "confidence": 1.0,
            "uuid": "0b4d38ba-cc5c-4386-8079-9e7ff8fb2d3a",
            "name": "Cyanide",
            "url": "https://haz-map.com/Agents/13350",
            "category": "agents"
          },
          {
            "type": "name_match",
            "text": "vitamin b12",
            "confidence": 1.0,
            "uuid": "54c1c27b-621a-482e-a4ef-a016491e3b50",
            "name": "Vitamin B12",
            "url": "https://haz-map.com/Agents/18656",
            "category": "agents"
          }
        ]
      },
      "comments": {
        "original_name": "Comments",
        "value": "May cause irritation and skin sensitization; [Spectrum MSDS] See \"Vitamin B12.\"",
        "links": [],
        "cross_references": [
          {
            "type": "name_match",
            "text": "vitamin b12",
            "confidence": 1.0,
            "uuid": "54c1c27b-621a-482e-a4ef-a016491e3b50",
            "name": "Vitamin B12",
            "url": "https://haz-map.com/Agents/18656",
            "category": "agents"
          }
        ]
      },
      "biomedical_references": {
        "original_name": "Biomedical References",
        "value": "Search PubMed",
        "links": [
          {
            "text": "Search PubMed",
            "url": "https://www.ncbi.nlm.nih.gov/pubmed?term=Hydroxocobalamin%20AND%20human%5Bmh%5D%20AND%20%28Occupational%20Diseases%20%5Bmh%5D%20OR%20Occupational%20Exposure%20%5Bmh%5D%29%20%20AND%20%28tox%5Bsb%5D%29&cmd=search"
          }
        ],
        "cross_references": []
      }
    },
    "exposure_assessment": {
      "vapor_pressure": {
        "original_name": "Vapor Pressure",
        "value": "2.06E-11 mm Hg",
        "links": [],
        "cross_references": []
      }
    },
    "diseases_processes_and_activities_linked_to_this_agent": {
      "other_information": {
        "original_name": "Other Information",
        "value": "No other related information on this agent was found.",
        "links": [],
        "cross_references": []
      }
    }
  },
  "cross_references": [
    {
      "type": "name_match",
      "text": "acetone",
      "confidence": 1.0,
      "uuid": "31b7bdae-eb37-44cc-9c56-b6dfc1908d64",
      "name": "Acetone",
      "url": "https://haz-map.com/Agents/138",
      "category": "agents"
    },
    {
      "type": "name_match",
      "text": "hydrogen",
      "confidence": 1.0,
      "uuid": "e2d9645f-5559-4d88-b820-fc4710c154f2",
      "name": "Hydrogen",
      "url": "https://haz-map.com/Agents/1070",
      "category": "agents"
    },
    {
      "type": "name_match",
      "text": "tali",
      "confidence": 1.0,
      "uuid": "8c3a0f99-2143-4122-b539-ec5cc49596b0",
      "name": "Tali",
      "url": "https://haz-map.com/Agents/1128",
      "category": "agents"
    },
    {
      "type": "name_match",
      "text": "furan",
      "confidence": 1.0,
      "uuid": "96da3d2e-f46b-4100-9000-704d1a86985b",
      "name": "Furan",
      "url": "https://haz-map.com/Agents/1477",
      "category": "agents"
    },
    {
      "type": "name_match",
      "text": "ht",
      "confidence": 1.0,
      "uuid": "764df367-8d53-4a11-81a2-31ccfe122a8d",
      "name": "HT",
      "url": "https://haz-map.com/Agents/2168",
      "category": "agents"
    },
    {
      "type": "name_match",
      "text": "benzimidazole",
      "confidence": 1.0,
      "uuid": "c4af891e-415a-4fdf-bd5d-ad91665b9cca",
      "name": "Benzimidazole",
      "url": "https://haz-map.com/Agents/3848",
      "category": "agents"
    },
    {
      "type": "name_match",
      "text": "cyanide",
      "confidence": 1.0,
      "uuid": "0b4d38ba-cc5c-4386-8079-9e7ff8fb2d3a",
      "name": "Cyanide",
      "url": "https://haz-map.com/Agents/13350",
      "category": "agents"
    },
    {
      "type": "name_match",
      "text": "hydroxocobalamin",
      "confidence": 1.0,
      "uuid": "04c39fbb-3093-4a84-a89e-ad6416cbf057",
      "name": "Hydroxocobalamin",
      "url": "https://haz-map.com/Agents/14817",
      "category": "agents"
    },
    {
      "type": "name_match",
      "text": "vitamin b12",
      "confidence": 1.0,
      "uuid": "54c1c27b-621a-482e-a4ef-a016491e3b50",
      "name": "Vitamin B12",
      "url": "https://haz-map.com/Agents/18656",
      "category": "agents"
    },
    {
      "type": "name_match",
      "text": "imidazole",
      "confidence": 1.0,
      "uuid": "c328c03e-2b26-487b-8c01-799a91dd318e",
      "name": "Imidazole",
      "url": "https://haz-map.com/Agents/18775",
      "category": "agents"
    }
  ],
  "all_links": [
    {
      "text": "Search PubMed",
      "url": "https://www.ncbi.nlm.nih.gov/pubmed?term=Hydroxocobalamin%20AND%20human%5Bmh%5D%20AND%20%28Occupational%20Diseases%20%5Bmh%5D%20OR%20Occupational%20Exposure%20%5Bmh%5D%29%20%20AND%20%28tox%5Bsb%5D%29&cmd=search"
    }
  ]
}