{
  "metadata": {
    "scraped_from": "https://haz-map.com/Agents/1456",
    "entity_name": "Bromobenzyl cyanide",
    "category": "agents",
    "uuid": "04f6b242-a12f-4d02-a58a-95a75d7a6e3b",
    "scraped_at": "2025-07-23T18:59:26.439659"
  },
  "parsed_at": "2025-07-24T00:58:52.527777",
  "title": "Bromobenzyl cyanide",
  "sections": {
    "general": {
      "agent_name": {
        "original_name": "Agent Name",
        "value": "Bromobenzyl cyanide",
        "links": [],
        "cross_references": [
          {
            "type": "name_match",
            "text": "bromobenzyl cyanide",
            "confidence": 1.0,
            "uuid": "04f6b242-a12f-4d02-a58a-95a75d7a6e3b",
            "name": "Bromobenzyl cyanide",
            "url": "https://haz-map.com/Agents/1456",
            "category": "agents"
          },
          {
            "type": "name_match",
            "text": "benzyl cyanide",
            "confidence": 1.0,
            "uuid": "13929a9b-2191-4102-a016-769220aa7659",
            "name": "Benzyl cyanide",
            "url": "https://haz-map.com/Agents/7993",
            "category": "agents"
          },
          {
            "type": "name_match",
            "text": "cyanide",
            "confidence": 1.0,
            "uuid": "0b4d38ba-cc5c-4386-8079-9e7ff8fb2d3a",
            "name": "Cyanide",
            "url": "https://haz-map.com/Agents/13350",
            "category": "agents"
          }
        ]
      },
      "cas_number": {
        "original_name": "CAS Number",
        "value": "5798-79-8",
        "links": [],
        "cross_references": []
      },
      "formula": {
        "original_name": "Formula",
        "value": "C8-H6-Br-N",
        "links": [],
        "cross_references": []
      },
      "major_category": {
        "original_name": "Major Category",
        "value": "Toxic Gases & Vapors",
        "links": [],
        "cross_references": []
      },
      "synonyms": {
        "original_name": "Synonyms",
        "value": "Acetic acid, bromophenyl-, nitrile; Acetonitrile, bromophenyl-; BBC; BBN; Benzeneacetonitrile, alpha-bromo-; Bromobenzylcyanide; Bromobenzylnitrile; CA; CA (Tear gas); Camite; alpha-Brombenzylkyanid [Czech]; alpha-Bromo-alpha-tolunitrile; alpha-Bromobenzeneacetonitrile; alpha-Bromobenzyl cyanide; alpha-Bromophenylacetonitrile; Bromo(phenyl)acetonitrile; [ChemIDplus] UN1694",
        "links": [],
        "cross_references": [
          {
            "type": "name_match",
            "text": "benzene",
            "confidence": 1.0,
            "uuid": "b05124de-5f34-4c14-8f04-ccb20c3780d9",
            "name": "Benzene",
            "url": "https://haz-map.com/Agents/5",
            "category": "agents"
          },
          {
            "type": "name_match",
            "text": "acetonitrile",
            "confidence": 1.0,
            "uuid": "84f1210b-94c6-4b35-8215-ba63f2fe4c64",
            "name": "Acetonitrile",
            "url": "https://haz-map.com/Agents/159",
            "category": "agents"
          },
          {
            "type": "name_match",
            "text": "acetic acid",
            "confidence": 1.0,
            "uuid": "0905c6e4-df84-4895-a92d-658819239bbd",
            "name": "Acetic acid",
            "url": "https://haz-map.com/Agents/207",
            "category": "agents"
          },
          {
            "type": "name_match",
            "text": "tea",
            "confidence": 1.0,
            "uuid": "773409e5-ac1a-4c9e-9470-9667ca82091c",
            "name": "Tea",
            "url": "https://haz-map.com/Agents/878",
            "category": "agents"
          },
          {
            "type": "name_match",
            "text": "bromobenzyl cyanide",
            "confidence": 1.0,
            "uuid": "04f6b242-a12f-4d02-a58a-95a75d7a6e3b",
            "name": "Bromobenzyl cyanide",
            "url": "https://haz-map.com/Agents/1456",
            "category": "agents"
          },
          {
            "type": "name_match",
            "text": "bromobenzene",
            "confidence": 1.0,
            "uuid": "8d6cd7c3-5ba3-4909-b970-bc239418c7f1",
            "name": "Bromobenzene",
            "url": "https://haz-map.com/Agents/1889",
            "category": "agents"
          },
          {
            "type": "name_match",
            "text": "benzyl cyanide",
            "confidence": 1.0,
            "uuid": "13929a9b-2191-4102-a016-769220aa7659",
            "name": "Benzyl cyanide",
            "url": "https://haz-map.com/Agents/7993",
            "category": "agents"
          },
          {
            "type": "name_match",
            "text": "cyanide",
            "confidence": 1.0,
            "uuid": "0b4d38ba-cc5c-4386-8079-9e7ff8fb2d3a",
            "name": "Cyanide",
            "url": "https://haz-map.com/Agents/13350",
            "category": "agents"
          }
        ]
      },
      "category": {
        "original_name": "Category",
        "value": "Tear Gas Agents",
        "links": [],
        "cross_references": [
          {
            "type": "name_match",
            "text": "tea",
            "confidence": 1.0,
            "uuid": "773409e5-ac1a-4c9e-9470-9667ca82091c",
            "name": "Tea",
            "url": "https://haz-map.com/Agents/878",
            "category": "agents"
          }
        ]
      },
      "description": {
        "original_name": "Description",
        "value": "Pale yellow crystals; [CAMEO] Yellowish solid with an odor of soured fruit; mp = 29 deg C; [HSDB] Pure: Yellow to white solid; Impure: Oily brown liquid; [EPA OHM/TADS]",
        "links": [],
        "cross_references": []
      },
      "sourcesuses": {
        "original_name": "Sources/Uses",
        "value": "Used as a war gas and irritant gas for law enforcement; [HSDB]",
        "links": [],
        "cross_references": []
      },
      "comments": {
        "original_name": "Comments",
        "value": "A lachrymator; [HSDB] Exposure to high concentrations may be fatal; [CAMEO] Extremely toxic; 109 ppm is lethal to humans in 5 hours; [EPA OHM/TADS]",
        "links": [],
        "cross_references": []
      },
      "biomedical_references": {
        "original_name": "Biomedical References",
        "value": "Search PubMed",
        "links": [
          {
            "text": "Search PubMed",
            "url": "https://www.ncbi.nlm.nih.gov/pubmed?term=Bromobenzyl+cyanide%20AND%20human%5Bmh%5D%20AND%20%28Occupational%20Diseases%20%5Bmh%5D%20OR%20Occupational%20Exposure%20%5Bmh%5D%29%20%20AND%20%28tox%5Bsb%5D%29&cmd=search"
          }
        ],
        "cross_references": []
      }
    },
    "exposure_assessment": {
      "pel_osha": {
        "original_name": "PEL (OSHA)",
        "value": "5 mg/m3, as CN",
        "links": [],
        "cross_references": []
      },
      "mak": {
        "original_name": "MAK",
        "value": "2 mg/m3, inhalable fraction, as CN",
        "links": [],
        "cross_references": []
      },
      "idlh_niosh": {
        "original_name": "IDLH (NIOSH)",
        "value": "25 mg/m3, as CN",
        "links": [],
        "cross_references": []
      },
      "vapor_pressure": {
        "original_name": "Vapor Pressure",
        "value": "0.00465 mm Hg",
        "links": [],
        "cross_references": []
      },
      "lethal_concentration": {
        "original_name": "Lethal Concentration",
        "value": "LC (mouse) > 1,160 mg/m3",
        "links": [],
        "cross_references": []
      },
      "explanatory_notes": {
        "original_name": "Explanatory Notes",
        "value": "Melting point = 77 degrees F; [CAMEO] The Guide in the Emergency Response Guidebook is for \"Bromobenzyl cyanides.\"",
        "links": [],
        "cross_references": [
          {
            "type": "name_match",
            "text": "cyanides",
            "confidence": 1.0,
            "uuid": "e0820766-8caf-4340-b774-eaf713436c8c",
            "name": "CYANIDES",
            "url": "https://haz-map.com/Agents/714",
            "category": "agents"
          },
          {
            "type": "name_match",
            "text": "bromobenzyl cyanide",
            "confidence": 1.0,
            "uuid": "04f6b242-a12f-4d02-a58a-95a75d7a6e3b",
            "name": "Bromobenzyl cyanide",
            "url": "https://haz-map.com/Agents/1456",
            "category": "agents"
          },
          {
            "type": "name_match",
            "text": "benzyl cyanide",
            "confidence": 1.0,
            "uuid": "13929a9b-2191-4102-a016-769220aa7659",
            "name": "Benzyl cyanide",
            "url": "https://haz-map.com/Agents/7993",
            "category": "agents"
          },
          {
            "type": "name_match",
            "text": "cyanide",
            "confidence": 1.0,
            "uuid": "0b4d38ba-cc5c-4386-8079-9e7ff8fb2d3a",
            "name": "Cyanide",
            "url": "https://haz-map.com/Agents/13350",
            "category": "agents"
          }
        ]
      }
    },
    "adverse_effects": {
      "lachrymator": {
        "original_name": "Lachrymator",
        "value": "Yes",
        "links": [],
        "cross_references": []
      }
    },
    "diseases_processes_and_activities_linked_to_this_agent": {
      "other_information": {
        "original_name": "Other Information",
        "value": "No other related information on this agent was found.",
        "links": [],
        "cross_references": []
      }
    }
  },
  "cross_references": [
    {
      "type": "name_match",
      "text": "benzene",
      "confidence": 1.0,
      "uuid": "b05124de-5f34-4c14-8f04-ccb20c3780d9",
      "name": "Benzene",
      "url": "https://haz-map.com/Agents/5",
      "category": "agents"
    },
    {
      "type": "name_match",
      "text": "acetonitrile",
      "confidence": 1.0,
      "uuid": "84f1210b-94c6-4b35-8215-ba63f2fe4c64",
      "name": "Acetonitrile",
      "url": "https://haz-map.com/Agents/159",
      "category": "agents"
    },
    {
      "type": "name_match",
      "text": "acetic acid",
      "confidence": 1.0,
      "uuid": "0905c6e4-df84-4895-a92d-658819239bbd",
      "name": "Acetic acid",
      "url": "https://haz-map.com/Agents/207",
      "category": "agents"
    },
    {
      "type": "name_match",
      "text": "cyanides",
      "confidence": 1.0,
      "uuid": "e0820766-8caf-4340-b774-eaf713436c8c",
      "name": "CYANIDES",
      "url": "https://haz-map.com/Agents/714",
      "category": "agents"
    },
    {
      "type": "name_match",
      "text": "tea",
      "confidence": 1.0,
      "uuid": "773409e5-ac1a-4c9e-9470-9667ca82091c",
      "name": "Tea",
      "url": "https://haz-map.com/Agents/878",
      "category": "agents"
    },
    {
      "type": "name_match",
      "text": "bromobenzyl cyanide",
      "confidence": 1.0,
      "uuid": "04f6b242-a12f-4d02-a58a-95a75d7a6e3b",
      "name": "Bromobenzyl cyanide",
      "url": "https://haz-map.com/Agents/1456",
      "category": "agents"
    },
    {
      "type": "name_match",
      "text": "bromobenzene",
      "confidence": 1.0,
      "uuid": "8d6cd7c3-5ba3-4909-b970-bc239418c7f1",
      "name": "Bromobenzene",
      "url": "https://haz-map.com/Agents/1889",
      "category": "agents"
    },
    {
      "type": "name_match",
      "text": "benzyl cyanide",
      "confidence": 1.0,
      "uuid": "13929a9b-2191-4102-a016-769220aa7659",
      "name": "Benzyl cyanide",
      "url": "https://haz-map.com/Agents/7993",
      "category": "agents"
    },
    {
      "type": "name_match",
      "text": "cyanide",
      "confidence": 1.0,
      "uuid": "0b4d38ba-cc5c-4386-8079-9e7ff8fb2d3a",
      "name": "Cyanide",
      "url": "https://haz-map.com/Agents/13350",
      "category": "agents"
    }
  ],
  "all_links": [
    {
      "text": "Search PubMed",
      "url": "https://www.ncbi.nlm.nih.gov/pubmed?term=Bromobenzyl+cyanide%20AND%20human%5Bmh%5D%20AND%20%28Occupational%20Diseases%20%5Bmh%5D%20OR%20Occupational%20Exposure%20%5Bmh%5D%29%20%20AND%20%28tox%5Bsb%5D%29&cmd=search"
    }
  ]
}