{
  "metadata": {
    "scraped_from": "https://haz-map.com/Agents/14472",
    "entity_name": "Guanidine",
    "category": "agents",
    "uuid": "0569bc2f-9177-43a3-a8fc-30683a513f3d",
    "scraped_at": "2025-07-23T21:23:08.735771"
  },
  "parsed_at": "2025-07-24T01:12:43.761797",
  "title": "Guanidine",
  "sections": {
    "general": {
      "agent_name": {
        "original_name": "Agent Name",
        "value": "Guanidine",
        "links": [],
        "cross_references": [
          {
            "type": "name_match",
            "text": "guanidine",
            "confidence": 1.0,
            "uuid": "0569bc2f-9177-43a3-a8fc-30683a513f3d",
            "name": "Guanidine",
            "url": "https://haz-map.com/Agents/14472",
            "category": "agents"
          }
        ]
      },
      "cas_number": {
        "original_name": "CAS Number",
        "value": "113-00-8",
        "links": [],
        "cross_references": []
      },
      "formula": {
        "original_name": "Formula",
        "value": "C-H5-N3",
        "links": [],
        "cross_references": []
      },
      "major_category": {
        "original_name": "Major Category",
        "value": "Nitrogen Compounds",
        "links": [],
        "cross_references": [
          {
            "type": "name_match",
            "text": "nitrogen",
            "confidence": 1.0,
            "uuid": "db5e90a9-06d2-45b9-8b81-f345a89b0bc0",
            "name": "Nitrogen",
            "url": "https://haz-map.com/Agents/1072",
            "category": "agents"
          }
        ]
      },
      "synonyms": {
        "original_name": "Synonyms",
        "value": "Aminoformamidine; Aminomethanamidine; Carbamamidine; Carbamidine; Imidourea; Iminourea; [ChemIDplus]",
        "links": [],
        "cross_references": [
          {
            "type": "name_match",
            "text": "urea",
            "confidence": 1.0,
            "uuid": "a92a6129-bddd-4f79-9a78-136812ae610f",
            "name": "Urea",
            "url": "https://haz-map.com/Agents/2078",
            "category": "agents"
          }
        ]
      },
      "category": {
        "original_name": "Category",
        "value": "Other Nitrogen Compounds",
        "links": [],
        "cross_references": [
          {
            "type": "name_match",
            "text": "nitrogen",
            "confidence": 1.0,
            "uuid": "db5e90a9-06d2-45b9-8b81-f345a89b0bc0",
            "name": "Nitrogen",
            "url": "https://haz-map.com/Agents/1072",
            "category": "agents"
          }
        ]
      },
      "description": {
        "original_name": "Description",
        "value": "Deliquescent solid; Absorbs carbon dioxide from the air; [Merck Index]",
        "links": [],
        "cross_references": [
          {
            "type": "name_match",
            "text": "carbon dioxide",
            "confidence": 1.0,
            "uuid": "57cdc8ca-b9ce-490c-a076-713b6642f8e8",
            "name": "Carbon dioxide",
            "url": "https://haz-map.com/Agents/343",
            "category": "agents"
          },
          {
            "type": "name_match",
            "text": "carbon",
            "confidence": 1.0,
            "uuid": "b53f8815-ee80-40ef-b4aa-3b000e17dab5",
            "name": "Carbon",
            "url": "https://haz-map.com/Agents/1891",
            "category": "agents"
          }
        ]
      },
      "sourcesuses": {
        "original_name": "Sources/Uses",
        "value": "A strong organic base present in turnip juice, mushrooms, corn germ, rice hulls, mussels, and earthworms; Used as a therapeutic cholinergic; [Merck Index] Found in urine as a product of protein metabolism; Used in laboratory research, to treat myasthenia, and as a fluorescent probe in HPLC; [ChemIDplus] Used to make munitions, polymeric resins, flame retardants, and pharmaceuticals; [HSDB]",
        "links": [],
        "cross_references": [
          {
            "type": "name_match",
            "text": "pharmaceuticals",
            "confidence": 1.0,
            "uuid": "713c3c30-b67e-4a2f-a90f-b32f8a306332",
            "name": "PHARMACEUTICALS",
            "url": "https://haz-map.com/Agents/1000",
            "category": "agents"
          },
          {
            "type": "name_match",
            "text": "choline",
            "confidence": 1.0,
            "uuid": "a21a71e9-9d67-4563-9da2-98c4dcb1b766",
            "name": "Choline",
            "url": "https://haz-map.com/Agents/12978",
            "category": "agents"
          }
        ]
      },
      "comments": {
        "original_name": "Comments",
        "value": "The chloride salt is highly irritating to the skin and eyes of rabbits and is not a skin sensitizer in guinea pigs; Symptoms of severe oral intoxication include muscle tremors and convulsive contractions, salivation, vomiting, hypoglycemia, and circulatory disturbances; [HSDB]",
        "links": [],
        "cross_references": [
          {
            "type": "name_match",
            "text": "tremor",
            "confidence": 1.0,
            "uuid": "5532ab3c-17c6-467e-a96a-d8807c63fb9e",
            "name": "tremor",
            "url": "https://haz-map.com/Findings/50",
            "category": "findings"
          },
          {
            "type": "name_match",
            "text": "salivation",
            "confidence": 1.0,
            "uuid": "d550cdee-2f13-48a0-b762-d0f4163d79c2",
            "name": "salivation",
            "url": "https://haz-map.com/Findings/136",
            "category": "findings"
          }
        ]
      },
      "biomedical_references": {
        "original_name": "Biomedical References",
        "value": "Search PubMed",
        "links": [
          {
            "text": "Search PubMed",
            "url": "https://www.ncbi.nlm.nih.gov/pubmed?term=Guanidine%20AND%20human%5Bmh%5D%20AND%20%28Occupational%20Diseases%20%5Bmh%5D%20OR%20Occupational%20Exposure%20%5Bmh%5D%29%20%20AND%20%28tox%5Bsb%5D%29&cmd=search"
          }
        ],
        "cross_references": []
      }
    },
    "exposure_assessment": {
      "vapor_pressure": {
        "original_name": "Vapor Pressure",
        "value": "4.1 mm Hg",
        "links": [],
        "cross_references": []
      }
    },
    "adverse_effects": {
      "neurotoxin": {
        "original_name": "Neurotoxin",
        "value": "Other CNS neurotoxin",
        "links": [],
        "cross_references": []
      }
    },
    "diseases_processes_and_activities_linked_to_this_agent": {
      "other_information": {
        "original_name": "Other Information",
        "value": "No other related information on this agent was found.",
        "links": [],
        "cross_references": []
      }
    }
  },
  "cross_references": [
    {
      "type": "name_match",
      "text": "tremor",
      "confidence": 1.0,
      "uuid": "5532ab3c-17c6-467e-a96a-d8807c63fb9e",
      "name": "tremor",
      "url": "https://haz-map.com/Findings/50",
      "category": "findings"
    },
    {
      "type": "name_match",
      "text": "salivation",
      "confidence": 1.0,
      "uuid": "d550cdee-2f13-48a0-b762-d0f4163d79c2",
      "name": "salivation",
      "url": "https://haz-map.com/Findings/136",
      "category": "findings"
    },
    {
      "type": "name_match",
      "text": "carbon dioxide",
      "confidence": 1.0,
      "uuid": "57cdc8ca-b9ce-490c-a076-713b6642f8e8",
      "name": "Carbon dioxide",
      "url": "https://haz-map.com/Agents/343",
      "category": "agents"
    },
    {
      "type": "name_match",
      "text": "pharmaceuticals",
      "confidence": 1.0,
      "uuid": "713c3c30-b67e-4a2f-a90f-b32f8a306332",
      "name": "PHARMACEUTICALS",
      "url": "https://haz-map.com/Agents/1000",
      "category": "agents"
    },
    {
      "type": "name_match",
      "text": "nitrogen",
      "confidence": 1.0,
      "uuid": "db5e90a9-06d2-45b9-8b81-f345a89b0bc0",
      "name": "Nitrogen",
      "url": "https://haz-map.com/Agents/1072",
      "category": "agents"
    },
    {
      "type": "name_match",
      "text": "carbon",
      "confidence": 1.0,
      "uuid": "b53f8815-ee80-40ef-b4aa-3b000e17dab5",
      "name": "Carbon",
      "url": "https://haz-map.com/Agents/1891",
      "category": "agents"
    },
    {
      "type": "name_match",
      "text": "urea",
      "confidence": 1.0,
      "uuid": "a92a6129-bddd-4f79-9a78-136812ae610f",
      "name": "Urea",
      "url": "https://haz-map.com/Agents/2078",
      "category": "agents"
    },
    {
      "type": "name_match",
      "text": "choline",
      "confidence": 1.0,
      "uuid": "a21a71e9-9d67-4563-9da2-98c4dcb1b766",
      "name": "Choline",
      "url": "https://haz-map.com/Agents/12978",
      "category": "agents"
    },
    {
      "type": "name_match",
      "text": "guanidine",
      "confidence": 1.0,
      "uuid": "0569bc2f-9177-43a3-a8fc-30683a513f3d",
      "name": "Guanidine",
      "url": "https://haz-map.com/Agents/14472",
      "category": "agents"
    }
  ],
  "all_links": [
    {
      "text": "Search PubMed",
      "url": "https://www.ncbi.nlm.nih.gov/pubmed?term=Guanidine%20AND%20human%5Bmh%5D%20AND%20%28Occupational%20Diseases%20%5Bmh%5D%20OR%20Occupational%20Exposure%20%5Bmh%5D%29%20%20AND%20%28tox%5Bsb%5D%29&cmd=search"
    }
  ]
}