{
  "metadata": {
    "scraped_from": "https://haz-map.com/Agents/3097",
    "entity_name": "2-Chloronaphthalene",
    "category": "agents",
    "uuid": "05747255-08a5-4934-b927-1fc25f45fc27",
    "scraped_at": "2025-07-23T19:24:00.930148"
  },
  "parsed_at": "2025-07-24T01:08:18.621868",
  "title": "2-Chloronaphthalene",
  "sections": {
    "general": {
      "agent_name": {
        "original_name": "Agent Name",
        "value": "2-Chloronaphthalene",
        "links": [],
        "cross_references": [
          {
            "type": "name_match",
            "text": "naphthalene",
            "confidence": 1.0,
            "uuid": "433cf489-5423-4297-a38e-6e755a9d458e",
            "name": "Naphthalene",
            "url": "https://haz-map.com/Agents/46",
            "category": "agents"
          },
          {
            "type": "name_match",
            "text": "ht",
            "confidence": 1.0,
            "uuid": "764df367-8d53-4a11-81a2-31ccfe122a8d",
            "name": "HT",
            "url": "https://haz-map.com/Agents/2168",
            "category": "agents"
          },
          {
            "type": "name_match",
            "text": "2-chloronaphthalene",
            "confidence": 1.0,
            "uuid": "05747255-08a5-4934-b927-1fc25f45fc27",
            "name": "2-Chloronaphthalene",
            "url": "https://haz-map.com/Agents/3097",
            "category": "agents"
          }
        ]
      },
      "cas_number": {
        "original_name": "CAS Number",
        "value": "91-58-7",
        "links": [],
        "cross_references": []
      },
      "formula": {
        "original_name": "Formula",
        "value": "C10-H7-Cl",
        "links": [],
        "cross_references": []
      },
      "major_category": {
        "original_name": "Major Category",
        "value": "Other Classes",
        "links": [],
        "cross_references": []
      },
      "synonyms": {
        "original_name": "Synonyms",
        "value": "2-Chlornaftalen [Czech]; Halowax; Naphthalene, 2-chloro-; beta-Chloronaphthalene; [ChemIDplus]",
        "links": [],
        "cross_references": [
          {
            "type": "name_match",
            "text": "naphthalene",
            "confidence": 1.0,
            "uuid": "433cf489-5423-4297-a38e-6e755a9d458e",
            "name": "Naphthalene",
            "url": "https://haz-map.com/Agents/46",
            "category": "agents"
          },
          {
            "type": "name_match",
            "text": "ht",
            "confidence": 1.0,
            "uuid": "764df367-8d53-4a11-81a2-31ccfe122a8d",
            "name": "HT",
            "url": "https://haz-map.com/Agents/2168",
            "category": "agents"
          }
        ]
      },
      "category": {
        "original_name": "Category",
        "value": "Halowaxes",
        "links": [],
        "cross_references": []
      },
      "description": {
        "original_name": "Description",
        "value": "Solid; [Merck Index]",
        "links": [],
        "cross_references": []
      },
      "sourcesuses": {
        "original_name": "Sources/Uses",
        "value": "Used for chemical resistant gage fluids and instrument seals; as heat exchange fluids; in high-boiling specialty solvents; in color dispersions; as a crank case additive to dissolve sludge and gums; as ingredients in motor tune-up compounds; a component of Halowax 1031; in the production of electric condensers; in the insulation of electric cables and wires; as an additive to extreme pressure lubricants; as supports for storage batteries; as a coating in foundry use; as a solvent; as an immersion liquid in microscopy; as a raw material for dyes; as a wood preservative; Chlorinated naphthalenes have not been manufactured in the US since 1977; [HSDB]",
        "links": [],
        "cross_references": [
          {
            "type": "name_match",
            "text": "naphthalene",
            "confidence": 1.0,
            "uuid": "433cf489-5423-4297-a38e-6e755a9d458e",
            "name": "Naphthalene",
            "url": "https://haz-map.com/Agents/46",
            "category": "agents"
          },
          {
            "type": "name_match",
            "text": "mica",
            "confidence": 1.0,
            "uuid": "433f26f1-c399-4596-b179-ce3843cfd465",
            "name": "Mica",
            "url": "https://haz-map.com/Agents/621",
            "category": "agents"
          },
          {
            "type": "name_match",
            "text": "ht",
            "confidence": 1.0,
            "uuid": "764df367-8d53-4a11-81a2-31ccfe122a8d",
            "name": "HT",
            "url": "https://haz-map.com/Agents/2168",
            "category": "agents"
          },
          {
            "type": "name_match",
            "text": "halowax 1031",
            "confidence": 1.0,
            "uuid": "5cbf23f4-c085-4443-9ac1-5666580c7daf",
            "name": "Halowax 1031",
            "url": "https://haz-map.com/Agents/5480",
            "category": "agents"
          },
          {
            "type": "name_match",
            "text": "chlorinated naphthalenes",
            "confidence": 1.0,
            "uuid": "1a8161f5-f44d-4447-b55a-ee85b9c75148",
            "name": "CHLORINATED NAPHTHALENES",
            "url": "https://haz-map.com/Agents/9425",
            "category": "agents"
          },
          {
            "type": "name_match",
            "text": "chlorin",
            "confidence": 1.0,
            "uuid": "4a566fec-ec7e-42b0-9f14-ec586335e694",
            "name": "Chlorin",
            "url": "https://haz-map.com/Agents/20422",
            "category": "agents"
          }
        ]
      },
      "comments": {
        "original_name": "Comments",
        "value": "\"Symptoms of chronic exposure to this class of compounds include chloracne, cysts, headache, fatigue, vertigo, anorexia and jaundice. This compound is a strong irritant. It may be absorbed through the skin.\"; [CAMEO] May cause irritation; [MSDSonline] See \"CHLORINATED NAPHTHALENES.\"",
        "links": [],
        "cross_references": [
          {
            "type": "name_match",
            "text": "chloracne",
            "confidence": 1.0,
            "uuid": "5bb01810-1c34-450f-986e-26a644748ce8",
            "name": "Chloracne",
            "url": "https://haz-map.com/Diseases/215",
            "category": "diseases"
          },
          {
            "type": "name_match",
            "text": "fatigue",
            "confidence": 1.0,
            "uuid": "038d5edd-aa09-4a6b-970a-e8a506517915",
            "name": "fatigue",
            "url": "https://haz-map.com/Findings/2",
            "category": "findings"
          },
          {
            "type": "name_match",
            "text": "headache",
            "confidence": 1.0,
            "uuid": "a474a38d-66ac-44da-92de-de1c781a30e7",
            "name": "headache",
            "url": "https://haz-map.com/Findings/17",
            "category": "findings"
          },
          {
            "type": "name_match",
            "text": "jaundice",
            "confidence": 1.0,
            "uuid": "810fab39-c247-48bc-8475-aa897a5942da",
            "name": "jaundice",
            "url": "https://haz-map.com/Findings/19",
            "category": "findings"
          },
          {
            "type": "name_match",
            "text": "acne",
            "confidence": 1.0,
            "uuid": "f329eccb-9e30-4782-83cb-36dfe9817bbf",
            "name": "acne",
            "url": "https://haz-map.com/Findings/133",
            "category": "findings"
          },
          {
            "type": "name_match",
            "text": "naphthalene",
            "confidence": 1.0,
            "uuid": "433cf489-5423-4297-a38e-6e755a9d458e",
            "name": "Naphthalene",
            "url": "https://haz-map.com/Agents/46",
            "category": "agents"
          },
          {
            "type": "name_match",
            "text": "ht",
            "confidence": 1.0,
            "uuid": "764df367-8d53-4a11-81a2-31ccfe122a8d",
            "name": "HT",
            "url": "https://haz-map.com/Agents/2168",
            "category": "agents"
          },
          {
            "type": "name_match",
            "text": "chlorinated naphthalenes",
            "confidence": 1.0,
            "uuid": "1a8161f5-f44d-4447-b55a-ee85b9c75148",
            "name": "CHLORINATED NAPHTHALENES",
            "url": "https://haz-map.com/Agents/9425",
            "category": "agents"
          },
          {
            "type": "name_match",
            "text": "chlorin",
            "confidence": 1.0,
            "uuid": "4a566fec-ec7e-42b0-9f14-ec586335e694",
            "name": "Chlorin",
            "url": "https://haz-map.com/Agents/20422",
            "category": "agents"
          }
        ]
      },
      "biomedical_references": {
        "original_name": "Biomedical References",
        "value": "Search PubMed",
        "links": [
          {
            "text": "Search PubMed",
            "url": "https://www.ncbi.nlm.nih.gov/pubmed?term=2-Chloronaphthalene%20AND%20human%5Bmh%5D%20AND%20%28Occupational%20Diseases%20%5Bmh%5D%20OR%20Occupational%20Exposure%20%5Bmh%5D%29%20%20AND%20%28tox%5Bsb%5D%29&cmd=search"
          }
        ],
        "cross_references": []
      }
    },
    "exposure_assessment": {
      "vapor_pressure": {
        "original_name": "Vapor Pressure",
        "value": "0.0122 mm Hg",
        "links": [],
        "cross_references": []
      }
    },
    "diseases_processes_and_activities_linked_to_this_agent": {
      "processes": {
        "original_name": "Processes",
        "value": "Industrial Processes with risk of exposure: Applying Wood Preservatives Battery Manufacturing Shakeout, Cleaning, and Finishing",
        "links": [
          {
            "text": "Applying Wood Preservatives",
            "url": "https://haz-map.com/Processes/160"
          },
          {
            "text": "Battery Manufacturing",
            "url": "https://haz-map.com/Processes/106"
          },
          {
            "text": "Shakeout, Cleaning, and Finishing",
            "url": "https://haz-map.com/Processes/34"
          }
        ],
        "cross_references": [
          {
            "type": "url_match",
            "text": "Applying Wood Preservatives",
            "url": "https://haz-map.com/Processes/160",
            "confidence": 1.0,
            "uuid": "f04d008f-6345-4199-a15d-51f765989cfa",
            "name": "Applying Wood Preservatives",
            "category": "processes"
          },
          {
            "type": "url_match",
            "text": "Battery Manufacturing",
            "url": "https://haz-map.com/Processes/106",
            "confidence": 1.0,
            "uuid": "6f785f01-59d8-4cbf-b023-aab272d5cbd0",
            "name": "Battery Manufacturing",
            "category": "processes"
          },
          {
            "type": "url_match",
            "text": "Shakeout, Cleaning, and Finishing",
            "url": "https://haz-map.com/Processes/34",
            "confidence": 1.0,
            "uuid": "0c9d66dc-9fb0-4860-b893-aaf5251e6621",
            "name": "Shakeout, Cleaning, and Finishing",
            "category": "processes"
          }
        ]
      }
    }
  },
  "cross_references": [
    {
      "type": "url_match",
      "text": "Applying Wood Preservatives",
      "url": "https://haz-map.com/Processes/160",
      "confidence": 1.0,
      "uuid": "f04d008f-6345-4199-a15d-51f765989cfa",
      "name": "Applying Wood Preservatives",
      "category": "processes"
    },
    {
      "type": "url_match",
      "text": "Battery Manufacturing",
      "url": "https://haz-map.com/Processes/106",
      "confidence": 1.0,
      "uuid": "6f785f01-59d8-4cbf-b023-aab272d5cbd0",
      "name": "Battery Manufacturing",
      "category": "processes"
    },
    {
      "type": "url_match",
      "text": "Shakeout, Cleaning, and Finishing",
      "url": "https://haz-map.com/Processes/34",
      "confidence": 1.0,
      "uuid": "0c9d66dc-9fb0-4860-b893-aaf5251e6621",
      "name": "Shakeout, Cleaning, and Finishing",
      "category": "processes"
    },
    {
      "type": "name_match",
      "text": "chloracne",
      "confidence": 1.0,
      "uuid": "5bb01810-1c34-450f-986e-26a644748ce8",
      "name": "Chloracne",
      "url": "https://haz-map.com/Diseases/215",
      "category": "diseases"
    },
    {
      "type": "name_match",
      "text": "fatigue",
      "confidence": 1.0,
      "uuid": "038d5edd-aa09-4a6b-970a-e8a506517915",
      "name": "fatigue",
      "url": "https://haz-map.com/Findings/2",
      "category": "findings"
    },
    {
      "type": "name_match",
      "text": "headache",
      "confidence": 1.0,
      "uuid": "a474a38d-66ac-44da-92de-de1c781a30e7",
      "name": "headache",
      "url": "https://haz-map.com/Findings/17",
      "category": "findings"
    },
    {
      "type": "name_match",
      "text": "jaundice",
      "confidence": 1.0,
      "uuid": "810fab39-c247-48bc-8475-aa897a5942da",
      "name": "jaundice",
      "url": "https://haz-map.com/Findings/19",
      "category": "findings"
    },
    {
      "type": "name_match",
      "text": "acne",
      "confidence": 1.0,
      "uuid": "f329eccb-9e30-4782-83cb-36dfe9817bbf",
      "name": "acne",
      "url": "https://haz-map.com/Findings/133",
      "category": "findings"
    },
    {
      "type": "name_match",
      "text": "naphthalene",
      "confidence": 1.0,
      "uuid": "433cf489-5423-4297-a38e-6e755a9d458e",
      "name": "Naphthalene",
      "url": "https://haz-map.com/Agents/46",
      "category": "agents"
    },
    {
      "type": "name_match",
      "text": "mica",
      "confidence": 1.0,
      "uuid": "433f26f1-c399-4596-b179-ce3843cfd465",
      "name": "Mica",
      "url": "https://haz-map.com/Agents/621",
      "category": "agents"
    },
    {
      "type": "name_match",
      "text": "ht",
      "confidence": 1.0,
      "uuid": "764df367-8d53-4a11-81a2-31ccfe122a8d",
      "name": "HT",
      "url": "https://haz-map.com/Agents/2168",
      "category": "agents"
    },
    {
      "type": "name_match",
      "text": "2-chloronaphthalene",
      "confidence": 1.0,
      "uuid": "05747255-08a5-4934-b927-1fc25f45fc27",
      "name": "2-Chloronaphthalene",
      "url": "https://haz-map.com/Agents/3097",
      "category": "agents"
    },
    {
      "type": "name_match",
      "text": "halowax 1031",
      "confidence": 1.0,
      "uuid": "5cbf23f4-c085-4443-9ac1-5666580c7daf",
      "name": "Halowax 1031",
      "url": "https://haz-map.com/Agents/5480",
      "category": "agents"
    },
    {
      "type": "name_match",
      "text": "chlorinated naphthalenes",
      "confidence": 1.0,
      "uuid": "1a8161f5-f44d-4447-b55a-ee85b9c75148",
      "name": "CHLORINATED NAPHTHALENES",
      "url": "https://haz-map.com/Agents/9425",
      "category": "agents"
    },
    {
      "type": "name_match",
      "text": "chlorin",
      "confidence": 1.0,
      "uuid": "4a566fec-ec7e-42b0-9f14-ec586335e694",
      "name": "Chlorin",
      "url": "https://haz-map.com/Agents/20422",
      "category": "agents"
    }
  ],
  "all_links": [
    {
      "text": "Search PubMed",
      "url": "https://www.ncbi.nlm.nih.gov/pubmed?term=2-Chloronaphthalene%20AND%20human%5Bmh%5D%20AND%20%28Occupational%20Diseases%20%5Bmh%5D%20OR%20Occupational%20Exposure%20%5Bmh%5D%29%20%20AND%20%28tox%5Bsb%5D%29&cmd=search"
    },
    {
      "text": "Applying Wood Preservatives",
      "url": "https://haz-map.com/Processes/160"
    },
    {
      "text": "Battery Manufacturing",
      "url": "https://haz-map.com/Processes/106"
    },
    {
      "text": "Shakeout, Cleaning, and Finishing",
      "url": "https://haz-map.com/Processes/34"
    }
  ]
}