{
  "metadata": {
    "scraped_from": "https://haz-map.com/Agents/19026",
    "entity_name": "Tripropylene glycol n-butyl ether",
    "category": "agents",
    "uuid": "0668dd08-6ecb-45e4-a9d6-b23d06905933",
    "scraped_at": "2025-07-23T21:58:23.066874"
  },
  "parsed_at": "2025-07-24T01:14:06.880309",
  "title": "Tripropylene glycol n-butyl ether",
  "sections": {
    "general": {
      "agent_name": {
        "original_name": "Agent Name",
        "value": "Tripropylene glycol n-butyl ether",
        "links": [],
        "cross_references": [
          {
            "type": "name_match",
            "text": "propylene glycol",
            "confidence": 1.0,
            "uuid": "6d7c61db-8aa2-442e-b6c7-8a0385ab77da",
            "name": "Propylene glycol",
            "url": "https://haz-map.com/Agents/685",
            "category": "agents"
          },
          {
            "type": "name_match",
            "text": "propylene",
            "confidence": 1.0,
            "uuid": "78ac73a1-0029-4a50-b283-561134c72041",
            "name": "Propylene",
            "url": "https://haz-map.com/Agents/1078",
            "category": "agents"
          },
          {
            "type": "name_match",
            "text": "tripropylene glycol",
            "confidence": 1.0,
            "uuid": "8e9e9f84-9dd3-4d23-b7c1-6d1621499343",
            "name": "Tripropylene glycol",
            "url": "https://haz-map.com/Agents/7638",
            "category": "agents"
          },
          {
            "type": "name_match",
            "text": "n-butyl ether",
            "confidence": 1.0,
            "uuid": "6d55272c-dadc-4051-b974-560b38830ad0",
            "name": "n-Butyl ether",
            "url": "https://haz-map.com/Agents/8265",
            "category": "agents"
          },
          {
            "type": "name_match",
            "text": "propylene glycol n-butyl ether",
            "confidence": 1.0,
            "uuid": "a92cb840-52da-4e93-8623-612c4aa7629a",
            "name": "Propylene glycol n-butyl ether",
            "url": "https://haz-map.com/Agents/10138",
            "category": "agents"
          },
          {
            "type": "name_match",
            "text": "tripropylene glycol n-butyl ether",
            "confidence": 1.0,
            "uuid": "0668dd08-6ecb-45e4-a9d6-b23d06905933",
            "name": "Tripropylene glycol n-butyl ether",
            "url": "https://haz-map.com/Agents/19026",
            "category": "agents"
          }
        ]
      },
      "alternative_name": {
        "original_name": "Alternative Name",
        "value": "TPBGE",
        "links": [],
        "cross_references": []
      },
      "cas_number": {
        "original_name": "CAS Number",
        "value": "55934-93-5",
        "links": [],
        "cross_references": []
      },
      "formula": {
        "original_name": "Formula",
        "value": "C13-H28-O4",
        "links": [],
        "cross_references": []
      },
      "major_category": {
        "original_name": "Major Category",
        "value": "Solvents",
        "links": [],
        "cross_references": []
      },
      "synonyms": {
        "original_name": "Synonyms",
        "value": "TPBGE; [Glycol Ethers Online] Dowanol TPnB; Tripropylene glycol butyl ether; ((Butoxymethylethoxy)methylethoxy)propan-1-ol; Propanol, (2-(2-butoxymethylethoxy)methylethoxy)-; [ChemIDplus] Tripropylene glycol (mono) n-butyl ether; 1-(2-(2-Butoxy-1-methylethoxy)-1-methylethoxy)-2-propanol; [ECETOC] DOWANOL TPNB CLYCOL ETHER; Tripropylene glycol monobutyl ether; [Dow Chemical MSDS]",
        "links": [],
        "cross_references": [
          {
            "type": "name_match",
            "text": "mica",
            "confidence": 1.0,
            "uuid": "433f26f1-c399-4596-b179-ce3843cfd465",
            "name": "Mica",
            "url": "https://haz-map.com/Agents/621",
            "category": "agents"
          },
          {
            "type": "name_match",
            "text": "propylene glycol",
            "confidence": 1.0,
            "uuid": "6d7c61db-8aa2-442e-b6c7-8a0385ab77da",
            "name": "Propylene glycol",
            "url": "https://haz-map.com/Agents/685",
            "category": "agents"
          },
          {
            "type": "name_match",
            "text": "glycol ethers",
            "confidence": 1.0,
            "uuid": "753cf9f5-dc59-44ba-9fd6-38aca4a3cdac",
            "name": "GLYCOL ETHERS",
            "url": "https://haz-map.com/Agents/688",
            "category": "agents"
          },
          {
            "type": "name_match",
            "text": "propylene",
            "confidence": 1.0,
            "uuid": "78ac73a1-0029-4a50-b283-561134c72041",
            "name": "Propylene",
            "url": "https://haz-map.com/Agents/1078",
            "category": "agents"
          },
          {
            "type": "name_match",
            "text": "tripropylene glycol",
            "confidence": 1.0,
            "uuid": "8e9e9f84-9dd3-4d23-b7c1-6d1621499343",
            "name": "Tripropylene glycol",
            "url": "https://haz-map.com/Agents/7638",
            "category": "agents"
          },
          {
            "type": "name_match",
            "text": "n-butyl ether",
            "confidence": 1.0,
            "uuid": "6d55272c-dadc-4051-b974-560b38830ad0",
            "name": "n-Butyl ether",
            "url": "https://haz-map.com/Agents/8265",
            "category": "agents"
          }
        ]
      },
      "category": {
        "original_name": "Category",
        "value": "Glycol Ethers (P Series)",
        "links": [],
        "cross_references": [
          {
            "type": "name_match",
            "text": "glycol ethers",
            "confidence": 1.0,
            "uuid": "753cf9f5-dc59-44ba-9fd6-38aca4a3cdac",
            "name": "GLYCOL ETHERS",
            "url": "https://haz-map.com/Agents/688",
            "category": "agents"
          }
        ]
      },
      "description": {
        "original_name": "Description",
        "value": "Colorless to yellow liquid with a mild odor; [Dow Chemical MSDS]",
        "links": [],
        "cross_references": [
          {
            "type": "name_match",
            "text": "mica",
            "confidence": 1.0,
            "uuid": "433f26f1-c399-4596-b179-ce3843cfd465",
            "name": "Mica",
            "url": "https://haz-map.com/Agents/621",
            "category": "agents"
          }
        ]
      },
      "sourcesuses": {
        "original_name": "Sources/Uses",
        "value": "Used as an industrial solvent for cleaning and coating applications; [Dow Chemical MSDS]",
        "links": [],
        "cross_references": [
          {
            "type": "name_match",
            "text": "mica",
            "confidence": 1.0,
            "uuid": "433f26f1-c399-4596-b179-ce3843cfd465",
            "name": "Mica",
            "url": "https://haz-map.com/Agents/621",
            "category": "agents"
          }
        ]
      },
      "comments": {
        "original_name": "Comments",
        "value": "Contains < 4% polypropylene glycol monobutyl ether (CAS# 9003-13-8), < 1.9% tripropylene glycol (CAS# 24800-44-0), and < 1.5% dipropylene glycol n-butyl ether (CAS# 29911-28-2); May cause moderate eye irritation, lachrymation, and transient corneal injury; Not a skin sensitizer in guinea pigs; Ingestion has caused incoordination, tremors, and convulsions in experimental animals; [Dow Chemical MSDS]",
        "links": [],
        "cross_references": [
          {
            "type": "name_match",
            "text": "convulsion",
            "confidence": 1.0,
            "uuid": "af2c36f8-707a-48e3-a62b-1aa07adc9b72",
            "name": "convulsion",
            "url": "https://haz-map.com/Findings/14",
            "category": "findings"
          },
          {
            "type": "name_match",
            "text": "incoordination",
            "confidence": 1.0,
            "uuid": "76a55800-9cc5-4f0d-997c-17875a9482ca",
            "name": "incoordination",
            "url": "https://haz-map.com/Findings/25",
            "category": "findings"
          },
          {
            "type": "name_match",
            "text": "tremor",
            "confidence": 1.0,
            "uuid": "5532ab3c-17c6-467e-a96a-d8807c63fb9e",
            "name": "tremor",
            "url": "https://haz-map.com/Findings/50",
            "category": "findings"
          },
          {
            "type": "name_match",
            "text": "mica",
            "confidence": 1.0,
            "uuid": "433f26f1-c399-4596-b179-ce3843cfd465",
            "name": "Mica",
            "url": "https://haz-map.com/Agents/621",
            "category": "agents"
          },
          {
            "type": "name_match",
            "text": "propylene glycol",
            "confidence": 1.0,
            "uuid": "6d7c61db-8aa2-442e-b6c7-8a0385ab77da",
            "name": "Propylene glycol",
            "url": "https://haz-map.com/Agents/685",
            "category": "agents"
          },
          {
            "type": "name_match",
            "text": "polypropylene",
            "confidence": 1.0,
            "uuid": "a9a4e600-f5bf-4392-b369-8020b5c06e8e",
            "name": "Polypropylene",
            "url": "https://haz-map.com/Agents/854",
            "category": "agents"
          },
          {
            "type": "name_match",
            "text": "propylene",
            "confidence": 1.0,
            "uuid": "78ac73a1-0029-4a50-b283-561134c72041",
            "name": "Propylene",
            "url": "https://haz-map.com/Agents/1078",
            "category": "agents"
          },
          {
            "type": "name_match",
            "text": "dipropylene glycol",
            "confidence": 1.0,
            "uuid": "8ad9d047-cf9b-4bef-9d12-1c54639059b9",
            "name": "Dipropylene glycol",
            "url": "https://haz-map.com/Agents/5009",
            "category": "agents"
          },
          {
            "type": "name_match",
            "text": "polypropylene glycol",
            "confidence": 1.0,
            "uuid": "02d74fc4-3e9a-4def-894b-7ad7b55f392b",
            "name": "Polypropylene glycol",
            "url": "https://haz-map.com/Agents/6765",
            "category": "agents"
          },
          {
            "type": "name_match",
            "text": "tripropylene glycol",
            "confidence": 1.0,
            "uuid": "8e9e9f84-9dd3-4d23-b7c1-6d1621499343",
            "name": "Tripropylene glycol",
            "url": "https://haz-map.com/Agents/7638",
            "category": "agents"
          },
          {
            "type": "name_match",
            "text": "n-butyl ether",
            "confidence": 1.0,
            "uuid": "6d55272c-dadc-4051-b974-560b38830ad0",
            "name": "n-Butyl ether",
            "url": "https://haz-map.com/Agents/8265",
            "category": "agents"
          },
          {
            "type": "name_match",
            "text": "propylene glycol n-butyl ether",
            "confidence": 1.0,
            "uuid": "a92cb840-52da-4e93-8623-612c4aa7629a",
            "name": "Propylene glycol n-butyl ether",
            "url": "https://haz-map.com/Agents/10138",
            "category": "agents"
          },
          {
            "type": "name_match",
            "text": "dipropylene glycol n-butyl ether",
            "confidence": 1.0,
            "uuid": "d4d64b38-9bca-46c7-8373-d71e593c3527",
            "name": "Dipropylene glycol n-butyl ether",
            "url": "https://haz-map.com/Agents/10545",
            "category": "agents"
          }
        ]
      },
      "biomedical_references": {
        "original_name": "Biomedical References",
        "value": "Search PubMed",
        "links": [
          {
            "text": "Search PubMed",
            "url": "https://www.ncbi.nlm.nih.gov/pubmed?term=Tripropylene+glycol+n-butyl+ether%20AND%20human%5Bmh%5D%20AND%20%28Occupational%20Diseases%20%5Bmh%5D%20OR%20Occupational%20Exposure%20%5Bmh%5D%29%20%20AND%20%28tox%5Bsb%5D%29&cmd=search"
          }
        ],
        "cross_references": []
      }
    },
    "exposure_assessment": {
      "vapor_pressure": {
        "original_name": "Vapor Pressure",
        "value": "0.002 mm Hg",
        "links": [],
        "cross_references": []
      }
    },
    "adverse_effects": {
      "lachrymator": {
        "original_name": "Lachrymator",
        "value": "Yes",
        "links": [],
        "cross_references": []
      },
      "neurotoxin": {
        "original_name": "Neurotoxin",
        "value": "Acute solvent syndrome",
        "links": [],
        "cross_references": []
      }
    },
    "diseases_processes_and_activities_linked_to_this_agent": {
      "diseases": {
        "original_name": "Diseases",
        "value": "Occupational diseases associated with exposure to this agent: Encephalopathy, chronic solvent Solvents, acute toxic effect",
        "links": [
          {
            "text": "Encephalopathy, chronic solvent",
            "url": "https://haz-map.com/Diseases/325"
          },
          {
            "text": "Solvents, acute toxic effect",
            "url": "https://haz-map.com/Diseases/326"
          }
        ],
        "cross_references": [
          {
            "type": "url_match",
            "text": "Encephalopathy, chronic solvent",
            "url": "https://haz-map.com/Diseases/325",
            "confidence": 1.0,
            "uuid": "589ad578-4636-444e-8823-bf2dd0c7aeab",
            "name": "Encephalopathy, chronic solvent",
            "category": "diseases"
          },
          {
            "type": "url_match",
            "text": "Solvents, acute toxic effect",
            "url": "https://haz-map.com/Diseases/326",
            "confidence": 1.0,
            "uuid": "581e90e3-9d0c-45f0-aa6c-3468c28da129",
            "name": "Solvents, acute toxic effect",
            "category": "diseases"
          }
        ]
      },
      "processes": {
        "original_name": "Processes",
        "value": "Industrial Processes with risk of exposure: Metal Degreasing Painting (Solvents)",
        "links": [
          {
            "text": "Metal Degreasing",
            "url": "https://haz-map.com/Processes/9"
          },
          {
            "text": "Painting (Solvents)",
            "url": "https://haz-map.com/Processes/142"
          }
        ],
        "cross_references": [
          {
            "type": "url_match",
            "text": "Metal Degreasing",
            "url": "https://haz-map.com/Processes/9",
            "confidence": 1.0,
            "uuid": "7f7d1988-b456-403f-a356-245ce5458f96",
            "name": "Metal Degreasing",
            "category": "processes"
          },
          {
            "type": "url_match",
            "text": "Painting (Solvents)",
            "url": "https://haz-map.com/Processes/142",
            "confidence": 1.0,
            "uuid": "ca747481-4da1-4550-a546-f0d43a41b46c",
            "name": "Painting (Solvents)",
            "category": "processes"
          },
          {
            "type": "name_match",
            "text": "painting",
            "confidence": 1.0,
            "uuid": "19816ce9-9edf-4a86-8e64-b0cbf7dcf520",
            "name": "Painting",
            "url": "https://haz-map.com/Activities/9",
            "category": "activities"
          }
        ]
      }
    }
  },
  "cross_references": [
    {
      "type": "url_match",
      "text": "Encephalopathy, chronic solvent",
      "url": "https://haz-map.com/Diseases/325",
      "confidence": 1.0,
      "uuid": "589ad578-4636-444e-8823-bf2dd0c7aeab",
      "name": "Encephalopathy, chronic solvent",
      "category": "diseases"
    },
    {
      "type": "url_match",
      "text": "Solvents, acute toxic effect",
      "url": "https://haz-map.com/Diseases/326",
      "confidence": 1.0,
      "uuid": "581e90e3-9d0c-45f0-aa6c-3468c28da129",
      "name": "Solvents, acute toxic effect",
      "category": "diseases"
    },
    {
      "type": "url_match",
      "text": "Metal Degreasing",
      "url": "https://haz-map.com/Processes/9",
      "confidence": 1.0,
      "uuid": "7f7d1988-b456-403f-a356-245ce5458f96",
      "name": "Metal Degreasing",
      "category": "processes"
    },
    {
      "type": "url_match",
      "text": "Painting (Solvents)",
      "url": "https://haz-map.com/Processes/142",
      "confidence": 1.0,
      "uuid": "ca747481-4da1-4550-a546-f0d43a41b46c",
      "name": "Painting (Solvents)",
      "category": "processes"
    },
    {
      "type": "name_match",
      "text": "painting",
      "confidence": 1.0,
      "uuid": "19816ce9-9edf-4a86-8e64-b0cbf7dcf520",
      "name": "Painting",
      "url": "https://haz-map.com/Activities/9",
      "category": "activities"
    },
    {
      "type": "name_match",
      "text": "convulsion",
      "confidence": 1.0,
      "uuid": "af2c36f8-707a-48e3-a62b-1aa07adc9b72",
      "name": "convulsion",
      "url": "https://haz-map.com/Findings/14",
      "category": "findings"
    },
    {
      "type": "name_match",
      "text": "incoordination",
      "confidence": 1.0,
      "uuid": "76a55800-9cc5-4f0d-997c-17875a9482ca",
      "name": "incoordination",
      "url": "https://haz-map.com/Findings/25",
      "category": "findings"
    },
    {
      "type": "name_match",
      "text": "tremor",
      "confidence": 1.0,
      "uuid": "5532ab3c-17c6-467e-a96a-d8807c63fb9e",
      "name": "tremor",
      "url": "https://haz-map.com/Findings/50",
      "category": "findings"
    },
    {
      "type": "name_match",
      "text": "mica",
      "confidence": 1.0,
      "uuid": "433f26f1-c399-4596-b179-ce3843cfd465",
      "name": "Mica",
      "url": "https://haz-map.com/Agents/621",
      "category": "agents"
    },
    {
      "type": "name_match",
      "text": "propylene glycol",
      "confidence": 1.0,
      "uuid": "6d7c61db-8aa2-442e-b6c7-8a0385ab77da",
      "name": "Propylene glycol",
      "url": "https://haz-map.com/Agents/685",
      "category": "agents"
    },
    {
      "type": "name_match",
      "text": "glycol ethers",
      "confidence": 1.0,
      "uuid": "753cf9f5-dc59-44ba-9fd6-38aca4a3cdac",
      "name": "GLYCOL ETHERS",
      "url": "https://haz-map.com/Agents/688",
      "category": "agents"
    },
    {
      "type": "name_match",
      "text": "polypropylene",
      "confidence": 1.0,
      "uuid": "a9a4e600-f5bf-4392-b369-8020b5c06e8e",
      "name": "Polypropylene",
      "url": "https://haz-map.com/Agents/854",
      "category": "agents"
    },
    {
      "type": "name_match",
      "text": "propylene",
      "confidence": 1.0,
      "uuid": "78ac73a1-0029-4a50-b283-561134c72041",
      "name": "Propylene",
      "url": "https://haz-map.com/Agents/1078",
      "category": "agents"
    },
    {
      "type": "name_match",
      "text": "dipropylene glycol",
      "confidence": 1.0,
      "uuid": "8ad9d047-cf9b-4bef-9d12-1c54639059b9",
      "name": "Dipropylene glycol",
      "url": "https://haz-map.com/Agents/5009",
      "category": "agents"
    },
    {
      "type": "name_match",
      "text": "polypropylene glycol",
      "confidence": 1.0,
      "uuid": "02d74fc4-3e9a-4def-894b-7ad7b55f392b",
      "name": "Polypropylene glycol",
      "url": "https://haz-map.com/Agents/6765",
      "category": "agents"
    },
    {
      "type": "name_match",
      "text": "tripropylene glycol",
      "confidence": 1.0,
      "uuid": "8e9e9f84-9dd3-4d23-b7c1-6d1621499343",
      "name": "Tripropylene glycol",
      "url": "https://haz-map.com/Agents/7638",
      "category": "agents"
    },
    {
      "type": "name_match",
      "text": "n-butyl ether",
      "confidence": 1.0,
      "uuid": "6d55272c-dadc-4051-b974-560b38830ad0",
      "name": "n-Butyl ether",
      "url": "https://haz-map.com/Agents/8265",
      "category": "agents"
    },
    {
      "type": "name_match",
      "text": "propylene glycol n-butyl ether",
      "confidence": 1.0,
      "uuid": "a92cb840-52da-4e93-8623-612c4aa7629a",
      "name": "Propylene glycol n-butyl ether",
      "url": "https://haz-map.com/Agents/10138",
      "category": "agents"
    },
    {
      "type": "name_match",
      "text": "dipropylene glycol n-butyl ether",
      "confidence": 1.0,
      "uuid": "d4d64b38-9bca-46c7-8373-d71e593c3527",
      "name": "Dipropylene glycol n-butyl ether",
      "url": "https://haz-map.com/Agents/10545",
      "category": "agents"
    },
    {
      "type": "name_match",
      "text": "tripropylene glycol n-butyl ether",
      "confidence": 1.0,
      "uuid": "0668dd08-6ecb-45e4-a9d6-b23d06905933",
      "name": "Tripropylene glycol n-butyl ether",
      "url": "https://haz-map.com/Agents/19026",
      "category": "agents"
    }
  ],
  "all_links": [
    {
      "text": "Search PubMed",
      "url": "https://www.ncbi.nlm.nih.gov/pubmed?term=Tripropylene+glycol+n-butyl+ether%20AND%20human%5Bmh%5D%20AND%20%28Occupational%20Diseases%20%5Bmh%5D%20OR%20Occupational%20Exposure%20%5Bmh%5D%29%20%20AND%20%28tox%5Bsb%5D%29&cmd=search"
    },
    {
      "text": "Encephalopathy, chronic solvent",
      "url": "https://haz-map.com/Diseases/325"
    },
    {
      "text": "Solvents, acute toxic effect",
      "url": "https://haz-map.com/Diseases/326"
    },
    {
      "text": "Metal Degreasing",
      "url": "https://haz-map.com/Processes/9"
    },
    {
      "text": "Painting (Solvents)",
      "url": "https://haz-map.com/Processes/142"
    }
  ]
}