{
  "metadata": {
    "scraped_from": "https://haz-map.com/Agents/7848",
    "entity_name": "l-Limonene",
    "category": "agents",
    "uuid": "06894988-9d69-441f-b28e-5e67665408de",
    "scraped_at": "2025-07-23T20:17:37.035243"
  },
  "parsed_at": "2025-07-24T01:06:58.762107",
  "title": "l-Limonene",
  "sections": {
    "general": {
      "agent_name": {
        "original_name": "Agent Name",
        "value": "l-Limonene",
        "links": [],
        "cross_references": [
          {
            "type": "name_match",
            "text": "limonene",
            "confidence": 1.0,
            "uuid": "3163e8e1-22f8-4fa6-8bbe-3f53283ab08a",
            "name": "Limonene",
            "url": "https://haz-map.com/Agents/7847",
            "category": "agents"
          },
          {
            "type": "name_match",
            "text": "l-limonene",
            "confidence": 1.0,
            "uuid": "06894988-9d69-441f-b28e-5e67665408de",
            "name": "l-Limonene",
            "url": "https://haz-map.com/Agents/7848",
            "category": "agents"
          }
        ]
      },
      "cas_number": {
        "original_name": "CAS Number",
        "value": "5989-54-8",
        "links": [],
        "cross_references": []
      },
      "formula": {
        "original_name": "Formula",
        "value": "C10-H16",
        "links": [],
        "cross_references": []
      },
      "major_category": {
        "original_name": "Major Category",
        "value": "Biological Agents",
        "links": [],
        "cross_references": []
      },
      "synonyms": {
        "original_name": "Synonyms",
        "value": "(S)-Limonene; 1-Methyl-4-(1-methylethenyl)cyclohexene, (S)-; Cyclohexene, 1-methyl-4-(1-methylethenyl)-, (S)-; P-Mentha-1,8-diene, (S)-(-)-; beta-Limonene; [ChemIDplus] UN2052",
        "links": [],
        "cross_references": [
          {
            "type": "name_match",
            "text": "cyclohexene",
            "confidence": 1.0,
            "uuid": "899603b1-ebcd-41d9-a67b-1e8d7d4eee3f",
            "name": "Cyclohexene",
            "url": "https://haz-map.com/Agents/1173",
            "category": "agents"
          },
          {
            "type": "name_match",
            "text": "hexene",
            "confidence": 1.0,
            "uuid": "592a6801-2d0b-441f-b3f6-6d67971256b7",
            "name": "Hexene",
            "url": "https://haz-map.com/Agents/5534",
            "category": "agents"
          },
          {
            "type": "name_match",
            "text": "limonene",
            "confidence": 1.0,
            "uuid": "3163e8e1-22f8-4fa6-8bbe-3f53283ab08a",
            "name": "Limonene",
            "url": "https://haz-map.com/Agents/7847",
            "category": "agents"
          }
        ]
      },
      "category": {
        "original_name": "Category",
        "value": "Terpenes",
        "links": [],
        "cross_references": [
          {
            "type": "name_match",
            "text": "terpenes",
            "confidence": 1.0,
            "uuid": "0a11dd9e-f81d-477b-b44c-85ca49ab02f4",
            "name": "TERPENES",
            "url": "https://haz-map.com/Agents/817",
            "category": "agents"
          }
        ]
      },
      "description": {
        "original_name": "Description",
        "value": "Colorless liquid; lemon-like odor; [CHEMINFO]",
        "links": [],
        "cross_references": []
      },
      "sourcesuses": {
        "original_name": "Sources/Uses",
        "value": "Used in artificial essential oils and to make (+)-carvone; Occurs naturally in essential oils of pine, peppermint, spearmint, and other plants; A minor constituent of turpentine; [CHEMINFO] Used in flavorings, fragrances, cosmetics and as a solvent and wetting agent; Also used to make resins, insecticides, insect repellants, and animal repellants; [HSDB]",
        "links": [],
        "cross_references": [
          {
            "type": "name_match",
            "text": "turpentine",
            "confidence": 1.0,
            "uuid": "b7d51e8a-db01-4cbb-b033-17f7c355d353",
            "name": "Turpentine",
            "url": "https://haz-map.com/Agents/640",
            "category": "agents"
          },
          {
            "type": "name_match",
            "text": "carvone",
            "confidence": 1.0,
            "uuid": "87e1d737-e3f5-4fc8-9b0d-20ad62d77af5",
            "name": "Carvone",
            "url": "https://haz-map.com/Agents/4242",
            "category": "agents"
          }
        ]
      },
      "comments": {
        "original_name": "Comments",
        "value": "A skin sensitizer; A mild skin, eye, and respiratory tract irritant; [CHEMINFO] Danger of skin sensitization; [MAK] An irritant; May cause skin sensitization; Effects in high-dose animal studies include acute tubular necrosis; [MSDSonline] The racemic mixture of d-limonene and l-limonene is called dipentene or limonene (138-86-3). [Kanerva, p. 1789] See \"Limonene\" and \"d-Limonene.\"",
        "links": [],
        "cross_references": [
          {
            "type": "name_match",
            "text": "d-limonene",
            "confidence": 1.0,
            "uuid": "1fabd046-fb4e-4b72-aa4b-577cb1021c1b",
            "name": "d-Limonene",
            "url": "https://haz-map.com/Agents/695",
            "category": "agents"
          },
          {
            "type": "name_match",
            "text": "pentene",
            "confidence": 1.0,
            "uuid": "8a79e71e-e90a-4993-a702-7b2bacae6310",
            "name": "Pentene",
            "url": "https://haz-map.com/Agents/6584",
            "category": "agents"
          },
          {
            "type": "name_match",
            "text": "limonene",
            "confidence": 1.0,
            "uuid": "3163e8e1-22f8-4fa6-8bbe-3f53283ab08a",
            "name": "Limonene",
            "url": "https://haz-map.com/Agents/7847",
            "category": "agents"
          },
          {
            "type": "name_match",
            "text": "l-limonene",
            "confidence": 1.0,
            "uuid": "06894988-9d69-441f-b28e-5e67665408de",
            "name": "l-Limonene",
            "url": "https://haz-map.com/Agents/7848",
            "category": "agents"
          }
        ]
      },
      "biomedical_references": {
        "original_name": "Biomedical References",
        "value": "Search PubMed",
        "links": [
          {
            "text": "Search PubMed",
            "url": "https://www.ncbi.nlm.nih.gov/pubmed?term=l-Limonene%20AND%20human%5Bmh%5D%20AND%20%28Occupational%20Diseases%20%5Bmh%5D%20OR%20Occupational%20Exposure%20%5Bmh%5D%29%20%20AND%20%28tox%5Bsb%5D%29&cmd=search"
          }
        ],
        "cross_references": []
      }
    },
    "exposure_assessment": {
      "vapor_pressure": {
        "original_name": "Vapor Pressure",
        "value": "1.44 mm Hg",
        "links": [],
        "cross_references": []
      },
      "explanatory_notes": {
        "original_name": "Explanatory Notes",
        "value": "Flash point = 48 deg C; VP < 3 mm Hg at 14 deg C; [CHEMINFO] The Guide in the Emergency Response Guidebook is for \"Dipentene.\" VP from ChemIDplus;",
        "links": [],
        "cross_references": [
          {
            "type": "name_match",
            "text": "ash",
            "confidence": 1.0,
            "uuid": "68b360f1-5ad0-4337-bea0-d7adca2961b5",
            "name": "Ash",
            "url": "https://haz-map.com/Agents/965",
            "category": "agents"
          },
          {
            "type": "name_match",
            "text": "pentene",
            "confidence": 1.0,
            "uuid": "8a79e71e-e90a-4993-a702-7b2bacae6310",
            "name": "Pentene",
            "url": "https://haz-map.com/Agents/6584",
            "category": "agents"
          }
        ]
      },
      "nfpa": {
        "original_name": "NFPA",
        "value": "high ambient temp required",
        "links": [],
        "cross_references": []
      }
    },
    "adverse_effects": {
      "skin_sensitizer": {
        "original_name": "Skin Sensitizer",
        "value": "Yes",
        "links": [],
        "cross_references": []
      }
    },
    "diseases_processes_and_activities_linked_to_this_agent": {
      "diseases": {
        "original_name": "Diseases",
        "value": "Occupational diseases associated with exposure to this agent: Contact dermatitis, allergic",
        "links": [
          {
            "text": "Contact dermatitis, allergic",
            "url": "https://haz-map.com/Diseases/18"
          }
        ],
        "cross_references": [
          {
            "type": "url_match",
            "text": "Contact dermatitis, allergic",
            "url": "https://haz-map.com/Diseases/18",
            "confidence": 1.0,
            "uuid": "c9499de0-9aa1-41bf-8753-cd5b28a63e29",
            "name": "Contact dermatitis, allergic",
            "category": "diseases"
          },
          {
            "type": "name_match",
            "text": "dermatitis",
            "confidence": 1.0,
            "uuid": "fe9c05f2-b19f-4ceb-ac7a-ffb7d7a0cae0",
            "name": "dermatitis",
            "url": "https://haz-map.com/Findings/59",
            "category": "findings"
          }
        ]
      },
      "processes": {
        "original_name": "Processes",
        "value": "Industrial Processes with risk of exposure: Painting (Solvents)",
        "links": [
          {
            "text": "Painting (Solvents)",
            "url": "https://haz-map.com/Processes/142"
          }
        ],
        "cross_references": [
          {
            "type": "url_match",
            "text": "Painting (Solvents)",
            "url": "https://haz-map.com/Processes/142",
            "confidence": 1.0,
            "uuid": "ca747481-4da1-4550-a546-f0d43a41b46c",
            "name": "Painting (Solvents)",
            "category": "processes"
          },
          {
            "type": "name_match",
            "text": "painting",
            "confidence": 1.0,
            "uuid": "19816ce9-9edf-4a86-8e64-b0cbf7dcf520",
            "name": "Painting",
            "url": "https://haz-map.com/Activities/9",
            "category": "activities"
          }
        ]
      }
    }
  },
  "cross_references": [
    {
      "type": "url_match",
      "text": "Contact dermatitis, allergic",
      "url": "https://haz-map.com/Diseases/18",
      "confidence": 1.0,
      "uuid": "c9499de0-9aa1-41bf-8753-cd5b28a63e29",
      "name": "Contact dermatitis, allergic",
      "category": "diseases"
    },
    {
      "type": "url_match",
      "text": "Painting (Solvents)",
      "url": "https://haz-map.com/Processes/142",
      "confidence": 1.0,
      "uuid": "ca747481-4da1-4550-a546-f0d43a41b46c",
      "name": "Painting (Solvents)",
      "category": "processes"
    },
    {
      "type": "name_match",
      "text": "painting",
      "confidence": 1.0,
      "uuid": "19816ce9-9edf-4a86-8e64-b0cbf7dcf520",
      "name": "Painting",
      "url": "https://haz-map.com/Activities/9",
      "category": "activities"
    },
    {
      "type": "name_match",
      "text": "dermatitis",
      "confidence": 1.0,
      "uuid": "fe9c05f2-b19f-4ceb-ac7a-ffb7d7a0cae0",
      "name": "dermatitis",
      "url": "https://haz-map.com/Findings/59",
      "category": "findings"
    },
    {
      "type": "name_match",
      "text": "turpentine",
      "confidence": 1.0,
      "uuid": "b7d51e8a-db01-4cbb-b033-17f7c355d353",
      "name": "Turpentine",
      "url": "https://haz-map.com/Agents/640",
      "category": "agents"
    },
    {
      "type": "name_match",
      "text": "d-limonene",
      "confidence": 1.0,
      "uuid": "1fabd046-fb4e-4b72-aa4b-577cb1021c1b",
      "name": "d-Limonene",
      "url": "https://haz-map.com/Agents/695",
      "category": "agents"
    },
    {
      "type": "name_match",
      "text": "terpenes",
      "confidence": 1.0,
      "uuid": "0a11dd9e-f81d-477b-b44c-85ca49ab02f4",
      "name": "TERPENES",
      "url": "https://haz-map.com/Agents/817",
      "category": "agents"
    },
    {
      "type": "name_match",
      "text": "ash",
      "confidence": 1.0,
      "uuid": "68b360f1-5ad0-4337-bea0-d7adca2961b5",
      "name": "Ash",
      "url": "https://haz-map.com/Agents/965",
      "category": "agents"
    },
    {
      "type": "name_match",
      "text": "cyclohexene",
      "confidence": 1.0,
      "uuid": "899603b1-ebcd-41d9-a67b-1e8d7d4eee3f",
      "name": "Cyclohexene",
      "url": "https://haz-map.com/Agents/1173",
      "category": "agents"
    },
    {
      "type": "name_match",
      "text": "carvone",
      "confidence": 1.0,
      "uuid": "87e1d737-e3f5-4fc8-9b0d-20ad62d77af5",
      "name": "Carvone",
      "url": "https://haz-map.com/Agents/4242",
      "category": "agents"
    },
    {
      "type": "name_match",
      "text": "hexene",
      "confidence": 1.0,
      "uuid": "592a6801-2d0b-441f-b3f6-6d67971256b7",
      "name": "Hexene",
      "url": "https://haz-map.com/Agents/5534",
      "category": "agents"
    },
    {
      "type": "name_match",
      "text": "pentene",
      "confidence": 1.0,
      "uuid": "8a79e71e-e90a-4993-a702-7b2bacae6310",
      "name": "Pentene",
      "url": "https://haz-map.com/Agents/6584",
      "category": "agents"
    },
    {
      "type": "name_match",
      "text": "limonene",
      "confidence": 1.0,
      "uuid": "3163e8e1-22f8-4fa6-8bbe-3f53283ab08a",
      "name": "Limonene",
      "url": "https://haz-map.com/Agents/7847",
      "category": "agents"
    },
    {
      "type": "name_match",
      "text": "l-limonene",
      "confidence": 1.0,
      "uuid": "06894988-9d69-441f-b28e-5e67665408de",
      "name": "l-Limonene",
      "url": "https://haz-map.com/Agents/7848",
      "category": "agents"
    }
  ],
  "all_links": [
    {
      "text": "Search PubMed",
      "url": "https://www.ncbi.nlm.nih.gov/pubmed?term=l-Limonene%20AND%20human%5Bmh%5D%20AND%20%28Occupational%20Diseases%20%5Bmh%5D%20OR%20Occupational%20Exposure%20%5Bmh%5D%29%20%20AND%20%28tox%5Bsb%5D%29&cmd=search"
    },
    {
      "text": "Contact dermatitis, allergic",
      "url": "https://haz-map.com/Diseases/18"
    },
    {
      "text": "Painting (Solvents)",
      "url": "https://haz-map.com/Processes/142"
    }
  ]
}