{
  "metadata": {
    "scraped_from": "https://haz-map.com/Agents/15695",
    "entity_name": "Monobenzyl toluene",
    "category": "agents",
    "uuid": "06cff0f2-f111-478c-855b-b815c1e0944d",
    "scraped_at": "2025-07-23T21:31:26.741647"
  },
  "parsed_at": "2025-07-24T01:11:08.928531",
  "title": "Monobenzyl toluene",
  "sections": {
    "general": {
      "agent_name": {
        "original_name": "Agent Name",
        "value": "Monobenzyl toluene",
        "links": [],
        "cross_references": [
          {
            "type": "name_match",
            "text": "toluene",
            "confidence": 1.0,
            "uuid": "0a34d5de-e924-4c47-aff5-7ae8e48c6772",
            "name": "Toluene",
            "url": "https://haz-map.com/Agents/83",
            "category": "agents"
          },
          {
            "type": "name_match",
            "text": "monobenzyl toluene",
            "confidence": 1.0,
            "uuid": "06cff0f2-f111-478c-855b-b815c1e0944d",
            "name": "Monobenzyl toluene",
            "url": "https://haz-map.com/Agents/15695",
            "category": "agents"
          }
        ]
      },
      "cas_number": {
        "original_name": "CAS Number",
        "value": "27776-01-8",
        "links": [],
        "cross_references": []
      },
      "formula": {
        "original_name": "Formula",
        "value": "C14-H14",
        "links": [],
        "cross_references": []
      },
      "major_category": {
        "original_name": "Major Category",
        "value": "Other Classes",
        "links": [],
        "cross_references": []
      },
      "synonyms": {
        "original_name": "Synonyms",
        "value": "Benzyltoluene; Methyldiphenylmethane; Benzene, methyl(phenylmethyl)-; [ChemIDplus] BT; Jarysol BT01; Monobenzyltoluene; Tolylphenylmethane; [IUCLID]",
        "links": [],
        "cross_references": [
          {
            "type": "name_match",
            "text": "benzene",
            "confidence": 1.0,
            "uuid": "b05124de-5f34-4c14-8f04-ccb20c3780d9",
            "name": "Benzene",
            "url": "https://haz-map.com/Agents/5",
            "category": "agents"
          },
          {
            "type": "name_match",
            "text": "toluene",
            "confidence": 1.0,
            "uuid": "0a34d5de-e924-4c47-aff5-7ae8e48c6772",
            "name": "Toluene",
            "url": "https://haz-map.com/Agents/83",
            "category": "agents"
          },
          {
            "type": "name_match",
            "text": "methane",
            "confidence": 1.0,
            "uuid": "5018bf73-24be-4353-8643-c351d5f52186",
            "name": "Methane",
            "url": "https://haz-map.com/Agents/1074",
            "category": "agents"
          },
          {
            "type": "name_match",
            "text": "ethane",
            "confidence": 1.0,
            "uuid": "5162cc8c-dfb9-4060-81ac-38a8cec7f9dd",
            "name": "Ethane",
            "url": "https://haz-map.com/Agents/1075",
            "category": "agents"
          },
          {
            "type": "name_match",
            "text": "diphenylmethane",
            "confidence": 1.0,
            "uuid": "c9ade740-3515-4581-86c9-0a45936d5f72",
            "name": "Diphenylmethane",
            "url": "https://haz-map.com/Agents/2699",
            "category": "agents"
          }
        ]
      },
      "category": {
        "original_name": "Category",
        "value": "Aromatic Hydrocarbons",
        "links": [],
        "cross_references": [
          {
            "type": "name_match",
            "text": "carbon",
            "confidence": 1.0,
            "uuid": "b53f8815-ee80-40ef-b4aa-3b000e17dab5",
            "name": "Carbon",
            "url": "https://haz-map.com/Agents/1891",
            "category": "agents"
          },
          {
            "type": "fuzzy_match",
            "text": "aromatic hydrocarbons",
            "matched_name": "Aromatic hydrocarbons, C9-C11",
            "confidence": 0.7509578544061303,
            "uuid": "1e86d79b-784d-40c4-8412-39a4432a7a75",
            "category": "agents",
            "url": "https://haz-map.com/Agents/20258"
          },
          {
            "type": "fuzzy_match",
            "text": "hydrocarbons",
            "matched_name": "Hydrocarbons, C>3",
            "confidence": 0.7100840336134454,
            "uuid": "8eaa37ac-3931-44e4-9242-2734127fd661",
            "category": "agents",
            "url": "https://haz-map.com/Agents/14795"
          }
        ]
      },
      "description": {
        "original_name": "Description",
        "value": "Liquid; [IUCLID] Clear liquid with an aromatic odor; [Nisseki Chemical Texas MSDS]",
        "links": [],
        "cross_references": [
          {
            "type": "name_match",
            "text": "mica",
            "confidence": 1.0,
            "uuid": "433f26f1-c399-4596-b179-ce3843cfd465",
            "name": "Mica",
            "url": "https://haz-map.com/Agents/621",
            "category": "agents"
          }
        ]
      },
      "sourcesuses": {
        "original_name": "Sources/Uses",
        "value": "Used as a heat transfer agent; [ChemIDplus] Used as an insulating fluid for high voltage capacitors; [Nisseki Chemical Texas MSDS]",
        "links": [],
        "cross_references": [
          {
            "type": "name_match",
            "text": "mica",
            "confidence": 1.0,
            "uuid": "433f26f1-c399-4596-b179-ce3843cfd465",
            "name": "Mica",
            "url": "https://haz-map.com/Agents/621",
            "category": "agents"
          }
        ]
      },
      "comments": {
        "original_name": "Comments",
        "value": "Contains 2-5% 1,1-diphenylethane (CAS# 612-00-0) and 0-2% diphenylmethane (CAS# 101-81-5); A moderate skin and minor eye irritant in rabbits; Not a skin sensitizer in guinea pigs; Inhalation overexposure may cause CNS depression; An aspiration hazard by ingestion (may cause lung damage); [Nisseki Chemical Texas MSDS] See \"Diphenylmethane.\"",
        "links": [],
        "cross_references": [
          {
            "type": "name_match",
            "text": "mica",
            "confidence": 1.0,
            "uuid": "433f26f1-c399-4596-b179-ce3843cfd465",
            "name": "Mica",
            "url": "https://haz-map.com/Agents/621",
            "category": "agents"
          },
          {
            "type": "name_match",
            "text": "methane",
            "confidence": 1.0,
            "uuid": "5018bf73-24be-4353-8643-c351d5f52186",
            "name": "Methane",
            "url": "https://haz-map.com/Agents/1074",
            "category": "agents"
          },
          {
            "type": "name_match",
            "text": "ethane",
            "confidence": 1.0,
            "uuid": "5162cc8c-dfb9-4060-81ac-38a8cec7f9dd",
            "name": "Ethane",
            "url": "https://haz-map.com/Agents/1075",
            "category": "agents"
          },
          {
            "type": "name_match",
            "text": "diphenylmethane",
            "confidence": 1.0,
            "uuid": "c9ade740-3515-4581-86c9-0a45936d5f72",
            "name": "Diphenylmethane",
            "url": "https://haz-map.com/Agents/2699",
            "category": "agents"
          }
        ]
      },
      "biomedical_references": {
        "original_name": "Biomedical References",
        "value": "Search PubMed",
        "links": [
          {
            "text": "Search PubMed",
            "url": "https://www.ncbi.nlm.nih.gov/pubmed?term=Monobenzyl+toluene%20AND%20human%5Bmh%5D%20AND%20%28Occupational%20Diseases%20%5Bmh%5D%20OR%20Occupational%20Exposure%20%5Bmh%5D%29%20%20AND%20%28tox%5Bsb%5D%29&cmd=search"
          }
        ],
        "cross_references": []
      }
    },
    "exposure_assessment": {
      "vapor_pressure": {
        "original_name": "Vapor Pressure",
        "value": "0.003 mm Hg",
        "links": [],
        "cross_references": []
      }
    },
    "adverse_effects": {
      "neurotoxin": {
        "original_name": "Neurotoxin",
        "value": "Acute solvent syndrome",
        "links": [],
        "cross_references": []
      }
    },
    "diseases_processes_and_activities_linked_to_this_agent": {
      "diseases": {
        "original_name": "Diseases",
        "value": "Occupational diseases associated with exposure to this agent: Solvents, acute toxic effect",
        "links": [
          {
            "text": "Solvents, acute toxic effect",
            "url": "https://haz-map.com/Diseases/326"
          }
        ],
        "cross_references": [
          {
            "type": "url_match",
            "text": "Solvents, acute toxic effect",
            "url": "https://haz-map.com/Diseases/326",
            "confidence": 1.0,
            "uuid": "581e90e3-9d0c-45f0-aa6c-3468c28da129",
            "name": "Solvents, acute toxic effect",
            "category": "diseases"
          }
        ]
      }
    }
  },
  "cross_references": [
    {
      "type": "url_match",
      "text": "Solvents, acute toxic effect",
      "url": "https://haz-map.com/Diseases/326",
      "confidence": 1.0,
      "uuid": "581e90e3-9d0c-45f0-aa6c-3468c28da129",
      "name": "Solvents, acute toxic effect",
      "category": "diseases"
    },
    {
      "type": "name_match",
      "text": "benzene",
      "confidence": 1.0,
      "uuid": "b05124de-5f34-4c14-8f04-ccb20c3780d9",
      "name": "Benzene",
      "url": "https://haz-map.com/Agents/5",
      "category": "agents"
    },
    {
      "type": "name_match",
      "text": "toluene",
      "confidence": 1.0,
      "uuid": "0a34d5de-e924-4c47-aff5-7ae8e48c6772",
      "name": "Toluene",
      "url": "https://haz-map.com/Agents/83",
      "category": "agents"
    },
    {
      "type": "name_match",
      "text": "mica",
      "confidence": 1.0,
      "uuid": "433f26f1-c399-4596-b179-ce3843cfd465",
      "name": "Mica",
      "url": "https://haz-map.com/Agents/621",
      "category": "agents"
    },
    {
      "type": "name_match",
      "text": "methane",
      "confidence": 1.0,
      "uuid": "5018bf73-24be-4353-8643-c351d5f52186",
      "name": "Methane",
      "url": "https://haz-map.com/Agents/1074",
      "category": "agents"
    },
    {
      "type": "name_match",
      "text": "ethane",
      "confidence": 1.0,
      "uuid": "5162cc8c-dfb9-4060-81ac-38a8cec7f9dd",
      "name": "Ethane",
      "url": "https://haz-map.com/Agents/1075",
      "category": "agents"
    },
    {
      "type": "name_match",
      "text": "carbon",
      "confidence": 1.0,
      "uuid": "b53f8815-ee80-40ef-b4aa-3b000e17dab5",
      "name": "Carbon",
      "url": "https://haz-map.com/Agents/1891",
      "category": "agents"
    },
    {
      "type": "name_match",
      "text": "diphenylmethane",
      "confidence": 1.0,
      "uuid": "c9ade740-3515-4581-86c9-0a45936d5f72",
      "name": "Diphenylmethane",
      "url": "https://haz-map.com/Agents/2699",
      "category": "agents"
    },
    {
      "type": "name_match",
      "text": "monobenzyl toluene",
      "confidence": 1.0,
      "uuid": "06cff0f2-f111-478c-855b-b815c1e0944d",
      "name": "Monobenzyl toluene",
      "url": "https://haz-map.com/Agents/15695",
      "category": "agents"
    },
    {
      "type": "fuzzy_match",
      "text": "aromatic hydrocarbons",
      "matched_name": "Aromatic hydrocarbons, C9-C11",
      "confidence": 0.7509578544061303,
      "uuid": "1e86d79b-784d-40c4-8412-39a4432a7a75",
      "category": "agents",
      "url": "https://haz-map.com/Agents/20258"
    },
    {
      "type": "fuzzy_match",
      "text": "hydrocarbons",
      "matched_name": "Hydrocarbons, C>3",
      "confidence": 0.7100840336134454,
      "uuid": "8eaa37ac-3931-44e4-9242-2734127fd661",
      "category": "agents",
      "url": "https://haz-map.com/Agents/14795"
    }
  ],
  "all_links": [
    {
      "text": "Search PubMed",
      "url": "https://www.ncbi.nlm.nih.gov/pubmed?term=Monobenzyl+toluene%20AND%20human%5Bmh%5D%20AND%20%28Occupational%20Diseases%20%5Bmh%5D%20OR%20Occupational%20Exposure%20%5Bmh%5D%29%20%20AND%20%28tox%5Bsb%5D%29&cmd=search"
    },
    {
      "text": "Solvents, acute toxic effect",
      "url": "https://haz-map.com/Diseases/326"
    }
  ]
}