{
  "metadata": {
    "scraped_from": "https://haz-map.com/Agents/7436",
    "entity_name": "Thymol",
    "category": "agents",
    "uuid": "07226c9f-5add-4c34-9f8f-8a313cb1eecf",
    "scraped_at": "2025-07-23T20:12:44.770893"
  },
  "parsed_at": "2025-07-24T01:08:39.993206",
  "title": "Thymol",
  "sections": {
    "general": {
      "agent_name": {
        "original_name": "Agent Name",
        "value": "Thymol",
        "links": [],
        "cross_references": [
          {
            "type": "name_match",
            "text": "thymol",
            "confidence": 1.0,
            "uuid": "07226c9f-5add-4c34-9f8f-8a313cb1eecf",
            "name": "Thymol",
            "url": "https://haz-map.com/Agents/7436",
            "category": "agents"
          }
        ]
      },
      "cas_number": {
        "original_name": "CAS Number",
        "value": "89-83-8",
        "links": [],
        "cross_references": []
      },
      "formula": {
        "original_name": "Formula",
        "value": "C10-H14-O",
        "links": [],
        "cross_references": []
      },
      "major_category": {
        "original_name": "Major Category",
        "value": "Biological Agents",
        "links": [],
        "cross_references": []
      },
      "synonyms": {
        "original_name": "Synonyms",
        "value": "1-Hydroxy-5-methyl-2-isopropylbenzene; 1-Methyl-3-hydroxy-4-isopropylbenzene; 2-Hydroxy-1-isopropyl-4-methylbenzene; 2-Isopropyl-5-methylphenol; 3-Hydroxy-1-methyl-4-isopropylbenzene; 3-Hydroxy-p-cymene; 3-Methyl-6-isopropylphenol; 3-p-Cymenol; 5-Methyl-2-(1-methylethyl)phenol; 5-Methyl-2-isopropyl-1-phenol; 5-Methyl-2-isopropylphenol; 6-Isopropyl-3-methylphenol; 6-Isopropyl-m-cresol; Cymophenol, alpha-; Isopropyl cresol; Phenol, 2-isopropyl-5-methyl-; Phenol, 5-methyl-2-(1-methylethyl)-; Thyme camphor; Thymic acid; Thymol (natural); m-Cresol, 6-isopropyl-; m-Thymol; p-Cymen-3-ol; p-Cymene, 3-hydroxy-; [ChemIDplus]",
        "links": [],
        "cross_references": [
          {
            "type": "name_match",
            "text": "benzene",
            "confidence": 1.0,
            "uuid": "b05124de-5f34-4c14-8f04-ccb20c3780d9",
            "name": "Benzene",
            "url": "https://haz-map.com/Agents/5",
            "category": "agents"
          },
          {
            "type": "name_match",
            "text": "phenol",
            "confidence": 1.0,
            "uuid": "03141a03-a7df-4f51-9a37-adde1a7c4b31",
            "name": "Phenol",
            "url": "https://haz-map.com/Agents/84",
            "category": "agents"
          },
          {
            "type": "name_match",
            "text": "thymol",
            "confidence": 1.0,
            "uuid": "07226c9f-5add-4c34-9f8f-8a313cb1eecf",
            "name": "Thymol",
            "url": "https://haz-map.com/Agents/7436",
            "category": "agents"
          },
          {
            "type": "name_match",
            "text": "p-cymene",
            "confidence": 1.0,
            "uuid": "7c26b58e-9cb6-494e-9133-ac247d5e5d43",
            "name": "p-Cymene",
            "url": "https://haz-map.com/Agents/8267",
            "category": "agents"
          },
          {
            "type": "name_match",
            "text": "m-cresol",
            "confidence": 1.0,
            "uuid": "33975f23-f0cb-49a7-a631-36f1ad4f95de",
            "name": "m-Cresol",
            "url": "https://haz-map.com/Agents/15395",
            "category": "agents"
          },
          {
            "type": "name_match",
            "text": "2-isopropylphenol",
            "confidence": 1.0,
            "uuid": "398b4491-c25c-4579-bad0-b7cf7717a836",
            "name": "2-Isopropylphenol",
            "url": "https://haz-map.com/Agents/19630",
            "category": "agents"
          }
        ]
      },
      "category": {
        "original_name": "Category",
        "value": "Plant Oils and Extracts",
        "links": [],
        "cross_references": []
      },
      "description": {
        "original_name": "Description",
        "value": "Colorless or white solid with an herbal odor like thyme; [HSDB] White crystalline solid with an odor like phenol; [MSDSonline]",
        "links": [],
        "cross_references": [
          {
            "type": "name_match",
            "text": "phenol",
            "confidence": 1.0,
            "uuid": "03141a03-a7df-4f51-9a37-adde1a7c4b31",
            "name": "Phenol",
            "url": "https://haz-map.com/Agents/84",
            "category": "agents"
          },
          {
            "type": "fuzzy_match",
            "text": "crystalline",
            "matched_name": "Silica, crystalline",
            "confidence": 0.7061403508771931,
            "uuid": "f920e8a2-46df-41b7-af8d-0368a777251e",
            "category": "agents",
            "url": "https://haz-map.com/Agents/427"
          }
        ]
      },
      "sourcesuses": {
        "original_name": "Sources/Uses",
        "value": "Found in essential oils of Thymus vulgaris and Monardo punctata and other volatile oils; [Merck Index] A natural oil of the plant thyme; [Reference #1] Used as a biocide (mold and mildew), preservative (documents, art objects, and urine), stabilizer (trichloroethylene, chloroform, and halothane), flavoring agent, starting material for racemic menthol, antioxidant, lab reagent, disinfectant in oral hygiene products, antiseptic and antifungal in therapeutic lotions and ointments, and veterinary anthelmintic and antiseptic; [HSDB]",
        "links": [],
        "cross_references": [
          {
            "type": "name_match",
            "text": "chloroform",
            "confidence": 1.0,
            "uuid": "c05794fb-7374-465e-8219-dc071fdda4a7",
            "name": "Chloroform",
            "url": "https://haz-map.com/Agents/53",
            "category": "agents"
          },
          {
            "type": "name_match",
            "text": "trichloroethylene",
            "confidence": 1.0,
            "uuid": "85abbb53-907c-49a5-8d79-eb7a10a060a9",
            "name": "Trichloroethylene",
            "url": "https://haz-map.com/Agents/93",
            "category": "agents"
          },
          {
            "type": "name_match",
            "text": "halothane",
            "confidence": 1.0,
            "uuid": "745f16d7-779d-4b91-b2d0-82b7820cf563",
            "name": "Halothane",
            "url": "https://haz-map.com/Agents/205",
            "category": "agents"
          },
          {
            "type": "name_match",
            "text": "ethylene",
            "confidence": 1.0,
            "uuid": "958eacc0-5135-4b62-bb93-6df972bf552f",
            "name": "Ethylene",
            "url": "https://haz-map.com/Agents/1076",
            "category": "agents"
          },
          {
            "type": "name_match",
            "text": "menthol",
            "confidence": 1.0,
            "uuid": "3997b2ab-a5d2-4a7e-a2c6-4a1ad2e57b50",
            "name": "Menthol",
            "url": "https://haz-map.com/Agents/5943",
            "category": "agents"
          }
        ]
      },
      "comments": {
        "original_name": "Comments",
        "value": "Mild irritant with systemic effects similar to those of phenol; If ingested causes stomach pain, vomiting, and hyperactivity; Can cause convulsions and coma; Emergency treatment: \"Phenol and related agents\"; [HSDB] Causes somnolence, ataxia, and coma at lethal doses in rats; [RTECS] Can cause burns; [eChemPortal: ESIS] No increased birth defects in 52 pregnancies with exposure during the first trimester; [REPROTOX] Safe when used as a flavoring agent in food; [JECFA] Causes burns; Harmful if swallowed; [Aldrich MSDS] See \"Phenol.\"",
        "links": [],
        "cross_references": [
          {
            "type": "name_match",
            "text": "convulsion",
            "confidence": 1.0,
            "uuid": "af2c36f8-707a-48e3-a62b-1aa07adc9b72",
            "name": "convulsion",
            "url": "https://haz-map.com/Findings/14",
            "category": "findings"
          },
          {
            "type": "name_match",
            "text": "burn",
            "confidence": 1.0,
            "uuid": "63665de5-6376-4918-8dbf-4c10c4d63837",
            "name": "burn",
            "url": "https://haz-map.com/Findings/204",
            "category": "findings"
          },
          {
            "type": "name_match",
            "text": "phenol",
            "confidence": 1.0,
            "uuid": "03141a03-a7df-4f51-9a37-adde1a7c4b31",
            "name": "Phenol",
            "url": "https://haz-map.com/Agents/84",
            "category": "agents"
          }
        ]
      },
      "reference_link_1": {
        "original_name": "Reference Link #1",
        "value": "EPA Pesticide Chemical Search",
        "links": [
          {
            "text": "EPA Pesticide Chemical Search",
            "url": "https://iaspub.epa.gov/apex/pesticides/f?p=CHEMICALSEARCH:1:"
          }
        ],
        "cross_references": [
          {
            "type": "name_match",
            "text": "mica",
            "confidence": 1.0,
            "uuid": "433f26f1-c399-4596-b179-ce3843cfd465",
            "name": "Mica",
            "url": "https://haz-map.com/Agents/621",
            "category": "agents"
          }
        ]
      },
      "biomedical_references": {
        "original_name": "Biomedical References",
        "value": "Search PubMed",
        "links": [
          {
            "text": "Search PubMed",
            "url": "https://www.ncbi.nlm.nih.gov/pubmed?term=Thymol%20AND%20human%5Bmh%5D%20AND%20%28Occupational%20Diseases%20%5Bmh%5D%20OR%20Occupational%20Exposure%20%5Bmh%5D%29%20%20AND%20%28tox%5Bsb%5D%29&cmd=search"
          }
        ],
        "cross_references": []
      }
    },
    "exposure_assessment": {
      "vapor_pressure": {
        "original_name": "Vapor Pressure",
        "value": "0.0022 mm Hg",
        "links": [],
        "cross_references": []
      },
      "odor_threshold_low": {
        "original_name": "Odor Threshold Low",
        "value": "0.001 ppm",
        "links": [],
        "cross_references": []
      },
      "odor_threshold_high": {
        "original_name": "Odor Threshold High",
        "value": "0.01 ppm",
        "links": [],
        "cross_references": []
      },
      "explanatory_notes": {
        "original_name": "Explanatory Notes",
        "value": "Odor threshold (detection) = 0.001-0.01 ppm; [CHEMINFO]",
        "links": [],
        "cross_references": []
      }
    },
    "adverse_effects": {
      "neurotoxin": {
        "original_name": "Neurotoxin",
        "value": "Other CNS neurotoxin",
        "links": [],
        "cross_references": []
      },
      "dermatotoxin": {
        "original_name": "Dermatotoxin",
        "value": "Skin burns",
        "links": [],
        "cross_references": [
          {
            "type": "name_match",
            "text": "burn",
            "confidence": 1.0,
            "uuid": "63665de5-6376-4918-8dbf-4c10c4d63837",
            "name": "burn",
            "url": "https://haz-map.com/Findings/204",
            "category": "findings"
          }
        ]
      }
    },
    "diseases_processes_and_activities_linked_to_this_agent": {
      "processes": {
        "original_name": "Processes",
        "value": "Industrial Processes with risk of exposure: Using Disinfectants or Biocides",
        "links": [
          {
            "text": "Using Disinfectants or Biocides",
            "url": "https://haz-map.com/Processes/167"
          }
        ],
        "cross_references": [
          {
            "type": "url_match",
            "text": "Using Disinfectants or Biocides",
            "url": "https://haz-map.com/Processes/167",
            "confidence": 1.0,
            "uuid": "7accb745-ad60-4ef8-9039-8ac4febb8fd8",
            "name": "Using Disinfectants or Biocides",
            "category": "processes"
          }
        ]
      }
    }
  },
  "cross_references": [
    {
      "type": "url_match",
      "text": "Using Disinfectants or Biocides",
      "url": "https://haz-map.com/Processes/167",
      "confidence": 1.0,
      "uuid": "7accb745-ad60-4ef8-9039-8ac4febb8fd8",
      "name": "Using Disinfectants or Biocides",
      "category": "processes"
    },
    {
      "type": "name_match",
      "text": "convulsion",
      "confidence": 1.0,
      "uuid": "af2c36f8-707a-48e3-a62b-1aa07adc9b72",
      "name": "convulsion",
      "url": "https://haz-map.com/Findings/14",
      "category": "findings"
    },
    {
      "type": "name_match",
      "text": "burn",
      "confidence": 1.0,
      "uuid": "63665de5-6376-4918-8dbf-4c10c4d63837",
      "name": "burn",
      "url": "https://haz-map.com/Findings/204",
      "category": "findings"
    },
    {
      "type": "name_match",
      "text": "benzene",
      "confidence": 1.0,
      "uuid": "b05124de-5f34-4c14-8f04-ccb20c3780d9",
      "name": "Benzene",
      "url": "https://haz-map.com/Agents/5",
      "category": "agents"
    },
    {
      "type": "name_match",
      "text": "chloroform",
      "confidence": 1.0,
      "uuid": "c05794fb-7374-465e-8219-dc071fdda4a7",
      "name": "Chloroform",
      "url": "https://haz-map.com/Agents/53",
      "category": "agents"
    },
    {
      "type": "name_match",
      "text": "phenol",
      "confidence": 1.0,
      "uuid": "03141a03-a7df-4f51-9a37-adde1a7c4b31",
      "name": "Phenol",
      "url": "https://haz-map.com/Agents/84",
      "category": "agents"
    },
    {
      "type": "name_match",
      "text": "trichloroethylene",
      "confidence": 1.0,
      "uuid": "85abbb53-907c-49a5-8d79-eb7a10a060a9",
      "name": "Trichloroethylene",
      "url": "https://haz-map.com/Agents/93",
      "category": "agents"
    },
    {
      "type": "name_match",
      "text": "halothane",
      "confidence": 1.0,
      "uuid": "745f16d7-779d-4b91-b2d0-82b7820cf563",
      "name": "Halothane",
      "url": "https://haz-map.com/Agents/205",
      "category": "agents"
    },
    {
      "type": "name_match",
      "text": "mica",
      "confidence": 1.0,
      "uuid": "433f26f1-c399-4596-b179-ce3843cfd465",
      "name": "Mica",
      "url": "https://haz-map.com/Agents/621",
      "category": "agents"
    },
    {
      "type": "name_match",
      "text": "ethylene",
      "confidence": 1.0,
      "uuid": "958eacc0-5135-4b62-bb93-6df972bf552f",
      "name": "Ethylene",
      "url": "https://haz-map.com/Agents/1076",
      "category": "agents"
    },
    {
      "type": "name_match",
      "text": "menthol",
      "confidence": 1.0,
      "uuid": "3997b2ab-a5d2-4a7e-a2c6-4a1ad2e57b50",
      "name": "Menthol",
      "url": "https://haz-map.com/Agents/5943",
      "category": "agents"
    },
    {
      "type": "name_match",
      "text": "thymol",
      "confidence": 1.0,
      "uuid": "07226c9f-5add-4c34-9f8f-8a313cb1eecf",
      "name": "Thymol",
      "url": "https://haz-map.com/Agents/7436",
      "category": "agents"
    },
    {
      "type": "name_match",
      "text": "p-cymene",
      "confidence": 1.0,
      "uuid": "7c26b58e-9cb6-494e-9133-ac247d5e5d43",
      "name": "p-Cymene",
      "url": "https://haz-map.com/Agents/8267",
      "category": "agents"
    },
    {
      "type": "name_match",
      "text": "m-cresol",
      "confidence": 1.0,
      "uuid": "33975f23-f0cb-49a7-a631-36f1ad4f95de",
      "name": "m-Cresol",
      "url": "https://haz-map.com/Agents/15395",
      "category": "agents"
    },
    {
      "type": "name_match",
      "text": "2-isopropylphenol",
      "confidence": 1.0,
      "uuid": "398b4491-c25c-4579-bad0-b7cf7717a836",
      "name": "2-Isopropylphenol",
      "url": "https://haz-map.com/Agents/19630",
      "category": "agents"
    },
    {
      "type": "fuzzy_match",
      "text": "crystalline",
      "matched_name": "Silica, crystalline",
      "confidence": 0.7061403508771931,
      "uuid": "f920e8a2-46df-41b7-af8d-0368a777251e",
      "category": "agents",
      "url": "https://haz-map.com/Agents/427"
    }
  ],
  "all_links": [
    {
      "text": "EPA Pesticide Chemical Search",
      "url": "https://iaspub.epa.gov/apex/pesticides/f?p=CHEMICALSEARCH:1:"
    },
    {
      "text": "Search PubMed",
      "url": "https://www.ncbi.nlm.nih.gov/pubmed?term=Thymol%20AND%20human%5Bmh%5D%20AND%20%28Occupational%20Diseases%20%5Bmh%5D%20OR%20Occupational%20Exposure%20%5Bmh%5D%29%20%20AND%20%28tox%5Bsb%5D%29&cmd=search"
    },
    {
      "text": "Using Disinfectants or Biocides",
      "url": "https://haz-map.com/Processes/167"
    }
  ]
}