{
  "metadata": {
    "scraped_from": "https://haz-map.com/Agents/566",
    "entity_name": "Nicotine",
    "category": "agents",
    "uuid": "07bfdaa7-cb27-4f79-8544-77b3bc05d2e6",
    "scraped_at": "2025-07-23T18:44:31.215244"
  },
  "parsed_at": "2025-07-24T00:54:11.077029",
  "title": "Nicotine",
  "sections": {
    "general": {
      "agent_name": {
        "original_name": "Agent Name",
        "value": "Nicotine",
        "links": [],
        "cross_references": [
          {
            "type": "name_match",
            "text": "nicotine",
            "confidence": 1.0,
            "uuid": "07bfdaa7-cb27-4f79-8544-77b3bc05d2e6",
            "name": "Nicotine",
            "url": "https://haz-map.com/Agents/566",
            "category": "agents"
          }
        ]
      },
      "cas_number": {
        "original_name": "CAS Number",
        "value": "54-11-5",
        "links": [],
        "cross_references": []
      },
      "formula": {
        "original_name": "Formula",
        "value": "C10-H14-N2",
        "links": [],
        "cross_references": []
      },
      "major_category": {
        "original_name": "Major Category",
        "value": "Biological Agents",
        "links": [],
        "cross_references": []
      },
      "synonyms": {
        "original_name": "Synonyms",
        "value": "3-(1-Methyl-2-pyrrolidyl)pyridine, (S)-; [NIOSH] Black Leaf 40; [Olson, p. 298]",
        "links": [],
        "cross_references": [
          {
            "type": "name_match",
            "text": "pyridine",
            "confidence": 1.0,
            "uuid": "a2d916a4-844b-4df6-9be5-868b2b364d71",
            "name": "Pyridine",
            "url": "https://haz-map.com/Agents/616",
            "category": "agents"
          }
        ]
      },
      "category": {
        "original_name": "Category",
        "value": "Plant Toxins",
        "links": [],
        "cross_references": []
      },
      "description": {
        "original_name": "Description",
        "value": "Pale-yellow to dark-brown liquid with a fish-like odor when warm. [insecticide] [NIOSH]",
        "links": [],
        "cross_references": []
      },
      "sourcesuses": {
        "original_name": "Sources/Uses",
        "value": "Used in medicine and as an insecticide; [ACGIH] Used in pesticides, e.g., Black Leaf 40 that contains 40% nicotine sulfate; Other alkaloids similar to nicotine produced by plants are anabasine, cytisine, coniine, and lobeline. [Olson, p. 337]",
        "links": [],
        "cross_references": [
          {
            "type": "name_match",
            "text": "nicotine",
            "confidence": 1.0,
            "uuid": "07bfdaa7-cb27-4f79-8544-77b3bc05d2e6",
            "name": "Nicotine",
            "url": "https://haz-map.com/Agents/566",
            "category": "agents"
          },
          {
            "type": "name_match",
            "text": "anabasine",
            "confidence": 1.0,
            "uuid": "e61f8825-94e5-4f6c-9d8c-0637bee901aa",
            "name": "Anabasine",
            "url": "https://haz-map.com/Agents/3693",
            "category": "agents"
          },
          {
            "type": "name_match",
            "text": "coniine",
            "confidence": 1.0,
            "uuid": "f4d8243e-f874-41ea-bd9c-2c052f16b8c7",
            "name": "Coniine",
            "url": "https://haz-map.com/Agents/4496",
            "category": "agents"
          }
        ]
      },
      "comments": {
        "original_name": "Comments",
        "value": "The use of nicotine as an insecticide was popular in the 1920s and 1930s when cases of occupational poisoning were reported. Lethal effects are due to a curare-like respiratory arrest. [ACGIH] Symptoms of mild poisoning are nausea and vomiting. The cholinergic syndrome (diarrhea, increased salivation and respiratory secretions, and bradycardia) is seen in more severe poisoning. Seizures and respiratory depression are rare complications of severe poisoning. Green tobacco sickness due to skin absorption of nicotine has been described in workers who handle tobacco. [Ford, p. 985]",
        "links": [],
        "cross_references": [
          {
            "type": "name_match",
            "text": "diarrhea",
            "confidence": 1.0,
            "uuid": "001ae7b5-5f3c-42c2-bc33-81e7581abd53",
            "name": "diarrhea",
            "url": "https://haz-map.com/Findings/15",
            "category": "findings"
          },
          {
            "type": "name_match",
            "text": "bradycardia",
            "confidence": 1.0,
            "uuid": "7a17508f-d651-458e-9047-8a017f202133",
            "name": "bradycardia",
            "url": "https://haz-map.com/Findings/127",
            "category": "findings"
          },
          {
            "type": "name_match",
            "text": "salivation",
            "confidence": 1.0,
            "uuid": "d550cdee-2f13-48a0-b762-d0f4163d79c2",
            "name": "salivation",
            "url": "https://haz-map.com/Findings/136",
            "category": "findings"
          },
          {
            "type": "name_match",
            "text": "nicotine",
            "confidence": 1.0,
            "uuid": "07bfdaa7-cb27-4f79-8544-77b3bc05d2e6",
            "name": "Nicotine",
            "url": "https://haz-map.com/Agents/566",
            "category": "agents"
          },
          {
            "type": "name_match",
            "text": "choline",
            "confidence": 1.0,
            "uuid": "a21a71e9-9d67-4563-9da2-98c4dcb1b766",
            "name": "Choline",
            "url": "https://haz-map.com/Agents/12978",
            "category": "agents"
          }
        ]
      },
      "reference_link_1": {
        "original_name": "Reference Link #1",
        "value": "Detection of green tobacco sickness by a regional poison center.",
        "links": [
          {
            "text": "Detection of green tobacco sickness by a regional poison center.",
            "url": "http://www.ncbi.nlm.nih.gov/sites/entrez?Db=pubmed&Cmd=ShowDetailView&TermToSearch=7900265&ordinalpos=7&itool=EntrezSystem2.PEntrez.Pubmed.Pubmed_ResultsPanel.Pubmed_RVDocSum"
          }
        ],
        "cross_references": []
      },
      "biomedical_references": {
        "original_name": "Biomedical References",
        "value": "Search PubMed",
        "links": [
          {
            "text": "Search PubMed",
            "url": "https://www.ncbi.nlm.nih.gov/pubmed?term=Nicotine%20AND%20human%5Bmh%5D%20AND%20%28Occupational%20Diseases%20%5Bmh%5D%20OR%20Occupational%20Exposure%20%5Bmh%5D%29%20%20AND%20%28tox%5Bsb%5D%29&cmd=search"
          }
        ],
        "cross_references": []
      }
    },
    "exposure_assessment": {
      "skin_designation_acgih": {
        "original_name": "Skin Designation (ACGIH)",
        "value": "Yes",
        "links": [],
        "cross_references": []
      },
      "tlv_acgih": {
        "original_name": "TLV (ACGIH)",
        "value": "0.5 mg/m3",
        "links": [],
        "cross_references": []
      },
      "pel_osha": {
        "original_name": "PEL (OSHA)",
        "value": "0.5 mg/m3",
        "links": [],
        "cross_references": []
      },
      "idlh_niosh": {
        "original_name": "IDLH (NIOSH)",
        "value": "5 mg/m3",
        "links": [],
        "cross_references": []
      },
      "excerpts_from_documentation_for_idlhs": {
        "original_name": "Excerpts from Documentation for IDLHs",
        "value": "Human data: The fatal human dose has been estimated to be about 50 to 60 mg [Lazutka et al. 1969]. [Note: An oral dose of 50 to 60 mg/kg is equivalent to a 70­kg worker being exposed to about 30 to 40 mg/m3 for 30 minutes, assuming a breathing rate of 50 liters per minute and 100% absorption.",
        "links": [],
        "cross_references": []
      },
      "vapor_pressure": {
        "original_name": "Vapor Pressure",
        "value": "0.08 mm Hg",
        "links": [],
        "cross_references": []
      },
      "reference_link_2": {
        "original_name": "Reference Link #2",
        "value": "EPA Pesticide Chemical Search",
        "links": [
          {
            "text": "EPA Pesticide Chemical Search",
            "url": "https://iaspub.epa.gov/apex/pesticides/f?p=CHEMICALSEARCH:1:"
          }
        ],
        "cross_references": [
          {
            "type": "name_match",
            "text": "mica",
            "confidence": 1.0,
            "uuid": "433f26f1-c399-4596-b179-ce3843cfd465",
            "name": "Mica",
            "url": "https://haz-map.com/Agents/621",
            "category": "agents"
          }
        ]
      },
      "nfpa": {
        "original_name": "NFPA",
        "value": "must be preheated",
        "links": [],
        "cross_references": []
      }
    },
    "adverse_effects": {
      "neurotoxin": {
        "original_name": "Neurotoxin",
        "value": "Other CNS neurotoxin",
        "links": [],
        "cross_references": []
      }
    },
    "diseases_processes_and_activities_linked_to_this_agent": {
      "activities": {
        "original_name": "Activities",
        "value": "Activities with risk of exposure: Smoking cigarettes",
        "links": [
          {
            "text": "Smoking cigarettes",
            "url": "https://haz-map.com/Activities/23"
          }
        ],
        "cross_references": [
          {
            "type": "url_match",
            "text": "Smoking cigarettes",
            "url": "https://haz-map.com/Activities/23",
            "confidence": 1.0,
            "uuid": "029b0365-ef9e-4b34-b73b-b632a6485ce3",
            "name": "Smoking cigarettes",
            "category": "activities"
          }
        ]
      }
    }
  },
  "cross_references": [
    {
      "type": "url_match",
      "text": "Smoking cigarettes",
      "url": "https://haz-map.com/Activities/23",
      "confidence": 1.0,
      "uuid": "029b0365-ef9e-4b34-b73b-b632a6485ce3",
      "name": "Smoking cigarettes",
      "category": "activities"
    },
    {
      "type": "name_match",
      "text": "diarrhea",
      "confidence": 1.0,
      "uuid": "001ae7b5-5f3c-42c2-bc33-81e7581abd53",
      "name": "diarrhea",
      "url": "https://haz-map.com/Findings/15",
      "category": "findings"
    },
    {
      "type": "name_match",
      "text": "bradycardia",
      "confidence": 1.0,
      "uuid": "7a17508f-d651-458e-9047-8a017f202133",
      "name": "bradycardia",
      "url": "https://haz-map.com/Findings/127",
      "category": "findings"
    },
    {
      "type": "name_match",
      "text": "salivation",
      "confidence": 1.0,
      "uuid": "d550cdee-2f13-48a0-b762-d0f4163d79c2",
      "name": "salivation",
      "url": "https://haz-map.com/Findings/136",
      "category": "findings"
    },
    {
      "type": "name_match",
      "text": "nicotine",
      "confidence": 1.0,
      "uuid": "07bfdaa7-cb27-4f79-8544-77b3bc05d2e6",
      "name": "Nicotine",
      "url": "https://haz-map.com/Agents/566",
      "category": "agents"
    },
    {
      "type": "name_match",
      "text": "pyridine",
      "confidence": 1.0,
      "uuid": "a2d916a4-844b-4df6-9be5-868b2b364d71",
      "name": "Pyridine",
      "url": "https://haz-map.com/Agents/616",
      "category": "agents"
    },
    {
      "type": "name_match",
      "text": "mica",
      "confidence": 1.0,
      "uuid": "433f26f1-c399-4596-b179-ce3843cfd465",
      "name": "Mica",
      "url": "https://haz-map.com/Agents/621",
      "category": "agents"
    },
    {
      "type": "name_match",
      "text": "anabasine",
      "confidence": 1.0,
      "uuid": "e61f8825-94e5-4f6c-9d8c-0637bee901aa",
      "name": "Anabasine",
      "url": "https://haz-map.com/Agents/3693",
      "category": "agents"
    },
    {
      "type": "name_match",
      "text": "coniine",
      "confidence": 1.0,
      "uuid": "f4d8243e-f874-41ea-bd9c-2c052f16b8c7",
      "name": "Coniine",
      "url": "https://haz-map.com/Agents/4496",
      "category": "agents"
    },
    {
      "type": "name_match",
      "text": "choline",
      "confidence": 1.0,
      "uuid": "a21a71e9-9d67-4563-9da2-98c4dcb1b766",
      "name": "Choline",
      "url": "https://haz-map.com/Agents/12978",
      "category": "agents"
    }
  ],
  "all_links": [
    {
      "text": "Detection of green tobacco sickness by a regional poison center.",
      "url": "http://www.ncbi.nlm.nih.gov/sites/entrez?Db=pubmed&Cmd=ShowDetailView&TermToSearch=7900265&ordinalpos=7&itool=EntrezSystem2.PEntrez.Pubmed.Pubmed_ResultsPanel.Pubmed_RVDocSum"
    },
    {
      "text": "Search PubMed",
      "url": "https://www.ncbi.nlm.nih.gov/pubmed?term=Nicotine%20AND%20human%5Bmh%5D%20AND%20%28Occupational%20Diseases%20%5Bmh%5D%20OR%20Occupational%20Exposure%20%5Bmh%5D%29%20%20AND%20%28tox%5Bsb%5D%29&cmd=search"
    },
    {
      "text": "EPA Pesticide Chemical Search",
      "url": "https://iaspub.epa.gov/apex/pesticides/f?p=CHEMICALSEARCH:1:"
    },
    {
      "text": "Smoking cigarettes",
      "url": "https://haz-map.com/Activities/23"
    }
  ]
}