{
  "metadata": {
    "scraped_from": "https://haz-map.com/Agents/18353",
    "entity_name": "Trimethylaluminum",
    "category": "agents",
    "uuid": "07d36ac5-5684-4a33-9f7d-6fb8f12bd3f4",
    "scraped_at": "2025-07-23T21:54:43.311233"
  },
  "parsed_at": "2025-07-24T01:11:57.162420",
  "title": "Trimethylaluminum",
  "sections": {
    "general": {
      "agent_name": {
        "original_name": "Agent Name",
        "value": "Trimethylaluminum",
        "links": [],
        "cross_references": [
          {
            "type": "name_match",
            "text": "aluminum",
            "confidence": 1.0,
            "uuid": "60ab7471-1af2-4a33-b727-63fa1e1fa189",
            "name": "Aluminum",
            "url": "https://haz-map.com/Agents/287",
            "category": "agents"
          },
          {
            "type": "name_match",
            "text": "methylal",
            "confidence": 1.0,
            "uuid": "27aa92c4-7ed1-4f60-8903-41e72d99556f",
            "name": "Methylal",
            "url": "https://haz-map.com/Agents/555",
            "category": "agents"
          },
          {
            "type": "name_match",
            "text": "trimethylaluminum",
            "confidence": 1.0,
            "uuid": "07d36ac5-5684-4a33-9f7d-6fb8f12bd3f4",
            "name": "Trimethylaluminum",
            "url": "https://haz-map.com/Agents/18353",
            "category": "agents"
          }
        ]
      },
      "cas_number": {
        "original_name": "CAS Number",
        "value": "75-24-1",
        "links": [],
        "cross_references": []
      },
      "formula": {
        "original_name": "Formula",
        "value": "C3-H9-Al",
        "links": [],
        "cross_references": []
      },
      "major_category": {
        "original_name": "Major Category",
        "value": "Metals",
        "links": [],
        "cross_references": []
      },
      "synonyms": {
        "original_name": "Synonyms",
        "value": "Aluminum, trimethyl-; Trimethylalane; Trimethylaluminium; [ChemIDplus] Aluminum trimethyl; Aluminum trimethanide; TMA; [Merck Index] UN3394",
        "links": [],
        "cross_references": [
          {
            "type": "name_match",
            "text": "aluminum",
            "confidence": 1.0,
            "uuid": "60ab7471-1af2-4a33-b727-63fa1e1fa189",
            "name": "Aluminum",
            "url": "https://haz-map.com/Agents/287",
            "category": "agents"
          },
          {
            "type": "name_match",
            "text": "methylal",
            "confidence": 1.0,
            "uuid": "27aa92c4-7ed1-4f60-8903-41e72d99556f",
            "name": "Methylal",
            "url": "https://haz-map.com/Agents/555",
            "category": "agents"
          }
        ]
      },
      "category": {
        "original_name": "Category",
        "value": "Metals, Organic Compounds",
        "links": [],
        "cross_references": [
          {
            "type": "fuzzy_match",
            "text": "organic compounds",
            "matched_name": "Tin, organic compounds",
            "confidence": 0.8196969696969697,
            "uuid": "e027d413-8869-4308-9eb2-27d768b011ea",
            "category": "agents",
            "url": "https://haz-map.com/Agents/656"
          }
        ]
      },
      "description": {
        "original_name": "Description",
        "value": "Clear colorless liquid; mp = 15 deg C; [Merck Index]",
        "links": [],
        "cross_references": []
      },
      "sourcesuses": {
        "original_name": "Sources/Uses",
        "value": "Used as a reagent and catalyst in organic chemistry and as a source of aluminum in semiconductors; [Merck Index]",
        "links": [],
        "cross_references": [
          {
            "type": "name_match",
            "text": "aluminum",
            "confidence": 1.0,
            "uuid": "60ab7471-1af2-4a33-b727-63fa1e1fa189",
            "name": "Aluminum",
            "url": "https://haz-map.com/Agents/287",
            "category": "agents"
          }
        ]
      },
      "comments": {
        "original_name": "Comments",
        "value": "Pyrophoric and corrosive; Reacts violently with water; [Merck Index] Pyrophoric; Reacts violently with water evolving flammable gases; Causes burns; Inhalation may cause corrosive injuries to upper respiratory tract; [Sigma-Aldrich MSDS] See \"Triethylaluminum.\"",
        "links": [],
        "cross_references": [
          {
            "type": "name_match",
            "text": "burn",
            "confidence": 1.0,
            "uuid": "63665de5-6376-4918-8dbf-4c10c4d63837",
            "name": "burn",
            "url": "https://haz-map.com/Findings/204",
            "category": "findings"
          },
          {
            "type": "name_match",
            "text": "aluminum",
            "confidence": 1.0,
            "uuid": "60ab7471-1af2-4a33-b727-63fa1e1fa189",
            "name": "Aluminum",
            "url": "https://haz-map.com/Agents/287",
            "category": "agents"
          },
          {
            "type": "name_match",
            "text": "triethylaluminum",
            "confidence": 1.0,
            "uuid": "07e59d15-3b4b-45ea-be4c-dbbcf90e135c",
            "name": "Triethylaluminum",
            "url": "https://haz-map.com/Agents/1582",
            "category": "agents"
          },
          {
            "type": "name_match",
            "text": "water",
            "confidence": 1.0,
            "uuid": "6f2a7557-dfd2-49bc-9b4b-a93cd8e225d4",
            "name": "Water",
            "url": "https://haz-map.com/Agents/18668",
            "category": "agents"
          }
        ]
      },
      "biomedical_references": {
        "original_name": "Biomedical References",
        "value": "Search PubMed",
        "links": [
          {
            "text": "Search PubMed",
            "url": "https://www.ncbi.nlm.nih.gov/pubmed?term=Trimethylaluminum%20AND%20human%5Bmh%5D%20AND%20%28Occupational%20Diseases%20%5Bmh%5D%20OR%20Occupational%20Exposure%20%5Bmh%5D%29%20%20AND%20%28tox%5Bsb%5D%29&cmd=search"
          }
        ],
        "cross_references": []
      }
    },
    "exposure_assessment": {
      "vapor_pressure": {
        "original_name": "Vapor Pressure",
        "value": "12.4 mm Hg",
        "links": [],
        "cross_references": []
      },
      "explanatory_notes": {
        "original_name": "Explanatory Notes",
        "value": "The Guide in the Emergency Response Guidebook is for \"Organometallic substance, liquid, pyrophoric, water-reactive.\"",
        "links": [],
        "cross_references": [
          {
            "type": "name_match",
            "text": "water",
            "confidence": 1.0,
            "uuid": "6f2a7557-dfd2-49bc-9b4b-a93cd8e225d4",
            "name": "Water",
            "url": "https://haz-map.com/Agents/18668",
            "category": "agents"
          }
        ]
      }
    },
    "adverse_effects": {
      "toxic_pneumonitis": {
        "original_name": "Toxic Pneumonitis",
        "value": "Yes",
        "links": [],
        "cross_references": []
      },
      "dermatotoxin": {
        "original_name": "Dermatotoxin",
        "value": "Skin burns",
        "links": [],
        "cross_references": [
          {
            "type": "name_match",
            "text": "burn",
            "confidence": 1.0,
            "uuid": "63665de5-6376-4918-8dbf-4c10c4d63837",
            "name": "burn",
            "url": "https://haz-map.com/Findings/204",
            "category": "findings"
          }
        ]
      }
    },
    "diseases_processes_and_activities_linked_to_this_agent": {
      "processes": {
        "original_name": "Processes",
        "value": "Industrial Processes with risk of exposure: Semiconductor Manufacturing",
        "links": [
          {
            "text": "Semiconductor Manufacturing",
            "url": "https://haz-map.com/Processes/97"
          }
        ],
        "cross_references": [
          {
            "type": "url_match",
            "text": "Semiconductor Manufacturing",
            "url": "https://haz-map.com/Processes/97",
            "confidence": 1.0,
            "uuid": "a1adedb7-a724-4539-9aff-c43b42706b89",
            "name": "Semiconductor Manufacturing",
            "category": "processes"
          }
        ]
      }
    }
  },
  "cross_references": [
    {
      "type": "url_match",
      "text": "Semiconductor Manufacturing",
      "url": "https://haz-map.com/Processes/97",
      "confidence": 1.0,
      "uuid": "a1adedb7-a724-4539-9aff-c43b42706b89",
      "name": "Semiconductor Manufacturing",
      "category": "processes"
    },
    {
      "type": "name_match",
      "text": "burn",
      "confidence": 1.0,
      "uuid": "63665de5-6376-4918-8dbf-4c10c4d63837",
      "name": "burn",
      "url": "https://haz-map.com/Findings/204",
      "category": "findings"
    },
    {
      "type": "name_match",
      "text": "aluminum",
      "confidence": 1.0,
      "uuid": "60ab7471-1af2-4a33-b727-63fa1e1fa189",
      "name": "Aluminum",
      "url": "https://haz-map.com/Agents/287",
      "category": "agents"
    },
    {
      "type": "name_match",
      "text": "methylal",
      "confidence": 1.0,
      "uuid": "27aa92c4-7ed1-4f60-8903-41e72d99556f",
      "name": "Methylal",
      "url": "https://haz-map.com/Agents/555",
      "category": "agents"
    },
    {
      "type": "name_match",
      "text": "triethylaluminum",
      "confidence": 1.0,
      "uuid": "07e59d15-3b4b-45ea-be4c-dbbcf90e135c",
      "name": "Triethylaluminum",
      "url": "https://haz-map.com/Agents/1582",
      "category": "agents"
    },
    {
      "type": "name_match",
      "text": "trimethylaluminum",
      "confidence": 1.0,
      "uuid": "07d36ac5-5684-4a33-9f7d-6fb8f12bd3f4",
      "name": "Trimethylaluminum",
      "url": "https://haz-map.com/Agents/18353",
      "category": "agents"
    },
    {
      "type": "name_match",
      "text": "water",
      "confidence": 1.0,
      "uuid": "6f2a7557-dfd2-49bc-9b4b-a93cd8e225d4",
      "name": "Water",
      "url": "https://haz-map.com/Agents/18668",
      "category": "agents"
    },
    {
      "type": "fuzzy_match",
      "text": "organic compounds",
      "matched_name": "Tin, organic compounds",
      "confidence": 0.8196969696969697,
      "uuid": "e027d413-8869-4308-9eb2-27d768b011ea",
      "category": "agents",
      "url": "https://haz-map.com/Agents/656"
    }
  ],
  "all_links": [
    {
      "text": "Search PubMed",
      "url": "https://www.ncbi.nlm.nih.gov/pubmed?term=Trimethylaluminum%20AND%20human%5Bmh%5D%20AND%20%28Occupational%20Diseases%20%5Bmh%5D%20OR%20Occupational%20Exposure%20%5Bmh%5D%29%20%20AND%20%28tox%5Bsb%5D%29&cmd=search"
    },
    {
      "text": "Semiconductor Manufacturing",
      "url": "https://haz-map.com/Processes/97"
    }
  ]
}