{
  "metadata": {
    "scraped_from": "https://haz-map.com/Agents/18711",
    "entity_name": "Xylitol",
    "category": "agents",
    "uuid": "07fac7ab-5181-460d-8298-2f76146c19b8",
    "scraped_at": "2025-07-23T21:57:18.258242"
  },
  "parsed_at": "2025-07-24T01:15:28.966109",
  "title": "Xylitol",
  "sections": {
    "general": {
      "agent_name": {
        "original_name": "Agent Name",
        "value": "Xylitol",
        "links": [],
        "cross_references": [
          {
            "type": "name_match",
            "text": "xylitol",
            "confidence": 1.0,
            "uuid": "07fac7ab-5181-460d-8298-2f76146c19b8",
            "name": "Xylitol",
            "url": "https://haz-map.com/Agents/18711",
            "category": "agents"
          }
        ]
      },
      "cas_number": {
        "original_name": "CAS Number",
        "value": "87-99-0",
        "links": [],
        "cross_references": []
      },
      "formula": {
        "original_name": "Formula",
        "value": "C5-H12-O5",
        "links": [],
        "cross_references": []
      },
      "major_category": {
        "original_name": "Major Category",
        "value": "Biological Agents",
        "links": [],
        "cross_references": []
      },
      "synonyms": {
        "original_name": "Synonyms",
        "value": "Eutrit; Kannit; Klinit; Newtol; Xylite; Xylite (sugar); Xyliton; [ChemIDplus] xylo-Pentane-1,2,3,4,5-pentol; Kylit; Torch; [Merck Index] XYLISORB; [IUCLID]",
        "links": [],
        "cross_references": []
      },
      "category": {
        "original_name": "Category",
        "value": "Monosaccharides and Derivatives",
        "links": [],
        "cross_references": []
      },
      "description": {
        "original_name": "Description",
        "value": "Solid; Metastable form is hygroscopic; [Merck Index] White Solid; Practically odorless; [JECFA] White odorless crystals or powder; Hygroscopic; [Alfa Aesar MSDS]",
        "links": [],
        "cross_references": []
      },
      "sourcesuses": {
        "original_name": "Sources/Uses",
        "value": "Intermediate in D-glucose metabolism; Used as a nutrient and in anticaries products; [Merck Index] Used as a humectant and nutritive sweetener in foods; [FDA]",
        "links": [],
        "cross_references": [
          {
            "type": "name_match",
            "text": "glucose",
            "confidence": 1.0,
            "uuid": "329d86ed-6744-4566-825c-5247ed1a8f75",
            "name": "Glucose",
            "url": "https://haz-map.com/Agents/14413",
            "category": "agents"
          }
        ]
      },
      "comments": {
        "original_name": "Comments",
        "value": "Causes general anesthesia, ulceration or bleeding from the stomach, and other liver changes in oral lethal-dose studies of mice and rabbits; [RTECS] May cause irritation; [Alfa Aesar MSDS] See \"Mannitol.\"",
        "links": [],
        "cross_references": [
          {
            "type": "name_match",
            "text": "mannitol",
            "confidence": 1.0,
            "uuid": "1b4d029d-e798-4c03-8ec3-b7984b76817a",
            "name": "Mannitol",
            "url": "https://haz-map.com/Agents/15381",
            "category": "agents"
          }
        ]
      },
      "biomedical_references": {
        "original_name": "Biomedical References",
        "value": "Search PubMed",
        "links": [
          {
            "text": "Search PubMed",
            "url": "https://www.ncbi.nlm.nih.gov/pubmed?term=Xylitol%20AND%20human%5Bmh%5D%20AND%20%28Occupational%20Diseases%20%5Bmh%5D%20OR%20Occupational%20Exposure%20%5Bmh%5D%29%20%20AND%20%28tox%5Bsb%5D%29&cmd=search"
          }
        ],
        "cross_references": []
      }
    },
    "exposure_assessment": {
      "vapor_pressure": {
        "original_name": "Vapor Pressure",
        "value": "0.00247 mm Hg",
        "links": [],
        "cross_references": []
      }
    },
    "diseases_processes_and_activities_linked_to_this_agent": {
      "other_information": {
        "original_name": "Other Information",
        "value": "No other related information on this agent was found.",
        "links": [],
        "cross_references": []
      }
    }
  },
  "cross_references": [
    {
      "type": "name_match",
      "text": "glucose",
      "confidence": 1.0,
      "uuid": "329d86ed-6744-4566-825c-5247ed1a8f75",
      "name": "Glucose",
      "url": "https://haz-map.com/Agents/14413",
      "category": "agents"
    },
    {
      "type": "name_match",
      "text": "mannitol",
      "confidence": 1.0,
      "uuid": "1b4d029d-e798-4c03-8ec3-b7984b76817a",
      "name": "Mannitol",
      "url": "https://haz-map.com/Agents/15381",
      "category": "agents"
    },
    {
      "type": "name_match",
      "text": "xylitol",
      "confidence": 1.0,
      "uuid": "07fac7ab-5181-460d-8298-2f76146c19b8",
      "name": "Xylitol",
      "url": "https://haz-map.com/Agents/18711",
      "category": "agents"
    }
  ],
  "all_links": [
    {
      "text": "Search PubMed",
      "url": "https://www.ncbi.nlm.nih.gov/pubmed?term=Xylitol%20AND%20human%5Bmh%5D%20AND%20%28Occupational%20Diseases%20%5Bmh%5D%20OR%20Occupational%20Exposure%20%5Bmh%5D%29%20%20AND%20%28tox%5Bsb%5D%29&cmd=search"
    }
  ]
}