{
  "metadata": {
    "scraped_from": "https://haz-map.com/Agents/2042",
    "entity_name": "Sodium bicarbonate",
    "category": "agents",
    "uuid": "08176ad9-d2b8-4e11-a51b-f55b99122552",
    "scraped_at": "2025-07-23T19:09:06.761431"
  },
  "parsed_at": "2025-07-24T00:57:37.987074",
  "title": "Sodium bicarbonate",
  "sections": {
    "general": {
      "agent_name": {
        "original_name": "Agent Name",
        "value": "Sodium bicarbonate",
        "links": [],
        "cross_references": [
          {
            "type": "name_match",
            "text": "sodium",
            "confidence": 1.0,
            "uuid": "1adffc42-a4d8-44d5-81d6-7dbd96ef8a6f",
            "name": "Sodium",
            "url": "https://haz-map.com/Agents/1527",
            "category": "agents"
          },
          {
            "type": "name_match",
            "text": "carbon",
            "confidence": 1.0,
            "uuid": "b53f8815-ee80-40ef-b4aa-3b000e17dab5",
            "name": "Carbon",
            "url": "https://haz-map.com/Agents/1891",
            "category": "agents"
          },
          {
            "type": "name_match",
            "text": "sodium bicarbonate",
            "confidence": 1.0,
            "uuid": "08176ad9-d2b8-4e11-a51b-f55b99122552",
            "name": "Sodium bicarbonate",
            "url": "https://haz-map.com/Agents/2042",
            "category": "agents"
          }
        ]
      },
      "cas_number": {
        "original_name": "CAS Number",
        "value": "144-55-8",
        "links": [],
        "cross_references": []
      },
      "formula": {
        "original_name": "Formula",
        "value": "C-H2-O3.Na",
        "links": [],
        "cross_references": []
      },
      "major_category": {
        "original_name": "Major Category",
        "value": "Other Classes",
        "links": [],
        "cross_references": []
      },
      "synonyms": {
        "original_name": "Synonyms",
        "value": "Acidosan; Baking soda; Bicarbonate of soda; Carbonic acid monosodium salt; Col-evac; Jusonin; Meylon; Monosodium carbonate; Monosodium hydrogen carbonate; Natrii hydrogencarbonas; Natrium bicarbonicum; Natrium hydrogencarbonicum; Natriumhydrogenkarbonat; Natron; Neut; Sel De vichy; Soda (van); Soda Mint; Sodium acid carbonate; Sodium bicarbonate; Sodium carbonate (Na(HCO3)); Sodium hydrocarbonate; Sodium hydrogen carbonate; Soludal; [ChemIDplus]",
        "links": [],
        "cross_references": [
          {
            "type": "name_match",
            "text": "hydrogen",
            "confidence": 1.0,
            "uuid": "e2d9645f-5559-4d88-b820-fc4710c154f2",
            "name": "Hydrogen",
            "url": "https://haz-map.com/Agents/1070",
            "category": "agents"
          },
          {
            "type": "name_match",
            "text": "sodium",
            "confidence": 1.0,
            "uuid": "1adffc42-a4d8-44d5-81d6-7dbd96ef8a6f",
            "name": "Sodium",
            "url": "https://haz-map.com/Agents/1527",
            "category": "agents"
          },
          {
            "type": "name_match",
            "text": "carbon",
            "confidence": 1.0,
            "uuid": "b53f8815-ee80-40ef-b4aa-3b000e17dab5",
            "name": "Carbon",
            "url": "https://haz-map.com/Agents/1891",
            "category": "agents"
          },
          {
            "type": "name_match",
            "text": "sodium carbonate",
            "confidence": 1.0,
            "uuid": "697d22cc-b3ef-471f-88ab-0e3ed9359cdd",
            "name": "Sodium carbonate",
            "url": "https://haz-map.com/Agents/1996",
            "category": "agents"
          },
          {
            "type": "name_match",
            "text": "sodium bicarbonate",
            "confidence": 1.0,
            "uuid": "08176ad9-d2b8-4e11-a51b-f55b99122552",
            "name": "Sodium bicarbonate",
            "url": "https://haz-map.com/Agents/2042",
            "category": "agents"
          },
          {
            "type": "name_match",
            "text": "carbonic acid",
            "confidence": 1.0,
            "uuid": "3ab00515-332f-4177-a200-79dd593298a4",
            "name": "Carbonic acid",
            "url": "https://haz-map.com/Agents/12760",
            "category": "agents"
          },
          {
            "type": "fuzzy_match",
            "text": "monosodium salt",
            "matched_name": "Zincon, monosodium salt",
            "confidence": 0.718944099378882,
            "uuid": "1b9c7ff2-2993-44ad-99f4-ba1cdcbdad89",
            "category": "agents",
            "url": "https://haz-map.com/Agents/18326"
          }
        ]
      },
      "category": {
        "original_name": "Category",
        "value": "Salts, Basic",
        "links": [],
        "cross_references": []
      },
      "description": {
        "original_name": "Description",
        "value": "Odorless, white crystals; [CAMEO]",
        "links": [],
        "cross_references": []
      },
      "sourcesuses": {
        "original_name": "Sources/Uses",
        "value": "Used in baking powder and other food additives; Used in soaps, detergents, mouthwashes, antacids, pharmaceuticals, cosmetics; fire extinguishers, animal feed additives, and in the production of many other chemicals; Also used in leather tanning and paper production; [CHEMINFO]",
        "links": [],
        "cross_references": [
          {
            "type": "name_match",
            "text": "mica",
            "confidence": 1.0,
            "uuid": "433f26f1-c399-4596-b179-ce3843cfd465",
            "name": "Mica",
            "url": "https://haz-map.com/Agents/621",
            "category": "agents"
          },
          {
            "type": "name_match",
            "text": "ash",
            "confidence": 1.0,
            "uuid": "68b360f1-5ad0-4337-bea0-d7adca2961b5",
            "name": "Ash",
            "url": "https://haz-map.com/Agents/965",
            "category": "agents"
          },
          {
            "type": "name_match",
            "text": "pharmaceuticals",
            "confidence": 1.0,
            "uuid": "713c3c30-b67e-4a2f-a90f-b32f8a306332",
            "name": "PHARMACEUTICALS",
            "url": "https://haz-map.com/Agents/1000",
            "category": "agents"
          }
        ]
      },
      "comments": {
        "original_name": "Comments",
        "value": "A skin and eye irritant; May cause alkalosis if ingested in large amounts; [CAMEO]",
        "links": [],
        "cross_references": []
      },
      "biomedical_references": {
        "original_name": "Biomedical References",
        "value": "Search PubMed",
        "links": [
          {
            "text": "Search PubMed",
            "url": "https://www.ncbi.nlm.nih.gov/pubmed?term=Sodium+bicarbonate%20AND%20human%5Bmh%5D%20AND%20%28Occupational%20Diseases%20%5Bmh%5D%20OR%20Occupational%20Exposure%20%5Bmh%5D%29%20%20AND%20%28tox%5Bsb%5D%29&cmd=search"
          }
        ],
        "cross_references": []
      }
    },
    "exposure_assessment": {
      "lethal_concentration": {
        "original_name": "Lethal Concentration",
        "value": "LC (rat) = > 900 mg/m3",
        "links": [],
        "cross_references": []
      },
      "explanatory_notes": {
        "original_name": "Explanatory Notes",
        "value": "Melting point = 228 deg F (decomposes); [CAMEO]",
        "links": [],
        "cross_references": []
      }
    },
    "diseases_processes_and_activities_linked_to_this_agent": {
      "processes": {
        "original_name": "Processes",
        "value": "Industrial Processes with risk of exposure: Farming (Feed Additives) Leather Tanning and Processing Pulp and Paper Processing",
        "links": [
          {
            "text": "Farming (Feed Additives)",
            "url": "https://haz-map.com/Processes/262"
          },
          {
            "text": "Leather Tanning and Processing",
            "url": "https://haz-map.com/Processes/230"
          },
          {
            "text": "Pulp and Paper Processing",
            "url": "https://haz-map.com/Processes/132"
          }
        ],
        "cross_references": [
          {
            "type": "url_match",
            "text": "Pulp and Paper Processing",
            "url": "https://haz-map.com/Processes/132",
            "confidence": 1.0,
            "uuid": "30075079-d057-47e2-a7d8-e89bfc59d8df",
            "name": "Pulp and Paper Processing",
            "category": "processes"
          }
        ]
      }
    }
  },
  "cross_references": [
    {
      "type": "url_match",
      "text": "Pulp and Paper Processing",
      "url": "https://haz-map.com/Processes/132",
      "confidence": 1.0,
      "uuid": "30075079-d057-47e2-a7d8-e89bfc59d8df",
      "name": "Pulp and Paper Processing",
      "category": "processes"
    },
    {
      "type": "name_match",
      "text": "mica",
      "confidence": 1.0,
      "uuid": "433f26f1-c399-4596-b179-ce3843cfd465",
      "name": "Mica",
      "url": "https://haz-map.com/Agents/621",
      "category": "agents"
    },
    {
      "type": "name_match",
      "text": "ash",
      "confidence": 1.0,
      "uuid": "68b360f1-5ad0-4337-bea0-d7adca2961b5",
      "name": "Ash",
      "url": "https://haz-map.com/Agents/965",
      "category": "agents"
    },
    {
      "type": "name_match",
      "text": "pharmaceuticals",
      "confidence": 1.0,
      "uuid": "713c3c30-b67e-4a2f-a90f-b32f8a306332",
      "name": "PHARMACEUTICALS",
      "url": "https://haz-map.com/Agents/1000",
      "category": "agents"
    },
    {
      "type": "name_match",
      "text": "hydrogen",
      "confidence": 1.0,
      "uuid": "e2d9645f-5559-4d88-b820-fc4710c154f2",
      "name": "Hydrogen",
      "url": "https://haz-map.com/Agents/1070",
      "category": "agents"
    },
    {
      "type": "name_match",
      "text": "sodium",
      "confidence": 1.0,
      "uuid": "1adffc42-a4d8-44d5-81d6-7dbd96ef8a6f",
      "name": "Sodium",
      "url": "https://haz-map.com/Agents/1527",
      "category": "agents"
    },
    {
      "type": "name_match",
      "text": "carbon",
      "confidence": 1.0,
      "uuid": "b53f8815-ee80-40ef-b4aa-3b000e17dab5",
      "name": "Carbon",
      "url": "https://haz-map.com/Agents/1891",
      "category": "agents"
    },
    {
      "type": "name_match",
      "text": "sodium carbonate",
      "confidence": 1.0,
      "uuid": "697d22cc-b3ef-471f-88ab-0e3ed9359cdd",
      "name": "Sodium carbonate",
      "url": "https://haz-map.com/Agents/1996",
      "category": "agents"
    },
    {
      "type": "name_match",
      "text": "sodium bicarbonate",
      "confidence": 1.0,
      "uuid": "08176ad9-d2b8-4e11-a51b-f55b99122552",
      "name": "Sodium bicarbonate",
      "url": "https://haz-map.com/Agents/2042",
      "category": "agents"
    },
    {
      "type": "name_match",
      "text": "carbonic acid",
      "confidence": 1.0,
      "uuid": "3ab00515-332f-4177-a200-79dd593298a4",
      "name": "Carbonic acid",
      "url": "https://haz-map.com/Agents/12760",
      "category": "agents"
    },
    {
      "type": "fuzzy_match",
      "text": "monosodium salt",
      "matched_name": "Zincon, monosodium salt",
      "confidence": 0.718944099378882,
      "uuid": "1b9c7ff2-2993-44ad-99f4-ba1cdcbdad89",
      "category": "agents",
      "url": "https://haz-map.com/Agents/18326"
    }
  ],
  "all_links": [
    {
      "text": "Search PubMed",
      "url": "https://www.ncbi.nlm.nih.gov/pubmed?term=Sodium+bicarbonate%20AND%20human%5Bmh%5D%20AND%20%28Occupational%20Diseases%20%5Bmh%5D%20OR%20Occupational%20Exposure%20%5Bmh%5D%29%20%20AND%20%28tox%5Bsb%5D%29&cmd=search"
    },
    {
      "text": "Farming (Feed Additives)",
      "url": "https://haz-map.com/Processes/262"
    },
    {
      "text": "Leather Tanning and Processing",
      "url": "https://haz-map.com/Processes/230"
    },
    {
      "text": "Pulp and Paper Processing",
      "url": "https://haz-map.com/Processes/132"
    }
  ]
}