{
  "metadata": {
    "scraped_from": "https://haz-map.com/Agents/19723",
    "entity_name": "3,4-Dihydroxyphenylacetic acid",
    "category": "agents",
    "uuid": "086dca0d-7d78-4296-94bc-173fe52f4c48",
    "scraped_at": "2025-07-23T22:11:43.854719"
  },
  "parsed_at": "2025-07-24T01:02:59.894356",
  "title": "3,4-Dihydroxyphenylacetic acid",
  "sections": {
    "general": {
      "agent_name": {
        "original_name": "Agent Name",
        "value": "3,4-Dihydroxyphenylacetic acid",
        "links": [],
        "cross_references": [
          {
            "type": "name_match",
            "text": "acetic acid",
            "confidence": 1.0,
            "uuid": "0905c6e4-df84-4895-a92d-658819239bbd",
            "name": "Acetic acid",
            "url": "https://haz-map.com/Agents/207",
            "category": "agents"
          },
          {
            "type": "name_match",
            "text": "phenylacetic acid",
            "confidence": 1.0,
            "uuid": "9fd56a07-b965-4725-89f1-49d42ccba118",
            "name": "Phenylacetic acid",
            "url": "https://haz-map.com/Agents/6638",
            "category": "agents"
          },
          {
            "type": "name_match",
            "text": "3,4-dihydroxyphenylacetic acid",
            "confidence": 1.0,
            "uuid": "086dca0d-7d78-4296-94bc-173fe52f4c48",
            "name": "3,4-Dihydroxyphenylacetic acid",
            "url": "https://haz-map.com/Agents/19723",
            "category": "agents"
          }
        ]
      },
      "cas_number": {
        "original_name": "CAS Number",
        "value": "102-32-9",
        "links": [],
        "cross_references": []
      },
      "formula": {
        "original_name": "Formula",
        "value": "C8-H8-O4",
        "links": [],
        "cross_references": []
      },
      "major_category": {
        "original_name": "Major Category",
        "value": "Other Classes",
        "links": [],
        "cross_references": []
      },
      "synonyms": {
        "original_name": "Synonyms",
        "value": "3,4-Dihydroxy-phenylacetic acid; 3,4-Dihydroxybenzeneacetic acid; Ba 2773; Dihydroxyphenylacetic acid; DOPAC; Dopacetic acid; Homoprotocatechuic acid; Acetic acid, (3,4-dihydroxyphenyl)-; Benzeneacetic acid, 3,4-dihydroxy-; Benzeneacetic acid, 3,4-dihydroxy- (9CI); [ChemIDplus]",
        "links": [],
        "cross_references": [
          {
            "type": "name_match",
            "text": "benzene",
            "confidence": 1.0,
            "uuid": "b05124de-5f34-4c14-8f04-ccb20c3780d9",
            "name": "Benzene",
            "url": "https://haz-map.com/Agents/5",
            "category": "agents"
          },
          {
            "type": "name_match",
            "text": "acetic acid",
            "confidence": 1.0,
            "uuid": "0905c6e4-df84-4895-a92d-658819239bbd",
            "name": "Acetic acid",
            "url": "https://haz-map.com/Agents/207",
            "category": "agents"
          },
          {
            "type": "name_match",
            "text": "phenylacetic acid",
            "confidence": 1.0,
            "uuid": "9fd56a07-b965-4725-89f1-49d42ccba118",
            "name": "Phenylacetic acid",
            "url": "https://haz-map.com/Agents/6638",
            "category": "agents"
          },
          {
            "type": "name_match",
            "text": "protocatechuic acid",
            "confidence": 1.0,
            "uuid": "54929822-8415-4fb5-a5b5-2a0b2aaaa9ce",
            "name": "Protocatechuic acid",
            "url": "https://haz-map.com/Agents/10998",
            "category": "agents"
          }
        ]
      },
      "category": {
        "original_name": "Category",
        "value": "Organic Acids",
        "links": [],
        "cross_references": []
      },
      "description": {
        "original_name": "Description",
        "value": "Off-white powder; [Alfa Aesar MSDS]",
        "links": [],
        "cross_references": []
      },
      "sourcesuses": {
        "original_name": "Sources/Uses",
        "value": "\"A deaminated metabolite of LEVODOPA.\" [ChemIDplus]",
        "links": [],
        "cross_references": [
          {
            "type": "name_match",
            "text": "levodopa",
            "confidence": 1.0,
            "uuid": "b9c1a46c-99fb-46d3-a915-7e5b2d3163e4",
            "name": "Levodopa",
            "url": "https://haz-map.com/Agents/15098",
            "category": "agents"
          }
        ]
      },
      "comments": {
        "original_name": "Comments",
        "value": "A skin and strong eye irritant; [Alfa Aesar MSDS]",
        "links": [],
        "cross_references": []
      },
      "biomedical_references": {
        "original_name": "Biomedical References",
        "value": "Search PubMed",
        "links": [
          {
            "text": "Search PubMed",
            "url": "https://www.ncbi.nlm.nih.gov/pubmed?term=3%2c4-Dihydroxyphenylacetic+acid%20AND%20human%5Bmh%5D%20AND%20%28Occupational%20Diseases%20%5Bmh%5D%20OR%20Occupational%20Exposure%20%5Bmh%5D%29%20%20AND%20%28tox%5Bsb%5D%29&cmd=search"
          }
        ],
        "cross_references": []
      }
    },
    "exposure_assessment": {
      "vapor_pressure": {
        "original_name": "Vapor Pressure",
        "value": "8.18E-07 mm Hg",
        "links": [],
        "cross_references": []
      }
    },
    "diseases_processes_and_activities_linked_to_this_agent": {
      "other_information": {
        "original_name": "Other Information",
        "value": "No other related information on this agent was found.",
        "links": [],
        "cross_references": []
      }
    }
  },
  "cross_references": [
    {
      "type": "name_match",
      "text": "benzene",
      "confidence": 1.0,
      "uuid": "b05124de-5f34-4c14-8f04-ccb20c3780d9",
      "name": "Benzene",
      "url": "https://haz-map.com/Agents/5",
      "category": "agents"
    },
    {
      "type": "name_match",
      "text": "acetic acid",
      "confidence": 1.0,
      "uuid": "0905c6e4-df84-4895-a92d-658819239bbd",
      "name": "Acetic acid",
      "url": "https://haz-map.com/Agents/207",
      "category": "agents"
    },
    {
      "type": "name_match",
      "text": "phenylacetic acid",
      "confidence": 1.0,
      "uuid": "9fd56a07-b965-4725-89f1-49d42ccba118",
      "name": "Phenylacetic acid",
      "url": "https://haz-map.com/Agents/6638",
      "category": "agents"
    },
    {
      "type": "name_match",
      "text": "protocatechuic acid",
      "confidence": 1.0,
      "uuid": "54929822-8415-4fb5-a5b5-2a0b2aaaa9ce",
      "name": "Protocatechuic acid",
      "url": "https://haz-map.com/Agents/10998",
      "category": "agents"
    },
    {
      "type": "name_match",
      "text": "levodopa",
      "confidence": 1.0,
      "uuid": "b9c1a46c-99fb-46d3-a915-7e5b2d3163e4",
      "name": "Levodopa",
      "url": "https://haz-map.com/Agents/15098",
      "category": "agents"
    },
    {
      "type": "name_match",
      "text": "3,4-dihydroxyphenylacetic acid",
      "confidence": 1.0,
      "uuid": "086dca0d-7d78-4296-94bc-173fe52f4c48",
      "name": "3,4-Dihydroxyphenylacetic acid",
      "url": "https://haz-map.com/Agents/19723",
      "category": "agents"
    }
  ],
  "all_links": [
    {
      "text": "Search PubMed",
      "url": "https://www.ncbi.nlm.nih.gov/pubmed?term=3%2c4-Dihydroxyphenylacetic+acid%20AND%20human%5Bmh%5D%20AND%20%28Occupational%20Diseases%20%5Bmh%5D%20OR%20Occupational%20Exposure%20%5Bmh%5D%29%20%20AND%20%28tox%5Bsb%5D%29&cmd=search"
    }
  ]
}