{
  "metadata": {
    "scraped_from": "https://haz-map.com/Agents/2774",
    "entity_name": "1,2-Naphthoquinone",
    "category": "agents",
    "uuid": "086ea95b-bef7-443e-8924-d127706f6a2a",
    "scraped_at": "2025-07-23T19:18:48.390433"
  },
  "parsed_at": "2025-07-24T01:07:12.546101",
  "title": "1,2-Naphthoquinone",
  "sections": {
    "general": {
      "agent_name": {
        "original_name": "Agent Name",
        "value": "1,2-Naphthoquinone",
        "links": [],
        "cross_references": [
          {
            "type": "name_match",
            "text": "quinone",
            "confidence": 1.0,
            "uuid": "d01e66c3-ad06-4707-8d42-3c6655001c1a",
            "name": "Quinone",
            "url": "https://haz-map.com/Agents/303",
            "category": "agents"
          },
          {
            "type": "name_match",
            "text": "ht",
            "confidence": 1.0,
            "uuid": "764df367-8d53-4a11-81a2-31ccfe122a8d",
            "name": "HT",
            "url": "https://haz-map.com/Agents/2168",
            "category": "agents"
          },
          {
            "type": "name_match",
            "text": "1,2-naphthoquinone",
            "confidence": 1.0,
            "uuid": "086ea95b-bef7-443e-8924-d127706f6a2a",
            "name": "1,2-Naphthoquinone",
            "url": "https://haz-map.com/Agents/2774",
            "category": "agents"
          }
        ]
      },
      "cas_number": {
        "original_name": "CAS Number",
        "value": "524-42-5",
        "links": [],
        "cross_references": []
      },
      "formula": {
        "original_name": "Formula",
        "value": "C10-H6-O2",
        "links": [],
        "cross_references": []
      },
      "major_category": {
        "original_name": "Major Category",
        "value": "Other Classes",
        "links": [],
        "cross_references": []
      },
      "synonyms": {
        "original_name": "Synonyms",
        "value": "1,2-Dihydro-1,2-diketo-naphthalene; 1,2-Naftochinon [Czech]; 1,2-Naphthalenedione; 1,2-Naphthaquinone; beta-Naphthoquinone; o-Naphthoquinone; [ChemIDplus]",
        "links": [],
        "cross_references": [
          {
            "type": "name_match",
            "text": "naphthalene",
            "confidence": 1.0,
            "uuid": "433cf489-5423-4297-a38e-6e755a9d458e",
            "name": "Naphthalene",
            "url": "https://haz-map.com/Agents/46",
            "category": "agents"
          },
          {
            "type": "name_match",
            "text": "quinone",
            "confidence": 1.0,
            "uuid": "d01e66c3-ad06-4707-8d42-3c6655001c1a",
            "name": "Quinone",
            "url": "https://haz-map.com/Agents/303",
            "category": "agents"
          },
          {
            "type": "name_match",
            "text": "ht",
            "confidence": 1.0,
            "uuid": "764df367-8d53-4a11-81a2-31ccfe122a8d",
            "name": "HT",
            "url": "https://haz-map.com/Agents/2168",
            "category": "agents"
          }
        ]
      },
      "category": {
        "original_name": "Category",
        "value": "Aromatic Ketones",
        "links": [],
        "cross_references": []
      },
      "description": {
        "original_name": "Description",
        "value": "Golden yellow solid; [Merck Index] May also be brown solid; Decomposes to a bluish-black color on standing; [CAMEO] Deep brown solid; [MSDSonline]",
        "links": [],
        "cross_references": [
          {
            "type": "name_match",
            "text": "gold",
            "confidence": 1.0,
            "uuid": "8f37bad1-17df-446f-b0ed-11d2ef239483",
            "name": "Gold",
            "url": "https://haz-map.com/Agents/1186",
            "category": "agents"
          }
        ]
      },
      "sourcesuses": {
        "original_name": "Sources/Uses",
        "value": "Used as a chemical reagent and intermediate; [Hawley] Used as a reagent for resorcinol and thalline; [Merck Index]",
        "links": [],
        "cross_references": [
          {
            "type": "name_match",
            "text": "resorcinol",
            "confidence": 1.0,
            "uuid": "ae206fe4-b82a-4fe5-80a6-c479c171146e",
            "name": "Resorcinol",
            "url": "https://haz-map.com/Agents/617",
            "category": "agents"
          },
          {
            "type": "name_match",
            "text": "mica",
            "confidence": 1.0,
            "uuid": "433f26f1-c399-4596-b179-ce3843cfd465",
            "name": "Mica",
            "url": "https://haz-map.com/Agents/621",
            "category": "agents"
          },
          {
            "type": "name_match",
            "text": "orcinol",
            "confidence": 1.0,
            "uuid": "ec7be405-d3a6-4ffe-a998-44bdf8777b2a",
            "name": "Orcinol",
            "url": "https://haz-map.com/Agents/16285",
            "category": "agents"
          }
        ]
      },
      "comments": {
        "original_name": "Comments",
        "value": "1,2-Naphthoquinone appears to be the metabolite that can cause cataracts in cases of naphthalene poisoning; [HSDB] Irritant; [Hawley] An irritant; [MSDSonline] See \"Naphthalene\" and \"Quinone.\"",
        "links": [],
        "cross_references": [
          {
            "type": "name_match",
            "text": "cataract",
            "confidence": 1.0,
            "uuid": "3e1b6957-4241-488a-8796-192306a93517",
            "name": "cataract",
            "url": "https://haz-map.com/Findings/131",
            "category": "findings"
          },
          {
            "type": "name_match",
            "text": "naphthalene",
            "confidence": 1.0,
            "uuid": "433cf489-5423-4297-a38e-6e755a9d458e",
            "name": "Naphthalene",
            "url": "https://haz-map.com/Agents/46",
            "category": "agents"
          },
          {
            "type": "name_match",
            "text": "quinone",
            "confidence": 1.0,
            "uuid": "d01e66c3-ad06-4707-8d42-3c6655001c1a",
            "name": "Quinone",
            "url": "https://haz-map.com/Agents/303",
            "category": "agents"
          },
          {
            "type": "name_match",
            "text": "ht",
            "confidence": 1.0,
            "uuid": "764df367-8d53-4a11-81a2-31ccfe122a8d",
            "name": "HT",
            "url": "https://haz-map.com/Agents/2168",
            "category": "agents"
          },
          {
            "type": "name_match",
            "text": "1,2-naphthoquinone",
            "confidence": 1.0,
            "uuid": "086ea95b-bef7-443e-8924-d127706f6a2a",
            "name": "1,2-Naphthoquinone",
            "url": "https://haz-map.com/Agents/2774",
            "category": "agents"
          }
        ]
      },
      "biomedical_references": {
        "original_name": "Biomedical References",
        "value": "Search PubMed",
        "links": [
          {
            "text": "Search PubMed",
            "url": "https://www.ncbi.nlm.nih.gov/pubmed?term=1%2c2-Naphthoquinone%20AND%20human%5Bmh%5D%20AND%20%28Occupational%20Diseases%20%5Bmh%5D%20OR%20Occupational%20Exposure%20%5Bmh%5D%29%20%20AND%20%28tox%5Bsb%5D%29&cmd=search"
          }
        ],
        "cross_references": []
      }
    },
    "exposure_assessment": {
      "vapor_pressure": {
        "original_name": "Vapor Pressure",
        "value": "9.9E-05 mm Hg",
        "links": [],
        "cross_references": []
      }
    },
    "diseases_processes_and_activities_linked_to_this_agent": {
      "diseases": {
        "original_name": "Diseases",
        "value": "Occupational diseases associated with exposure to this agent: Cataract, chemical or radiation induced",
        "links": [
          {
            "text": "Cataract, chemical or radiation induced",
            "url": "https://haz-map.com/Diseases/308"
          }
        ],
        "cross_references": [
          {
            "type": "url_match",
            "text": "Cataract, chemical or radiation induced",
            "url": "https://haz-map.com/Diseases/308",
            "confidence": 1.0,
            "uuid": "5972a0ee-7174-461f-9b09-65815de7bc26",
            "name": "Cataract, chemical or radiation induced",
            "category": "diseases"
          },
          {
            "type": "name_match",
            "text": "cataract",
            "confidence": 1.0,
            "uuid": "3e1b6957-4241-488a-8796-192306a93517",
            "name": "cataract",
            "url": "https://haz-map.com/Findings/131",
            "category": "findings"
          },
          {
            "type": "name_match",
            "text": "mica",
            "confidence": 1.0,
            "uuid": "433f26f1-c399-4596-b179-ce3843cfd465",
            "name": "Mica",
            "url": "https://haz-map.com/Agents/621",
            "category": "agents"
          }
        ]
      }
    }
  },
  "cross_references": [
    {
      "type": "url_match",
      "text": "Cataract, chemical or radiation induced",
      "url": "https://haz-map.com/Diseases/308",
      "confidence": 1.0,
      "uuid": "5972a0ee-7174-461f-9b09-65815de7bc26",
      "name": "Cataract, chemical or radiation induced",
      "category": "diseases"
    },
    {
      "type": "name_match",
      "text": "cataract",
      "confidence": 1.0,
      "uuid": "3e1b6957-4241-488a-8796-192306a93517",
      "name": "cataract",
      "url": "https://haz-map.com/Findings/131",
      "category": "findings"
    },
    {
      "type": "name_match",
      "text": "naphthalene",
      "confidence": 1.0,
      "uuid": "433cf489-5423-4297-a38e-6e755a9d458e",
      "name": "Naphthalene",
      "url": "https://haz-map.com/Agents/46",
      "category": "agents"
    },
    {
      "type": "name_match",
      "text": "quinone",
      "confidence": 1.0,
      "uuid": "d01e66c3-ad06-4707-8d42-3c6655001c1a",
      "name": "Quinone",
      "url": "https://haz-map.com/Agents/303",
      "category": "agents"
    },
    {
      "type": "name_match",
      "text": "resorcinol",
      "confidence": 1.0,
      "uuid": "ae206fe4-b82a-4fe5-80a6-c479c171146e",
      "name": "Resorcinol",
      "url": "https://haz-map.com/Agents/617",
      "category": "agents"
    },
    {
      "type": "name_match",
      "text": "mica",
      "confidence": 1.0,
      "uuid": "433f26f1-c399-4596-b179-ce3843cfd465",
      "name": "Mica",
      "url": "https://haz-map.com/Agents/621",
      "category": "agents"
    },
    {
      "type": "name_match",
      "text": "gold",
      "confidence": 1.0,
      "uuid": "8f37bad1-17df-446f-b0ed-11d2ef239483",
      "name": "Gold",
      "url": "https://haz-map.com/Agents/1186",
      "category": "agents"
    },
    {
      "type": "name_match",
      "text": "ht",
      "confidence": 1.0,
      "uuid": "764df367-8d53-4a11-81a2-31ccfe122a8d",
      "name": "HT",
      "url": "https://haz-map.com/Agents/2168",
      "category": "agents"
    },
    {
      "type": "name_match",
      "text": "1,2-naphthoquinone",
      "confidence": 1.0,
      "uuid": "086ea95b-bef7-443e-8924-d127706f6a2a",
      "name": "1,2-Naphthoquinone",
      "url": "https://haz-map.com/Agents/2774",
      "category": "agents"
    },
    {
      "type": "name_match",
      "text": "orcinol",
      "confidence": 1.0,
      "uuid": "ec7be405-d3a6-4ffe-a998-44bdf8777b2a",
      "name": "Orcinol",
      "url": "https://haz-map.com/Agents/16285",
      "category": "agents"
    }
  ],
  "all_links": [
    {
      "text": "Search PubMed",
      "url": "https://www.ncbi.nlm.nih.gov/pubmed?term=1%2c2-Naphthoquinone%20AND%20human%5Bmh%5D%20AND%20%28Occupational%20Diseases%20%5Bmh%5D%20OR%20Occupational%20Exposure%20%5Bmh%5D%29%20%20AND%20%28tox%5Bsb%5D%29&cmd=search"
    },
    {
      "text": "Cataract, chemical or radiation induced",
      "url": "https://haz-map.com/Diseases/308"
    }
  ]
}