{
  "metadata": {
    "scraped_from": "https://haz-map.com/Agents/8500",
    "entity_name": "1,1'-Bicyclohexyl",
    "category": "agents",
    "uuid": "0870c612-aee0-44db-8624-b6b0d826d8a6",
    "scraped_at": "2025-07-23T20:27:58.665650"
  },
  "parsed_at": "2025-07-24T01:16:38.470708",
  "title": "1,1'-Bicyclohexyl",
  "sections": {
    "general": {
      "agent_name": {
        "original_name": "Agent Name",
        "value": "1,1'-Bicyclohexyl",
        "links": [],
        "cross_references": [
          {
            "type": "name_match",
            "text": "1,1'-bicyclohexyl",
            "confidence": 1.0,
            "uuid": "0870c612-aee0-44db-8624-b6b0d826d8a6",
            "name": "1,1'-Bicyclohexyl",
            "url": "https://haz-map.com/Agents/8500",
            "category": "agents"
          }
        ]
      },
      "cas_number": {
        "original_name": "CAS Number",
        "value": "92-51-3",
        "links": [],
        "cross_references": []
      },
      "formula": {
        "original_name": "Formula",
        "value": "C12-H22",
        "links": [],
        "cross_references": []
      },
      "major_category": {
        "original_name": "Major Category",
        "value": "Other Classes",
        "links": [],
        "cross_references": []
      },
      "synonyms": {
        "original_name": "Synonyms",
        "value": "1,1'-Biphenyl, dodecahydro-; Bicyclohexane; Bicyclohexyl; Cyclohexane, cyclohexyl-; Cyclohexylcyclohexane; Dicyclohexane; Dicyclohexyl; Dodecahydrobiphenyl; [ChemIDplus]",
        "links": [],
        "cross_references": [
          {
            "type": "name_match",
            "text": "biphenyl",
            "confidence": 1.0,
            "uuid": "740f90cb-888a-4a3b-b9ae-30768927fec2",
            "name": "Biphenyl",
            "url": "https://haz-map.com/Agents/306",
            "category": "agents"
          },
          {
            "type": "name_match",
            "text": "cyclohexane",
            "confidence": 1.0,
            "uuid": "366fabd7-ac2f-461c-969f-62dfe3bf2377",
            "name": "Cyclohexane",
            "url": "https://haz-map.com/Agents/384",
            "category": "agents"
          },
          {
            "type": "name_match",
            "text": "hexylcyclohexane",
            "confidence": 1.0,
            "uuid": "df9240aa-b2a0-44f1-a6f8-7c597d21c7c1",
            "name": "Hexylcyclohexane",
            "url": "https://haz-map.com/Agents/13441",
            "category": "agents"
          }
        ]
      },
      "category": {
        "original_name": "Category",
        "value": "Aliphatics, Saturated (>C11)",
        "links": [],
        "cross_references": []
      },
      "description": {
        "original_name": "Description",
        "value": "Colorless liquid; [MSDSonline]",
        "links": [],
        "cross_references": []
      },
      "comments": {
        "original_name": "Comments",
        "value": "May cause irritation; [MSDSonline]",
        "links": [],
        "cross_references": []
      },
      "biomedical_references": {
        "original_name": "Biomedical References",
        "value": "Search PubMed",
        "links": [
          {
            "text": "Search PubMed",
            "url": "https://www.ncbi.nlm.nih.gov/pubmed?term=1%2c1%26%2339%3b-Bicyclohexyl%20AND%20human%5Bmh%5D%20AND%20%28Occupational%20Diseases%20%5Bmh%5D%20OR%20Occupational%20Exposure%20%5Bmh%5D%29%20%20AND%20%28tox%5Bsb%5D%29&cmd=search"
          }
        ],
        "cross_references": []
      }
    },
    "exposure_assessment": {
      "vapor_pressure": {
        "original_name": "Vapor Pressure",
        "value": "0.108 mm Hg",
        "links": [],
        "cross_references": []
      },
      "explanatory_notes": {
        "original_name": "Explanatory Notes",
        "value": "VP from ChemIDplus;",
        "links": [],
        "cross_references": []
      }
    },
    "diseases_processes_and_activities_linked_to_this_agent": {
      "other_information": {
        "original_name": "Other Information",
        "value": "No other related information on this agent was found.",
        "links": [],
        "cross_references": []
      }
    }
  },
  "cross_references": [
    {
      "type": "name_match",
      "text": "biphenyl",
      "confidence": 1.0,
      "uuid": "740f90cb-888a-4a3b-b9ae-30768927fec2",
      "name": "Biphenyl",
      "url": "https://haz-map.com/Agents/306",
      "category": "agents"
    },
    {
      "type": "name_match",
      "text": "cyclohexane",
      "confidence": 1.0,
      "uuid": "366fabd7-ac2f-461c-969f-62dfe3bf2377",
      "name": "Cyclohexane",
      "url": "https://haz-map.com/Agents/384",
      "category": "agents"
    },
    {
      "type": "name_match",
      "text": "1,1'-bicyclohexyl",
      "confidence": 1.0,
      "uuid": "0870c612-aee0-44db-8624-b6b0d826d8a6",
      "name": "1,1'-Bicyclohexyl",
      "url": "https://haz-map.com/Agents/8500",
      "category": "agents"
    },
    {
      "type": "name_match",
      "text": "hexylcyclohexane",
      "confidence": 1.0,
      "uuid": "df9240aa-b2a0-44f1-a6f8-7c597d21c7c1",
      "name": "Hexylcyclohexane",
      "url": "https://haz-map.com/Agents/13441",
      "category": "agents"
    }
  ],
  "all_links": [
    {
      "text": "Search PubMed",
      "url": "https://www.ncbi.nlm.nih.gov/pubmed?term=1%2c1%26%2339%3b-Bicyclohexyl%20AND%20human%5Bmh%5D%20AND%20%28Occupational%20Diseases%20%5Bmh%5D%20OR%20Occupational%20Exposure%20%5Bmh%5D%29%20%20AND%20%28tox%5Bsb%5D%29&cmd=search"
    }
  ]
}