{
  "metadata": {
    "scraped_from": "https://haz-map.com/Agents/4282",
    "entity_name": "Chlorbufam",
    "category": "agents",
    "uuid": "08f40c84-ffd4-4fd1-b4ad-4552264cd5e4",
    "scraped_at": "2025-07-23T19:39:26.982119"
  },
  "parsed_at": "2025-07-24T01:07:26.726839",
  "title": "Chlorbufam",
  "sections": {
    "general": {
      "agent_name": {
        "original_name": "Agent Name",
        "value": "Chlorbufam",
        "links": [],
        "cross_references": [
          {
            "type": "name_match",
            "text": "chlorbufam",
            "confidence": 1.0,
            "uuid": "08f40c84-ffd4-4fd1-b4ad-4552264cd5e4",
            "name": "Chlorbufam",
            "url": "https://haz-map.com/Agents/4282",
            "category": "agents"
          }
        ]
      },
      "cas_number": {
        "original_name": "CAS Number",
        "value": "1967-16-4",
        "links": [],
        "cross_references": []
      },
      "formula": {
        "original_name": "Formula",
        "value": "C11-H10-Cl-N-O2",
        "links": [],
        "cross_references": []
      },
      "major_category": {
        "original_name": "Major Category",
        "value": "Pesticides",
        "links": [],
        "cross_references": []
      },
      "synonyms": {
        "original_name": "Synonyms",
        "value": "1-Butyn-3-yl m-chlorophenylcarbamate; 1-Methyl-2-propynyl m-chlorocarbanilate; 1-Methyl-2-propynyl m-chlorophenylcarbamate; 1-Methylprop-2-ynyl 3-chlorocarbanilate; 1-Methylprop-2-ynyl 3-chlorophenylcarbamate; 1-Methylpropynyl 3-chlorophenylcarbamate; 1-Methylpropynyl ester of 3-chlorophenylcarbamic acid; 3-Butyn-2-ol, m-chlorocarbanilate; 3-Butynyl-m-chlorocarbanilate; 3-Chlorophenylcarbamic acid 1-methylpropynyl ester; 3-Chlorphenyl-carbamidsaure-butin-(1)-yl(3)-ester [German]; BICP; BIPC; BIPC (the herbicide); Butyn-1-ol-3-ester of m-chlorophenylcarbamic acid; Carbamic acid, (3-chlorophenyl)-, 1-methyl-2-propynyl ester; Carbanilic acid, m-chloro-, 1-methyl-2-propynyl ester; Chlorbufame [ISO-French]; Chlorbupham; Chlorobufam; Grisemin; Grisin; IEM-1-15; Isobutinyl-N-(3-chlorphenyl)-carbamat [German]; [ChemIDplus] UN2757",
        "links": [],
        "cross_references": [
          {
            "type": "name_match",
            "text": "chlorbufam",
            "confidence": 1.0,
            "uuid": "08f40c84-ffd4-4fd1-b4ad-4552264cd5e4",
            "name": "Chlorbufam",
            "url": "https://haz-map.com/Agents/4282",
            "category": "agents"
          },
          {
            "type": "name_match",
            "text": "3-butyn-2-ol",
            "confidence": 1.0,
            "uuid": "59f48939-43f6-4a40-a76f-6e0efbfa7033",
            "name": "3-Butyn-2-ol",
            "url": "https://haz-map.com/Agents/19771",
            "category": "agents"
          }
        ]
      },
      "category": {
        "original_name": "Category",
        "value": "Herbicides, Carbamate",
        "links": [],
        "cross_references": [
          {
            "type": "name_match",
            "text": "herbicides",
            "confidence": 1.0,
            "uuid": "195f29ae-3f15-47c5-836d-0a9791db3fc1",
            "name": "HERBICIDES",
            "url": "https://haz-map.com/Agents/703",
            "category": "agents"
          }
        ]
      },
      "description": {
        "original_name": "Description",
        "value": "Colorless solid; [HSDB]",
        "links": [],
        "cross_references": []
      },
      "sourcesuses": {
        "original_name": "Sources/Uses",
        "value": "Used as selective pre-emergence herbicide for control of grasses and broad-leaved weeds in onions, bulb flowers, and other crops; Usually used in combination with other herbicides; WHO classifies Chlorbufam as \"believed to be obsolete or discontinued\"; [HSDB]",
        "links": [],
        "cross_references": [
          {
            "type": "name_match",
            "text": "herbicides",
            "confidence": 1.0,
            "uuid": "195f29ae-3f15-47c5-836d-0a9791db3fc1",
            "name": "HERBICIDES",
            "url": "https://haz-map.com/Agents/703",
            "category": "agents"
          },
          {
            "type": "name_match",
            "text": "onions",
            "confidence": 1.0,
            "uuid": "0cea53cd-ef9b-436d-a6c3-1b3e2b0ffaae",
            "name": "Onions",
            "url": "https://haz-map.com/Agents/990",
            "category": "agents"
          },
          {
            "type": "name_match",
            "text": "chlorbufam",
            "confidence": 1.0,
            "uuid": "08f40c84-ffd4-4fd1-b4ad-4552264cd5e4",
            "name": "Chlorbufam",
            "url": "https://haz-map.com/Agents/4282",
            "category": "agents"
          }
        ]
      },
      "comments": {
        "original_name": "Comments",
        "value": "The hydrolysis product is 3-chloroaniline, one of the most common causes of industrial methemoglobinemia in the past; [HSDB] May cause irritation; May cause CNS depression; [MSDSonline] See \"3-Chloroaniline.\"",
        "links": [],
        "cross_references": [
          {
            "type": "name_match",
            "text": "aniline",
            "confidence": 1.0,
            "uuid": "e4932692-8d9c-4a98-8c5c-81e55b12aedf",
            "name": "Aniline",
            "url": "https://haz-map.com/Agents/296",
            "category": "agents"
          },
          {
            "type": "name_match",
            "text": "3-chloroaniline",
            "confidence": 1.0,
            "uuid": "fc1259fa-d9f3-4576-9c52-d634c6e3d2b6",
            "name": "3-Chloroaniline",
            "url": "https://haz-map.com/Agents/1018",
            "category": "agents"
          },
          {
            "type": "name_match",
            "text": "methemoglobin",
            "confidence": 1.0,
            "uuid": "afb7ebf5-d2a3-4e60-8d2e-3a19456344ee",
            "name": "Methemoglobin",
            "url": "https://haz-map.com/Agents/15467",
            "category": "agents"
          },
          {
            "type": "fuzzy_match",
            "text": "methemoglobinemia",
            "matched_name": "Methemoglobinemia, acute",
            "confidence": 0.7208333333333333,
            "uuid": "473a44bd-cf11-4710-a769-e8e2b25ba317",
            "category": "diseases",
            "url": "https://haz-map.com/Diseases/210"
          }
        ]
      },
      "restricted": {
        "original_name": "Restricted",
        "value": "No longer registered as a pesticide for use in the US; [HSDB]",
        "links": [],
        "cross_references": []
      },
      "biomedical_references": {
        "original_name": "Biomedical References",
        "value": "Search PubMed",
        "links": [
          {
            "text": "Search PubMed",
            "url": "https://www.ncbi.nlm.nih.gov/pubmed?term=Chlorbufam%20AND%20human%5Bmh%5D%20AND%20%28Occupational%20Diseases%20%5Bmh%5D%20OR%20Occupational%20Exposure%20%5Bmh%5D%29%20%20AND%20%28tox%5Bsb%5D%29&cmd=search"
          }
        ],
        "cross_references": []
      }
    },
    "exposure_assessment": {
      "vapor_pressure": {
        "original_name": "Vapor Pressure",
        "value": "1.58E-05 mm Hg",
        "links": [],
        "cross_references": []
      },
      "explanatory_notes": {
        "original_name": "Explanatory Notes",
        "value": "The Guide in the Emergency Response Guidebook is for \"Carbamate pesticide, solid, toxic.\"",
        "links": [],
        "cross_references": []
      }
    },
    "adverse_effects": {
      "methemoglobinemia": {
        "original_name": "Methemoglobinemia",
        "value": "MetHgb is secondary toxic effect",
        "links": [],
        "cross_references": []
      }
    },
    "diseases_processes_and_activities_linked_to_this_agent": {
      "processes": {
        "original_name": "Processes",
        "value": "Industrial Processes with risk of exposure: Farming (Pesticides)",
        "links": [
          {
            "text": "Farming (Pesticides)",
            "url": "https://haz-map.com/Processes/218"
          }
        ],
        "cross_references": [
          {
            "type": "url_match",
            "text": "Farming (Pesticides)",
            "url": "https://haz-map.com/Processes/218",
            "confidence": 1.0,
            "uuid": "cf1e5815-c9bb-4917-82a5-391848170b7e",
            "name": "Farming (Pesticides)",
            "category": "processes"
          }
        ]
      }
    }
  },
  "cross_references": [
    {
      "type": "url_match",
      "text": "Farming (Pesticides)",
      "url": "https://haz-map.com/Processes/218",
      "confidence": 1.0,
      "uuid": "cf1e5815-c9bb-4917-82a5-391848170b7e",
      "name": "Farming (Pesticides)",
      "category": "processes"
    },
    {
      "type": "name_match",
      "text": "aniline",
      "confidence": 1.0,
      "uuid": "e4932692-8d9c-4a98-8c5c-81e55b12aedf",
      "name": "Aniline",
      "url": "https://haz-map.com/Agents/296",
      "category": "agents"
    },
    {
      "type": "name_match",
      "text": "herbicides",
      "confidence": 1.0,
      "uuid": "195f29ae-3f15-47c5-836d-0a9791db3fc1",
      "name": "HERBICIDES",
      "url": "https://haz-map.com/Agents/703",
      "category": "agents"
    },
    {
      "type": "name_match",
      "text": "onions",
      "confidence": 1.0,
      "uuid": "0cea53cd-ef9b-436d-a6c3-1b3e2b0ffaae",
      "name": "Onions",
      "url": "https://haz-map.com/Agents/990",
      "category": "agents"
    },
    {
      "type": "name_match",
      "text": "3-chloroaniline",
      "confidence": 1.0,
      "uuid": "fc1259fa-d9f3-4576-9c52-d634c6e3d2b6",
      "name": "3-Chloroaniline",
      "url": "https://haz-map.com/Agents/1018",
      "category": "agents"
    },
    {
      "type": "name_match",
      "text": "chlorbufam",
      "confidence": 1.0,
      "uuid": "08f40c84-ffd4-4fd1-b4ad-4552264cd5e4",
      "name": "Chlorbufam",
      "url": "https://haz-map.com/Agents/4282",
      "category": "agents"
    },
    {
      "type": "name_match",
      "text": "methemoglobin",
      "confidence": 1.0,
      "uuid": "afb7ebf5-d2a3-4e60-8d2e-3a19456344ee",
      "name": "Methemoglobin",
      "url": "https://haz-map.com/Agents/15467",
      "category": "agents"
    },
    {
      "type": "name_match",
      "text": "3-butyn-2-ol",
      "confidence": 1.0,
      "uuid": "59f48939-43f6-4a40-a76f-6e0efbfa7033",
      "name": "3-Butyn-2-ol",
      "url": "https://haz-map.com/Agents/19771",
      "category": "agents"
    },
    {
      "type": "fuzzy_match",
      "text": "methemoglobinemia",
      "matched_name": "Methemoglobinemia, acute",
      "confidence": 0.7208333333333333,
      "uuid": "473a44bd-cf11-4710-a769-e8e2b25ba317",
      "category": "diseases",
      "url": "https://haz-map.com/Diseases/210"
    }
  ],
  "all_links": [
    {
      "text": "Search PubMed",
      "url": "https://www.ncbi.nlm.nih.gov/pubmed?term=Chlorbufam%20AND%20human%5Bmh%5D%20AND%20%28Occupational%20Diseases%20%5Bmh%5D%20OR%20Occupational%20Exposure%20%5Bmh%5D%29%20%20AND%20%28tox%5Bsb%5D%29&cmd=search"
    },
    {
      "text": "Farming (Pesticides)",
      "url": "https://haz-map.com/Processes/218"
    }
  ]
}