{
  "metadata": {
    "scraped_from": "https://haz-map.com/Agents/1870",
    "entity_name": "Carmine",
    "category": "agents",
    "uuid": "09c155c3-1487-40b2-bb5b-124eef2b12d8",
    "scraped_at": "2025-07-23T19:05:46.622462"
  },
  "parsed_at": "2025-07-24T01:13:31.454170",
  "title": "Carmine",
  "sections": {
    "general": {
      "agent_name": {
        "original_name": "Agent Name",
        "value": "Carmine",
        "links": [],
        "cross_references": [
          {
            "type": "name_match",
            "text": "carmine",
            "confidence": 1.0,
            "uuid": "09c155c3-1487-40b2-bb5b-124eef2b12d8",
            "name": "Carmine",
            "url": "https://haz-map.com/Agents/1870",
            "category": "agents"
          }
        ]
      },
      "cas_number": {
        "original_name": "CAS Number",
        "value": "1390-65-4",
        "links": [],
        "cross_references": []
      },
      "formula": {
        "original_name": "Formula",
        "value": "C22-H20-O13",
        "links": [],
        "cross_references": []
      },
      "major_category": {
        "original_name": "Major Category",
        "value": "Dyes",
        "links": [],
        "cross_references": []
      },
      "synonyms": {
        "original_name": "Synonyms",
        "value": "B Rose liquid; Carmine (Coccus cacti L.); Cochineal (Coccus cacti L.); Cochineal extract lake; [ChemIDplus]",
        "links": [],
        "cross_references": [
          {
            "type": "name_match",
            "text": "carmine",
            "confidence": 1.0,
            "uuid": "09c155c3-1487-40b2-bb5b-124eef2b12d8",
            "name": "Carmine",
            "url": "https://haz-map.com/Agents/1870",
            "category": "agents"
          },
          {
            "type": "name_match",
            "text": "cochineal",
            "confidence": 1.0,
            "uuid": "a448e391-9926-4895-acbc-ce667b68215b",
            "name": "Cochineal",
            "url": "https://haz-map.com/Agents/13066",
            "category": "agents"
          }
        ]
      },
      "category": {
        "original_name": "Category",
        "value": "Anthraquinone Dyes",
        "links": [],
        "cross_references": [
          {
            "type": "name_match",
            "text": "quinone",
            "confidence": 1.0,
            "uuid": "d01e66c3-ad06-4707-8d42-3c6655001c1a",
            "name": "Quinone",
            "url": "https://haz-map.com/Agents/303",
            "category": "agents"
          },
          {
            "type": "name_match",
            "text": "anthraquinone",
            "confidence": 1.0,
            "uuid": "953f43e3-2275-41f0-9f8e-f5764f83b717",
            "name": "Anthraquinone",
            "url": "https://haz-map.com/Agents/3713",
            "category": "agents"
          }
        ]
      },
      "description": {
        "original_name": "Description",
        "value": "Red crystals in methanol; bright red powder; deep red color in water; [HSDB]",
        "links": [],
        "cross_references": [
          {
            "type": "name_match",
            "text": "ht",
            "confidence": 1.0,
            "uuid": "764df367-8d53-4a11-81a2-31ccfe122a8d",
            "name": "HT",
            "url": "https://haz-map.com/Agents/2168",
            "category": "agents"
          },
          {
            "type": "name_match",
            "text": "water",
            "confidence": 1.0,
            "uuid": "6f2a7557-dfd2-49bc-9b4b-a93cd8e225d4",
            "name": "Water",
            "url": "https://haz-map.com/Agents/18668",
            "category": "agents"
          }
        ]
      },
      "sourcesuses": {
        "original_name": "Sources/Uses",
        "value": "Used in inks, dyes, food coloring, photography, paints, microbiological stains, and chemical reagents; [HSDB] Carmine is used as a microscopic stain of chromatin. [Ullmann]",
        "links": [],
        "cross_references": [
          {
            "type": "name_match",
            "text": "mica",
            "confidence": 1.0,
            "uuid": "433f26f1-c399-4596-b179-ce3843cfd465",
            "name": "Mica",
            "url": "https://haz-map.com/Agents/621",
            "category": "agents"
          },
          {
            "type": "name_match",
            "text": "carmine",
            "confidence": 1.0,
            "uuid": "09c155c3-1487-40b2-bb5b-124eef2b12d8",
            "name": "Carmine",
            "url": "https://haz-map.com/Agents/1870",
            "category": "agents"
          }
        ]
      },
      "comments": {
        "original_name": "Comments",
        "value": "Anthraquinones are toxic by ingestion and may cause vomiting, diarrhea, kidney and liver damage, and coma; Deaths have been reported after children ingested Rhamnus berries; [HSDB] Occupational asthma confirmed in workers in dye manufacturing plant; [Malo] Cochineal is the dried bodies of the female insect coccus cacti. Carminic acid is the active coloring material, and carmine is the aluminum lake of carminic acid. [HSDB] See \"Carminic acid\" and \"Cochineal.\"",
        "links": [],
        "cross_references": [
          {
            "type": "name_match",
            "text": "diarrhea",
            "confidence": 1.0,
            "uuid": "001ae7b5-5f3c-42c2-bc33-81e7581abd53",
            "name": "diarrhea",
            "url": "https://haz-map.com/Findings/15",
            "category": "findings"
          },
          {
            "type": "name_match",
            "text": "aluminum",
            "confidence": 1.0,
            "uuid": "60ab7471-1af2-4a33-b727-63fa1e1fa189",
            "name": "Aluminum",
            "url": "https://haz-map.com/Agents/287",
            "category": "agents"
          },
          {
            "type": "name_match",
            "text": "quinone",
            "confidence": 1.0,
            "uuid": "d01e66c3-ad06-4707-8d42-3c6655001c1a",
            "name": "Quinone",
            "url": "https://haz-map.com/Agents/303",
            "category": "agents"
          },
          {
            "type": "name_match",
            "text": "carmine",
            "confidence": 1.0,
            "uuid": "09c155c3-1487-40b2-bb5b-124eef2b12d8",
            "name": "Carmine",
            "url": "https://haz-map.com/Agents/1870",
            "category": "agents"
          },
          {
            "type": "name_match",
            "text": "anthraquinone",
            "confidence": 1.0,
            "uuid": "953f43e3-2275-41f0-9f8e-f5764f83b717",
            "name": "Anthraquinone",
            "url": "https://haz-map.com/Agents/3713",
            "category": "agents"
          },
          {
            "type": "name_match",
            "text": "carminic acid",
            "confidence": 1.0,
            "uuid": "d1812e43-7380-4207-9c94-f094e9a23675",
            "name": "Carminic acid",
            "url": "https://haz-map.com/Agents/4236",
            "category": "agents"
          },
          {
            "type": "name_match",
            "text": "cochineal",
            "confidence": 1.0,
            "uuid": "a448e391-9926-4895-acbc-ce667b68215b",
            "name": "Cochineal",
            "url": "https://haz-map.com/Agents/13066",
            "category": "agents"
          }
        ]
      },
      "reference_link_1": {
        "original_name": "Reference Link #1",
        "value": "Occupational asthma and immunologic responses induced by inhaled carmine among employees at a factory making natural dyes.",
        "links": [
          {
            "text": "Occupational asthma and immunologic responses induced by inhaled carmine among employees at a factory making natural dyes.",
            "url": "http://www.ncbi.nlm.nih.gov/pubmed/8308181"
          }
        ],
        "cross_references": [
          {
            "type": "name_match",
            "text": "carmine",
            "confidence": 1.0,
            "uuid": "09c155c3-1487-40b2-bb5b-124eef2b12d8",
            "name": "Carmine",
            "url": "https://haz-map.com/Agents/1870",
            "category": "agents"
          }
        ]
      },
      "biomedical_references": {
        "original_name": "Biomedical References",
        "value": "Search PubMed",
        "links": [
          {
            "text": "Search PubMed",
            "url": "https://www.ncbi.nlm.nih.gov/pubmed?term=Carmine%20AND%20human%5Bmh%5D%20AND%20%28Occupational%20Diseases%20%5Bmh%5D%20OR%20Occupational%20Exposure%20%5Bmh%5D%29%20%20AND%20%28tox%5Bsb%5D%29&cmd=search"
          }
        ],
        "cross_references": []
      }
    },
    "exposure_assessment": {
      "vapor_pressure": {
        "original_name": "Vapor Pressure",
        "value": "9.71E-27 mm Hg",
        "links": [],
        "cross_references": []
      },
      "reference_link_2": {
        "original_name": "Reference Link #2",
        "value": "Occupational asthma induced by inhaled carmine among butchers.",
        "links": [
          {
            "text": "Occupational asthma induced by inhaled carmine among butchers.",
            "url": "http://www.ncbi.nlm.nih.gov/pubmed/12926405"
          }
        ],
        "cross_references": [
          {
            "type": "name_match",
            "text": "carmine",
            "confidence": 1.0,
            "uuid": "09c155c3-1487-40b2-bb5b-124eef2b12d8",
            "name": "Carmine",
            "url": "https://haz-map.com/Agents/1870",
            "category": "agents"
          }
        ]
      }
    },
    "adverse_effects": {
      "asthma": {
        "original_name": "Asthma",
        "value": "Yes",
        "links": [],
        "cross_references": []
      },
      "hepatotoxin": {
        "original_name": "Hepatotoxin",
        "value": "Hepatoxic (a) from occupational exposure (secondary effect) or (b) in animal studies or in humans after ingestion",
        "links": [],
        "cross_references": []
      }
    },
    "diseases_processes_and_activities_linked_to_this_agent": {
      "diseases": {
        "original_name": "Diseases",
        "value": "Occupational diseases associated with exposure to this agent: Asthma, occupational",
        "links": [
          {
            "text": "Asthma, occupational",
            "url": "https://haz-map.com/Diseases/23"
          }
        ],
        "cross_references": [
          {
            "type": "url_match",
            "text": "Asthma, occupational",
            "url": "https://haz-map.com/Diseases/23",
            "confidence": 1.0,
            "uuid": "29c464cb-36b2-43d8-b6fc-e19a0ea695cb",
            "name": "Asthma, occupational",
            "category": "diseases"
          }
        ]
      },
      "processes": {
        "original_name": "Processes",
        "value": "Industrial Processes with risk of exposure: Painting (Pigments, Binders, and Biocides) Photographic Processing Textiles (Printing, Dyeing, or Finishing)",
        "links": [
          {
            "text": "Painting (Pigments, Binders, and Biocides)",
            "url": "https://haz-map.com/Processes/145"
          },
          {
            "text": "Photographic Processing",
            "url": "https://haz-map.com/Processes/231"
          },
          {
            "text": "Textiles (Printing, Dyeing, or Finishing)",
            "url": "https://haz-map.com/Processes/235"
          }
        ],
        "cross_references": [
          {
            "type": "url_match",
            "text": "Painting (Pigments, Binders, and Biocides)",
            "url": "https://haz-map.com/Processes/145",
            "confidence": 1.0,
            "uuid": "25867878-e178-4c21-906f-d392d86b76de",
            "name": "Painting (Pigments, Binders, and Biocides)",
            "category": "processes"
          },
          {
            "type": "name_match",
            "text": "painting",
            "confidence": 1.0,
            "uuid": "19816ce9-9edf-4a86-8e64-b0cbf7dcf520",
            "name": "Painting",
            "url": "https://haz-map.com/Activities/9",
            "category": "activities"
          }
        ]
      }
    }
  },
  "cross_references": [
    {
      "type": "url_match",
      "text": "Asthma, occupational",
      "url": "https://haz-map.com/Diseases/23",
      "confidence": 1.0,
      "uuid": "29c464cb-36b2-43d8-b6fc-e19a0ea695cb",
      "name": "Asthma, occupational",
      "category": "diseases"
    },
    {
      "type": "url_match",
      "text": "Painting (Pigments, Binders, and Biocides)",
      "url": "https://haz-map.com/Processes/145",
      "confidence": 1.0,
      "uuid": "25867878-e178-4c21-906f-d392d86b76de",
      "name": "Painting (Pigments, Binders, and Biocides)",
      "category": "processes"
    },
    {
      "type": "name_match",
      "text": "painting",
      "confidence": 1.0,
      "uuid": "19816ce9-9edf-4a86-8e64-b0cbf7dcf520",
      "name": "Painting",
      "url": "https://haz-map.com/Activities/9",
      "category": "activities"
    },
    {
      "type": "name_match",
      "text": "diarrhea",
      "confidence": 1.0,
      "uuid": "001ae7b5-5f3c-42c2-bc33-81e7581abd53",
      "name": "diarrhea",
      "url": "https://haz-map.com/Findings/15",
      "category": "findings"
    },
    {
      "type": "name_match",
      "text": "aluminum",
      "confidence": 1.0,
      "uuid": "60ab7471-1af2-4a33-b727-63fa1e1fa189",
      "name": "Aluminum",
      "url": "https://haz-map.com/Agents/287",
      "category": "agents"
    },
    {
      "type": "name_match",
      "text": "quinone",
      "confidence": 1.0,
      "uuid": "d01e66c3-ad06-4707-8d42-3c6655001c1a",
      "name": "Quinone",
      "url": "https://haz-map.com/Agents/303",
      "category": "agents"
    },
    {
      "type": "name_match",
      "text": "mica",
      "confidence": 1.0,
      "uuid": "433f26f1-c399-4596-b179-ce3843cfd465",
      "name": "Mica",
      "url": "https://haz-map.com/Agents/621",
      "category": "agents"
    },
    {
      "type": "name_match",
      "text": "carmine",
      "confidence": 1.0,
      "uuid": "09c155c3-1487-40b2-bb5b-124eef2b12d8",
      "name": "Carmine",
      "url": "https://haz-map.com/Agents/1870",
      "category": "agents"
    },
    {
      "type": "name_match",
      "text": "ht",
      "confidence": 1.0,
      "uuid": "764df367-8d53-4a11-81a2-31ccfe122a8d",
      "name": "HT",
      "url": "https://haz-map.com/Agents/2168",
      "category": "agents"
    },
    {
      "type": "name_match",
      "text": "anthraquinone",
      "confidence": 1.0,
      "uuid": "953f43e3-2275-41f0-9f8e-f5764f83b717",
      "name": "Anthraquinone",
      "url": "https://haz-map.com/Agents/3713",
      "category": "agents"
    },
    {
      "type": "name_match",
      "text": "carminic acid",
      "confidence": 1.0,
      "uuid": "d1812e43-7380-4207-9c94-f094e9a23675",
      "name": "Carminic acid",
      "url": "https://haz-map.com/Agents/4236",
      "category": "agents"
    },
    {
      "type": "name_match",
      "text": "cochineal",
      "confidence": 1.0,
      "uuid": "a448e391-9926-4895-acbc-ce667b68215b",
      "name": "Cochineal",
      "url": "https://haz-map.com/Agents/13066",
      "category": "agents"
    },
    {
      "type": "name_match",
      "text": "water",
      "confidence": 1.0,
      "uuid": "6f2a7557-dfd2-49bc-9b4b-a93cd8e225d4",
      "name": "Water",
      "url": "https://haz-map.com/Agents/18668",
      "category": "agents"
    }
  ],
  "all_links": [
    {
      "text": "Occupational asthma and immunologic responses induced by inhaled carmine among employees at a factory making natural dyes.",
      "url": "http://www.ncbi.nlm.nih.gov/pubmed/8308181"
    },
    {
      "text": "Search PubMed",
      "url": "https://www.ncbi.nlm.nih.gov/pubmed?term=Carmine%20AND%20human%5Bmh%5D%20AND%20%28Occupational%20Diseases%20%5Bmh%5D%20OR%20Occupational%20Exposure%20%5Bmh%5D%29%20%20AND%20%28tox%5Bsb%5D%29&cmd=search"
    },
    {
      "text": "Occupational asthma induced by inhaled carmine among butchers.",
      "url": "http://www.ncbi.nlm.nih.gov/pubmed/12926405"
    },
    {
      "text": "Asthma, occupational",
      "url": "https://haz-map.com/Diseases/23"
    },
    {
      "text": "Painting (Pigments, Binders, and Biocides)",
      "url": "https://haz-map.com/Processes/145"
    },
    {
      "text": "Photographic Processing",
      "url": "https://haz-map.com/Processes/231"
    },
    {
      "text": "Textiles (Printing, Dyeing, or Finishing)",
      "url": "https://haz-map.com/Processes/235"
    }
  ]
}