{
  "metadata": {
    "scraped_from": "https://haz-map.com/Agents/4912",
    "entity_name": "Dilauryl thiodipropionate",
    "category": "agents",
    "uuid": "09e04ee8-bb8d-4fdb-ab6c-6350f9a7b163",
    "scraped_at": "2025-07-23T19:46:37.038771"
  },
  "parsed_at": "2025-07-24T01:04:15.712754",
  "title": "Dilauryl thiodipropionate",
  "sections": {
    "general": {
      "agent_name": {
        "original_name": "Agent Name",
        "value": "Dilauryl thiodipropionate",
        "links": [],
        "cross_references": [
          {
            "type": "name_match",
            "text": "dilauryl thiodipropionate",
            "confidence": 1.0,
            "uuid": "09e04ee8-bb8d-4fdb-ab6c-6350f9a7b163",
            "name": "Dilauryl thiodipropionate",
            "url": "https://haz-map.com/Agents/4912",
            "category": "agents"
          }
        ]
      },
      "cas_number": {
        "original_name": "CAS Number",
        "value": "123-28-4",
        "links": [],
        "cross_references": []
      },
      "formula": {
        "original_name": "Formula",
        "value": "C30-H58-O4-S",
        "links": [],
        "cross_references": []
      },
      "major_category": {
        "original_name": "Major Category",
        "value": "Other Classes",
        "links": [],
        "cross_references": []
      },
      "synonyms": {
        "original_name": "Synonyms",
        "value": "3,3'-Thiobispropionic acid, didodecyl ester; Advastab 800; Antioxidant AS; Antioxidant LTDP; Bis(dodecyloxycarbonylethyl) sulfide; Carstab DLTDP; Cyanox LTDP; D 1 (antioxidant); DLT; DLTP; Didodecyl 3,3'-thiodipropionate; Dilauryl 3,3'-thiodipropionate; Dilauryl thiodipropionic acid; Dilaurylester kyseliny beta',beta'-thiodipropionove [Czech]; DLTDP; DMPTP; Ipognox 89; Irganox PS 800; Lauryl 3,3'-thiodipropionate; Lusmit; Milban F; Neganox DLTP; Plastanox LTDP; Plastanox LTDP Antioxidant; Propanoic acid, 3,3'-thiobis-, didodecyl ester; Propionic acid, 3,3'-thiobis-, didodecyl ester; Propionic acid, 3,3'-thiodi-, didodecyl ester; Stabilizer DLT; Thiobis(dodecyl propionate); Thiodipropionic acid, dilauryl ester; Tyox B; Dilauryl beta-thiodipropionate; [ChemIDplus]",
        "links": [],
        "cross_references": [
          {
            "type": "name_match",
            "text": "propionic acid",
            "confidence": 1.0,
            "uuid": "519c4d0a-ac6f-4f79-a08f-47ebc278e0b4",
            "name": "Propionic acid",
            "url": "https://haz-map.com/Agents/609",
            "category": "agents"
          },
          {
            "type": "name_match",
            "text": "carbon",
            "confidence": 1.0,
            "uuid": "b53f8815-ee80-40ef-b4aa-3b000e17dab5",
            "name": "Carbon",
            "url": "https://haz-map.com/Agents/1891",
            "category": "agents"
          },
          {
            "type": "name_match",
            "text": "mptp",
            "confidence": 1.0,
            "uuid": "595038d6-d25c-4ba2-bb92-6bf3246cc822",
            "name": "MPTP",
            "url": "https://haz-map.com/Agents/2200",
            "category": "agents"
          },
          {
            "type": "name_match",
            "text": "thiodipropionic acid",
            "confidence": 1.0,
            "uuid": "b99db94f-61cf-45eb-b738-cee35016ba9a",
            "name": "Thiodipropionic acid",
            "url": "https://haz-map.com/Agents/7411",
            "category": "agents"
          }
        ]
      },
      "category": {
        "original_name": "Category",
        "value": "Esters, Other",
        "links": [],
        "cross_references": []
      },
      "description": {
        "original_name": "Description",
        "value": "White solid with a sweet odor; [Hawley] White crystalline powder; [MSDSonline]",
        "links": [],
        "cross_references": [
          {
            "type": "fuzzy_match",
            "text": "crystalline",
            "matched_name": "Silica, crystalline",
            "confidence": 0.7061403508771931,
            "uuid": "f920e8a2-46df-41b7-af8d-0368a777251e",
            "category": "agents",
            "url": "https://haz-map.com/Agents/427"
          }
        ]
      },
      "sourcesuses": {
        "original_name": "Sources/Uses",
        "value": "Used as a stabilizer of food packaging films, an additive for high-pressure lubricants and greases, a plasticizer and softening agent, and an antioxidant for edible fats and oils (up to 0.02% oil content); [HSDB]",
        "links": [],
        "cross_references": [
          {
            "type": "name_match",
            "text": "grease",
            "confidence": 1.0,
            "uuid": "bf476c67-9302-4215-a263-a67d337ab9ef",
            "name": "Grease",
            "url": "https://haz-map.com/Agents/21033",
            "category": "agents"
          }
        ]
      },
      "comments": {
        "original_name": "Comments",
        "value": "No developmental or maternal effects observed in high-dose studies with pregnant mice, hamsters, or rabbits; [HSDB]",
        "links": [],
        "cross_references": []
      },
      "biomedical_references": {
        "original_name": "Biomedical References",
        "value": "Search PubMed",
        "links": [
          {
            "text": "Search PubMed",
            "url": "https://www.ncbi.nlm.nih.gov/pubmed?term=Dilauryl+thiodipropionate%20AND%20human%5Bmh%5D%20AND%20%28Occupational%20Diseases%20%5Bmh%5D%20OR%20Occupational%20Exposure%20%5Bmh%5D%29%20%20AND%20%28tox%5Bsb%5D%29&cmd=search"
          }
        ],
        "cross_references": []
      }
    },
    "exposure_assessment": {
      "vapor_pressure": {
        "original_name": "Vapor Pressure",
        "value": "6.51E-09 mm Hg",
        "links": [],
        "cross_references": []
      }
    },
    "diseases_processes_and_activities_linked_to_this_agent": {
      "other_information": {
        "original_name": "Other Information",
        "value": "No other related information on this agent was found.",
        "links": [],
        "cross_references": []
      }
    }
  },
  "cross_references": [
    {
      "type": "name_match",
      "text": "propionic acid",
      "confidence": 1.0,
      "uuid": "519c4d0a-ac6f-4f79-a08f-47ebc278e0b4",
      "name": "Propionic acid",
      "url": "https://haz-map.com/Agents/609",
      "category": "agents"
    },
    {
      "type": "name_match",
      "text": "carbon",
      "confidence": 1.0,
      "uuid": "b53f8815-ee80-40ef-b4aa-3b000e17dab5",
      "name": "Carbon",
      "url": "https://haz-map.com/Agents/1891",
      "category": "agents"
    },
    {
      "type": "name_match",
      "text": "mptp",
      "confidence": 1.0,
      "uuid": "595038d6-d25c-4ba2-bb92-6bf3246cc822",
      "name": "MPTP",
      "url": "https://haz-map.com/Agents/2200",
      "category": "agents"
    },
    {
      "type": "name_match",
      "text": "dilauryl thiodipropionate",
      "confidence": 1.0,
      "uuid": "09e04ee8-bb8d-4fdb-ab6c-6350f9a7b163",
      "name": "Dilauryl thiodipropionate",
      "url": "https://haz-map.com/Agents/4912",
      "category": "agents"
    },
    {
      "type": "name_match",
      "text": "thiodipropionic acid",
      "confidence": 1.0,
      "uuid": "b99db94f-61cf-45eb-b738-cee35016ba9a",
      "name": "Thiodipropionic acid",
      "url": "https://haz-map.com/Agents/7411",
      "category": "agents"
    },
    {
      "type": "name_match",
      "text": "grease",
      "confidence": 1.0,
      "uuid": "bf476c67-9302-4215-a263-a67d337ab9ef",
      "name": "Grease",
      "url": "https://haz-map.com/Agents/21033",
      "category": "agents"
    },
    {
      "type": "fuzzy_match",
      "text": "crystalline",
      "matched_name": "Silica, crystalline",
      "confidence": 0.7061403508771931,
      "uuid": "f920e8a2-46df-41b7-af8d-0368a777251e",
      "category": "agents",
      "url": "https://haz-map.com/Agents/427"
    }
  ],
  "all_links": [
    {
      "text": "Search PubMed",
      "url": "https://www.ncbi.nlm.nih.gov/pubmed?term=Dilauryl+thiodipropionate%20AND%20human%5Bmh%5D%20AND%20%28Occupational%20Diseases%20%5Bmh%5D%20OR%20Occupational%20Exposure%20%5Bmh%5D%29%20%20AND%20%28tox%5Bsb%5D%29&cmd=search"
    }
  ]
}