{
  "metadata": {
    "scraped_from": "https://haz-map.com/Agents/8360",
    "entity_name": "Gallium trichloride",
    "category": "agents",
    "uuid": "0a0dc77d-0601-4c65-ba20-13e528d67e09",
    "scraped_at": "2025-07-23T20:25:55.396912"
  },
  "parsed_at": "2025-07-24T01:04:26.011894",
  "title": "Gallium trichloride",
  "sections": {
    "general": {
      "agent_name": {
        "original_name": "Agent Name",
        "value": "Gallium trichloride",
        "links": [],
        "cross_references": [
          {
            "type": "name_match",
            "text": "gallium",
            "confidence": 1.0,
            "uuid": "be1ac85e-1a42-42bf-9186-31983b3397a4",
            "name": "Gallium",
            "url": "https://haz-map.com/Agents/2027",
            "category": "agents"
          },
          {
            "type": "name_match",
            "text": "gallium trichloride",
            "confidence": 1.0,
            "uuid": "0a0dc77d-0601-4c65-ba20-13e528d67e09",
            "name": "Gallium trichloride",
            "url": "https://haz-map.com/Agents/8360",
            "category": "agents"
          }
        ]
      },
      "cas_number": {
        "original_name": "CAS Number",
        "value": "13450-90-3",
        "links": [],
        "cross_references": []
      },
      "formula": {
        "original_name": "Formula",
        "value": "Cl3-Ga",
        "links": [],
        "cross_references": []
      },
      "major_category": {
        "original_name": "Major Category",
        "value": "Metals",
        "links": [],
        "cross_references": []
      },
      "synonyms": {
        "original_name": "Synonyms",
        "value": "Gallium(III) chloride; Gallium chloride; Gallium(3+) chloride; Trichlorogallium; [ChemIDplus]",
        "links": [],
        "cross_references": [
          {
            "type": "name_match",
            "text": "gallium",
            "confidence": 1.0,
            "uuid": "be1ac85e-1a42-42bf-9186-31983b3397a4",
            "name": "Gallium",
            "url": "https://haz-map.com/Agents/2027",
            "category": "agents"
          }
        ]
      },
      "category": {
        "original_name": "Category",
        "value": "Metals, Inorganic Compounds",
        "links": [],
        "cross_references": [
          {
            "type": "fuzzy_match",
            "text": "organic compounds",
            "matched_name": "Tin, organic compounds",
            "confidence": 0.8196969696969697,
            "uuid": "e027d413-8869-4308-9eb2-27d768b011ea",
            "category": "agents",
            "url": "https://haz-map.com/Agents/656"
          },
          {
            "type": "fuzzy_match",
            "text": "inorganic compounds",
            "matched_name": "Tin and inorganic compounds",
            "confidence": 0.8161375661375662,
            "uuid": "f9a072ab-0fbc-477a-88a2-1389e762d773",
            "category": "agents",
            "url": "https://haz-map.com/Agents/42"
          },
          {
            "type": "fuzzy_match",
            "text": "inorganic compounds",
            "matched_name": "Mercury, inorganic compounds",
            "confidence": 0.7455357142857143,
            "uuid": "4b03e512-ea73-428b-aa40-cfb4b29e3cd6",
            "category": "agents",
            "url": "https://haz-map.com/Agents/1954"
          }
        ]
      },
      "description": {
        "original_name": "Description",
        "value": "Hygroscopic solid; Soluble in water; [Merck Index] White crystalline solid; [MSDSonline]",
        "links": [],
        "cross_references": [
          {
            "type": "name_match",
            "text": "water",
            "confidence": 1.0,
            "uuid": "6f2a7557-dfd2-49bc-9b4b-a93cd8e225d4",
            "name": "Water",
            "url": "https://haz-map.com/Agents/18668",
            "category": "agents"
          },
          {
            "type": "fuzzy_match",
            "text": "crystalline",
            "matched_name": "Silica, crystalline",
            "confidence": 0.7061403508771931,
            "uuid": "f920e8a2-46df-41b7-af8d-0368a777251e",
            "category": "agents",
            "url": "https://haz-map.com/Agents/427"
          }
        ]
      },
      "sourcesuses": {
        "original_name": "Sources/Uses",
        "value": "Used to make electronic instruments, semiconductors, alloys, and lubricants; [HSDB] Used as a catalyst in organic synthesis and a reagent in producing gallium semiconductors; [Merck Index]",
        "links": [],
        "cross_references": [
          {
            "type": "name_match",
            "text": "gallium",
            "confidence": 1.0,
            "uuid": "be1ac85e-1a42-42bf-9186-31983b3397a4",
            "name": "Gallium",
            "url": "https://haz-map.com/Agents/2027",
            "category": "agents"
          },
          {
            "type": "name_match",
            "text": "alloys",
            "confidence": 1.0,
            "uuid": "9666ccee-2fab-426c-b33d-4f9032422585",
            "name": "ALLOYS",
            "url": "https://haz-map.com/Agents/2201",
            "category": "agents"
          }
        ]
      },
      "comments": {
        "original_name": "Comments",
        "value": "Reacts with air; [Merck Index] Corrosive to skin and eyes; [eChemPortal: ERMA] Reacts violently with water; A corrosive substance that can cause injury to the skin, eyes, and respiratory tract; [MSDSonline]",
        "links": [],
        "cross_references": [
          {
            "type": "name_match",
            "text": "water",
            "confidence": 1.0,
            "uuid": "6f2a7557-dfd2-49bc-9b4b-a93cd8e225d4",
            "name": "Water",
            "url": "https://haz-map.com/Agents/18668",
            "category": "agents"
          }
        ]
      },
      "biomedical_references": {
        "original_name": "Biomedical References",
        "value": "Search PubMed",
        "links": [
          {
            "text": "Search PubMed",
            "url": "https://www.ncbi.nlm.nih.gov/pubmed?term=Gallium+trichloride%20AND%20human%5Bmh%5D%20AND%20%28Occupational%20Diseases%20%5Bmh%5D%20OR%20Occupational%20Exposure%20%5Bmh%5D%29%20%20AND%20%28tox%5Bsb%5D%29&cmd=search"
          }
        ],
        "cross_references": []
      }
    },
    "exposure_assessment": {
      "vapor_pressure": {
        "original_name": "Vapor Pressure",
        "value": "0.38 mm Hg",
        "links": [],
        "cross_references": []
      },
      "lethal_concentration": {
        "original_name": "Lethal Concentration",
        "value": "LCLo (rat) = 316 mg/m3/3h",
        "links": [],
        "cross_references": []
      }
    },
    "adverse_effects": {
      "dermatotoxin": {
        "original_name": "Dermatotoxin",
        "value": "Skin burns",
        "links": [],
        "cross_references": [
          {
            "type": "name_match",
            "text": "burn",
            "confidence": 1.0,
            "uuid": "63665de5-6376-4918-8dbf-4c10c4d63837",
            "name": "burn",
            "url": "https://haz-map.com/Findings/204",
            "category": "findings"
          }
        ]
      }
    },
    "diseases_processes_and_activities_linked_to_this_agent": {
      "processes": {
        "original_name": "Processes",
        "value": "Industrial Processes with risk of exposure: Metal Preparation and Pouring Semiconductor Manufacturing",
        "links": [
          {
            "text": "Metal Preparation and Pouring",
            "url": "https://haz-map.com/Processes/26"
          },
          {
            "text": "Semiconductor Manufacturing",
            "url": "https://haz-map.com/Processes/97"
          }
        ],
        "cross_references": [
          {
            "type": "url_match",
            "text": "Metal Preparation and Pouring",
            "url": "https://haz-map.com/Processes/26",
            "confidence": 1.0,
            "uuid": "fceac193-d92a-473f-b69f-e76b74928978",
            "name": "Metal Preparation and Pouring",
            "category": "processes"
          },
          {
            "type": "url_match",
            "text": "Semiconductor Manufacturing",
            "url": "https://haz-map.com/Processes/97",
            "confidence": 1.0,
            "uuid": "a1adedb7-a724-4539-9aff-c43b42706b89",
            "name": "Semiconductor Manufacturing",
            "category": "processes"
          }
        ]
      }
    }
  },
  "cross_references": [
    {
      "type": "url_match",
      "text": "Metal Preparation and Pouring",
      "url": "https://haz-map.com/Processes/26",
      "confidence": 1.0,
      "uuid": "fceac193-d92a-473f-b69f-e76b74928978",
      "name": "Metal Preparation and Pouring",
      "category": "processes"
    },
    {
      "type": "url_match",
      "text": "Semiconductor Manufacturing",
      "url": "https://haz-map.com/Processes/97",
      "confidence": 1.0,
      "uuid": "a1adedb7-a724-4539-9aff-c43b42706b89",
      "name": "Semiconductor Manufacturing",
      "category": "processes"
    },
    {
      "type": "name_match",
      "text": "burn",
      "confidence": 1.0,
      "uuid": "63665de5-6376-4918-8dbf-4c10c4d63837",
      "name": "burn",
      "url": "https://haz-map.com/Findings/204",
      "category": "findings"
    },
    {
      "type": "name_match",
      "text": "gallium",
      "confidence": 1.0,
      "uuid": "be1ac85e-1a42-42bf-9186-31983b3397a4",
      "name": "Gallium",
      "url": "https://haz-map.com/Agents/2027",
      "category": "agents"
    },
    {
      "type": "name_match",
      "text": "alloys",
      "confidence": 1.0,
      "uuid": "9666ccee-2fab-426c-b33d-4f9032422585",
      "name": "ALLOYS",
      "url": "https://haz-map.com/Agents/2201",
      "category": "agents"
    },
    {
      "type": "name_match",
      "text": "gallium trichloride",
      "confidence": 1.0,
      "uuid": "0a0dc77d-0601-4c65-ba20-13e528d67e09",
      "name": "Gallium trichloride",
      "url": "https://haz-map.com/Agents/8360",
      "category": "agents"
    },
    {
      "type": "name_match",
      "text": "water",
      "confidence": 1.0,
      "uuid": "6f2a7557-dfd2-49bc-9b4b-a93cd8e225d4",
      "name": "Water",
      "url": "https://haz-map.com/Agents/18668",
      "category": "agents"
    },
    {
      "type": "fuzzy_match",
      "text": "organic compounds",
      "matched_name": "Tin, organic compounds",
      "confidence": 0.8196969696969697,
      "uuid": "e027d413-8869-4308-9eb2-27d768b011ea",
      "category": "agents",
      "url": "https://haz-map.com/Agents/656"
    },
    {
      "type": "fuzzy_match",
      "text": "inorganic compounds",
      "matched_name": "Tin and inorganic compounds",
      "confidence": 0.8161375661375662,
      "uuid": "f9a072ab-0fbc-477a-88a2-1389e762d773",
      "category": "agents",
      "url": "https://haz-map.com/Agents/42"
    },
    {
      "type": "fuzzy_match",
      "text": "inorganic compounds",
      "matched_name": "Mercury, inorganic compounds",
      "confidence": 0.7455357142857143,
      "uuid": "4b03e512-ea73-428b-aa40-cfb4b29e3cd6",
      "category": "agents",
      "url": "https://haz-map.com/Agents/1954"
    },
    {
      "type": "fuzzy_match",
      "text": "crystalline",
      "matched_name": "Silica, crystalline",
      "confidence": 0.7061403508771931,
      "uuid": "f920e8a2-46df-41b7-af8d-0368a777251e",
      "category": "agents",
      "url": "https://haz-map.com/Agents/427"
    }
  ],
  "all_links": [
    {
      "text": "Search PubMed",
      "url": "https://www.ncbi.nlm.nih.gov/pubmed?term=Gallium+trichloride%20AND%20human%5Bmh%5D%20AND%20%28Occupational%20Diseases%20%5Bmh%5D%20OR%20Occupational%20Exposure%20%5Bmh%5D%29%20%20AND%20%28tox%5Bsb%5D%29&cmd=search"
    },
    {
      "text": "Metal Preparation and Pouring",
      "url": "https://haz-map.com/Processes/26"
    },
    {
      "text": "Semiconductor Manufacturing",
      "url": "https://haz-map.com/Processes/97"
    }
  ]
}