{
  "metadata": {
    "scraped_from": "https://haz-map.com/Agents/16437",
    "entity_name": "3,3-Dimethylpentane",
    "category": "agents",
    "uuid": "0a83efbd-83d2-42de-b343-75dae2929e6a",
    "scraped_at": "2025-07-23T21:37:34.912595"
  },
  "parsed_at": "2025-07-24T01:17:30.069510",
  "title": "3,3-Dimethylpentane",
  "sections": {
    "general": {
      "agent_name": {
        "original_name": "Agent Name",
        "value": "3,3-Dimethylpentane",
        "links": [],
        "cross_references": [
          {
            "type": "name_match",
            "text": "3,3-dimethylpentane",
            "confidence": 1.0,
            "uuid": "0a83efbd-83d2-42de-b343-75dae2929e6a",
            "name": "3,3-Dimethylpentane",
            "url": "https://haz-map.com/Agents/16437",
            "category": "agents"
          },
          {
            "type": "fuzzy_match",
            "text": "3-dimethylpentane",
            "matched_name": "2,3-Dimethylpentane",
            "confidence": 0.880701754385965,
            "uuid": "c93035b9-02c0-41c0-8568-3b430b95faa8",
            "category": "agents",
            "url": "https://haz-map.com/Agents/16434"
          }
        ]
      },
      "cas_number": {
        "original_name": "CAS Number",
        "value": "562-49-2",
        "links": [],
        "cross_references": []
      },
      "formula": {
        "original_name": "Formula",
        "value": "C7-H16",
        "links": [],
        "cross_references": []
      },
      "major_category": {
        "original_name": "Major Category",
        "value": "Solvents",
        "links": [],
        "cross_references": []
      },
      "synonyms": {
        "original_name": "Synonyms",
        "value": "Pentane, 3,3-dimethyl-; [ChemIDplus] UN1206",
        "links": [],
        "cross_references": []
      },
      "category": {
        "original_name": "Category",
        "value": "Aliphatics, Saturated (<C12)",
        "links": [],
        "cross_references": []
      },
      "description": {
        "original_name": "Description",
        "value": "Colorless liquid; [Alfa Aesar MSDS]",
        "links": [],
        "cross_references": []
      },
      "comments": {
        "original_name": "Comments",
        "value": "A skin irritant; Harmful by ingestion (may cause lung damage by aspiration); Inhalation may cause dizziness and drowsiness; [Alfa Aesar MSDS]",
        "links": [],
        "cross_references": [
          {
            "type": "name_match",
            "text": "dizziness",
            "confidence": 1.0,
            "uuid": "4b0e6043-b228-49de-996c-b42ec8b3780e",
            "name": "dizziness",
            "url": "https://haz-map.com/Findings/16",
            "category": "findings"
          }
        ]
      },
      "biomedical_references": {
        "original_name": "Biomedical References",
        "value": "Search PubMed",
        "links": [
          {
            "text": "Search PubMed",
            "url": "https://www.ncbi.nlm.nih.gov/pubmed?term=3%2c3-Dimethylpentane%20AND%20human%5Bmh%5D%20AND%20%28Occupational%20Diseases%20%5Bmh%5D%20OR%20Occupational%20Exposure%20%5Bmh%5D%29%20%20AND%20%28tox%5Bsb%5D%29&cmd=search"
          }
        ],
        "cross_references": []
      }
    },
    "exposure_assessment": {
      "vapor_pressure": {
        "original_name": "Vapor Pressure",
        "value": "82.7 mm Hg",
        "links": [],
        "cross_references": []
      },
      "explanatory_notes": {
        "original_name": "Explanatory Notes",
        "value": "The Guide in the Emergency Response Guidebook is for \"Heptanes.\" VP from ChemIDplus;",
        "links": [],
        "cross_references": []
      }
    },
    "adverse_effects": {
      "neurotoxin": {
        "original_name": "Neurotoxin",
        "value": "Acute solvent syndrome",
        "links": [],
        "cross_references": []
      }
    },
    "diseases_processes_and_activities_linked_to_this_agent": {
      "diseases": {
        "original_name": "Diseases",
        "value": "Occupational diseases associated with exposure to this agent: Solvents, acute toxic effect",
        "links": [
          {
            "text": "Solvents, acute toxic effect",
            "url": "https://haz-map.com/Diseases/326"
          }
        ],
        "cross_references": [
          {
            "type": "url_match",
            "text": "Solvents, acute toxic effect",
            "url": "https://haz-map.com/Diseases/326",
            "confidence": 1.0,
            "uuid": "581e90e3-9d0c-45f0-aa6c-3468c28da129",
            "name": "Solvents, acute toxic effect",
            "category": "diseases"
          }
        ]
      }
    }
  },
  "cross_references": [
    {
      "type": "url_match",
      "text": "Solvents, acute toxic effect",
      "url": "https://haz-map.com/Diseases/326",
      "confidence": 1.0,
      "uuid": "581e90e3-9d0c-45f0-aa6c-3468c28da129",
      "name": "Solvents, acute toxic effect",
      "category": "diseases"
    },
    {
      "type": "name_match",
      "text": "dizziness",
      "confidence": 1.0,
      "uuid": "4b0e6043-b228-49de-996c-b42ec8b3780e",
      "name": "dizziness",
      "url": "https://haz-map.com/Findings/16",
      "category": "findings"
    },
    {
      "type": "name_match",
      "text": "3,3-dimethylpentane",
      "confidence": 1.0,
      "uuid": "0a83efbd-83d2-42de-b343-75dae2929e6a",
      "name": "3,3-Dimethylpentane",
      "url": "https://haz-map.com/Agents/16437",
      "category": "agents"
    },
    {
      "type": "fuzzy_match",
      "text": "3-dimethylpentane",
      "matched_name": "2,3-Dimethylpentane",
      "confidence": 0.880701754385965,
      "uuid": "c93035b9-02c0-41c0-8568-3b430b95faa8",
      "category": "agents",
      "url": "https://haz-map.com/Agents/16434"
    }
  ],
  "all_links": [
    {
      "text": "Search PubMed",
      "url": "https://www.ncbi.nlm.nih.gov/pubmed?term=3%2c3-Dimethylpentane%20AND%20human%5Bmh%5D%20AND%20%28Occupational%20Diseases%20%5Bmh%5D%20OR%20Occupational%20Exposure%20%5Bmh%5D%29%20%20AND%20%28tox%5Bsb%5D%29&cmd=search"
    },
    {
      "text": "Solvents, acute toxic effect",
      "url": "https://haz-map.com/Diseases/326"
    }
  ]
}