{
  "metadata": {
    "scraped_from": "https://haz-map.com/Agents/7590",
    "entity_name": "Triglycol diacetate",
    "category": "agents",
    "uuid": "0a99681f-1830-4225-8265-f75c60a6fb90",
    "scraped_at": "2025-07-23T20:14:34.158951"
  },
  "parsed_at": "2025-07-24T00:50:34.027760",
  "title": "Triglycol diacetate",
  "sections": {
    "general": {
      "agent_name": {
        "original_name": "Agent Name",
        "value": "Triglycol diacetate",
        "links": [],
        "cross_references": [
          {
            "type": "name_match",
            "text": "triglycol diacetate",
            "confidence": 1.0,
            "uuid": "0a99681f-1830-4225-8265-f75c60a6fb90",
            "name": "Triglycol diacetate",
            "url": "https://haz-map.com/Agents/7590",
            "category": "agents"
          }
        ]
      },
      "alternative_name": {
        "original_name": "Alternative Name",
        "value": "Triethylene glycol diacetate",
        "links": [],
        "cross_references": [
          {
            "type": "name_match",
            "text": "ethylene glycol",
            "confidence": 1.0,
            "uuid": "99589035-d71c-415a-914c-81c7a166be11",
            "name": "Ethylene glycol",
            "url": "https://haz-map.com/Agents/488",
            "category": "agents"
          },
          {
            "type": "name_match",
            "text": "ethylene",
            "confidence": 1.0,
            "uuid": "958eacc0-5135-4b62-bb93-6df972bf552f",
            "name": "Ethylene",
            "url": "https://haz-map.com/Agents/1076",
            "category": "agents"
          },
          {
            "type": "name_match",
            "text": "ethylene glycol diacetate",
            "confidence": 1.0,
            "uuid": "ca15433e-43a2-4d36-8c3b-38e5674e807a",
            "name": "Ethylene glycol diacetate",
            "url": "https://haz-map.com/Agents/5214",
            "category": "agents"
          },
          {
            "type": "name_match",
            "text": "triethylene glycol",
            "confidence": 1.0,
            "uuid": "d663b8c5-8e07-4966-958a-ce0f5e532bd0",
            "name": "Triethylene glycol",
            "url": "https://haz-map.com/Agents/7567",
            "category": "agents"
          }
        ]
      },
      "cas_number": {
        "original_name": "CAS Number",
        "value": "111-21-7",
        "links": [],
        "cross_references": []
      },
      "formula": {
        "original_name": "Formula",
        "value": "C10-H18-O6",
        "links": [],
        "cross_references": []
      },
      "major_category": {
        "original_name": "Major Category",
        "value": "Plastics & Rubber",
        "links": [],
        "cross_references": []
      },
      "synonyms": {
        "original_name": "Synonyms",
        "value": "Triethylene glycol diacetate; 2,2'-(Ethylenedioxy)di(ethyl acetate); Acetic acid, triethylene glycol diester; Ethanol, 2,2'-ethylenedioxydi-, diacetate; TDAC; Triglycol, diacetate; 2,2'-(1,2-Ethanediylbis(oxy))bisethanol, diacetate; 2,2'-(Ethane-1,2-diylbis(oxy))bisethyl diacetate; Ethanol, 2,2'-((1,2-ethanediyl)bis(oxy))bis-, 1,1'-diacetate; Ethanol, 2,2'-(1,2-ethanediylbis(oxy))bis-, diacetate; Triethylene glycol, diacetate; [ChemIDplus]",
        "links": [],
        "cross_references": [
          {
            "type": "name_match",
            "text": "acetic acid",
            "confidence": 1.0,
            "uuid": "0905c6e4-df84-4895-a92d-658819239bbd",
            "name": "Acetic acid",
            "url": "https://haz-map.com/Agents/207",
            "category": "agents"
          },
          {
            "type": "name_match",
            "text": "ethylene glycol",
            "confidence": 1.0,
            "uuid": "99589035-d71c-415a-914c-81c7a166be11",
            "name": "Ethylene glycol",
            "url": "https://haz-map.com/Agents/488",
            "category": "agents"
          },
          {
            "type": "name_match",
            "text": "ethyl acetate",
            "confidence": 1.0,
            "uuid": "ed41957a-17a2-415b-87b5-5893e3fa08ad",
            "name": "Ethyl acetate",
            "url": "https://haz-map.com/Agents/721",
            "category": "agents"
          },
          {
            "type": "name_match",
            "text": "ethane",
            "confidence": 1.0,
            "uuid": "5162cc8c-dfb9-4060-81ac-38a8cec7f9dd",
            "name": "Ethane",
            "url": "https://haz-map.com/Agents/1075",
            "category": "agents"
          },
          {
            "type": "name_match",
            "text": "ethylene",
            "confidence": 1.0,
            "uuid": "958eacc0-5135-4b62-bb93-6df972bf552f",
            "name": "Ethylene",
            "url": "https://haz-map.com/Agents/1076",
            "category": "agents"
          },
          {
            "type": "name_match",
            "text": "ethylene glycol diacetate",
            "confidence": 1.0,
            "uuid": "ca15433e-43a2-4d36-8c3b-38e5674e807a",
            "name": "Ethylene glycol diacetate",
            "url": "https://haz-map.com/Agents/5214",
            "category": "agents"
          },
          {
            "type": "name_match",
            "text": "triethylene glycol",
            "confidence": 1.0,
            "uuid": "d663b8c5-8e07-4966-958a-ce0f5e532bd0",
            "name": "Triethylene glycol",
            "url": "https://haz-map.com/Agents/7567",
            "category": "agents"
          }
        ]
      },
      "category": {
        "original_name": "Category",
        "value": "Other Plasticizers",
        "links": [],
        "cross_references": []
      },
      "description": {
        "original_name": "Description",
        "value": "Colorless liquid; [HSDB] Odorless; [CAMEO]",
        "links": [],
        "cross_references": []
      },
      "sourcesuses": {
        "original_name": "Sources/Uses",
        "value": "Used as plasticizer for cellulose acetate, cellulose nitrate, cellulose acetate butyrate, ethyl cellulose, and polymethyl methacrylate resins; [HSDB]",
        "links": [],
        "cross_references": [
          {
            "type": "name_match",
            "text": "methyl methacrylate",
            "confidence": 1.0,
            "uuid": "2199439b-5703-45e3-97fa-22fd2d480eb9",
            "name": "Methyl methacrylate",
            "url": "https://haz-map.com/Agents/216",
            "category": "agents"
          },
          {
            "type": "name_match",
            "text": "cellulose",
            "confidence": 1.0,
            "uuid": "b9b1b190-806c-4622-8201-8f09b0a87eca",
            "name": "Cellulose",
            "url": "https://haz-map.com/Agents/347",
            "category": "agents"
          },
          {
            "type": "name_match",
            "text": "ethyl methacrylate",
            "confidence": 1.0,
            "uuid": "c6fffbc1-19c8-4d59-a80f-43c99fc33e11",
            "name": "Ethyl methacrylate",
            "url": "https://haz-map.com/Agents/825",
            "category": "agents"
          },
          {
            "type": "name_match",
            "text": "cellulose acetate",
            "confidence": 1.0,
            "uuid": "49569e1f-799a-41c1-89b6-2457a776e513",
            "name": "Cellulose acetate",
            "url": "https://haz-map.com/Agents/4251",
            "category": "agents"
          },
          {
            "type": "name_match",
            "text": "ethyl cellulose",
            "confidence": 1.0,
            "uuid": "b3245a3e-f347-440d-8981-e7c57a38f238",
            "name": "Ethyl cellulose",
            "url": "https://haz-map.com/Agents/8356",
            "category": "agents"
          },
          {
            "type": "name_match",
            "text": "cellulose acetate butyrate",
            "confidence": 1.0,
            "uuid": "84fa751e-0a0e-4c60-9cc7-292c0340b5cb",
            "name": "Cellulose acetate butyrate",
            "url": "https://haz-map.com/Agents/12801",
            "category": "agents"
          }
        ]
      },
      "comments": {
        "original_name": "Comments",
        "value": "A reproductive effector and mild skin irritant; [RTECS] May polymerize; A skin and eye irritant; [CAMEO] A skin irritant; [MSDSonline]",
        "links": [],
        "cross_references": []
      },
      "biomedical_references": {
        "original_name": "Biomedical References",
        "value": "Search PubMed",
        "links": [
          {
            "text": "Search PubMed",
            "url": "https://www.ncbi.nlm.nih.gov/pubmed?term=Triglycol+diacetate%20AND%20human%5Bmh%5D%20AND%20%28Occupational%20Diseases%20%5Bmh%5D%20OR%20Occupational%20Exposure%20%5Bmh%5D%29%20%20AND%20%28tox%5Bsb%5D%29&cmd=search"
          }
        ],
        "cross_references": []
      }
    },
    "exposure_assessment": {
      "vapor_pressure": {
        "original_name": "Vapor Pressure",
        "value": "0.00409 mm Hg",
        "links": [],
        "cross_references": []
      },
      "explanatory_notes": {
        "original_name": "Explanatory Notes",
        "value": "VP = 19.0 mm Hg at 25 deg C; [CAMEO] VP = 0.023 mm Hg at 25 deg C; [MSDSonline]",
        "links": [],
        "cross_references": []
      },
      "nfpa": {
        "original_name": "NFPA",
        "value": "must be preheated",
        "links": [],
        "cross_references": []
      }
    },
    "diseases_processes_and_activities_linked_to_this_agent": {
      "processes": {
        "original_name": "Processes",
        "value": "Industrial Processes with risk of exposure: Plastic Composites Manufacturing",
        "links": [
          {
            "text": "Plastic Composites Manufacturing",
            "url": "https://haz-map.com/Processes/222"
          }
        ],
        "cross_references": [
          {
            "type": "url_match",
            "text": "Plastic Composites Manufacturing",
            "url": "https://haz-map.com/Processes/222",
            "confidence": 1.0,
            "uuid": "d4461b82-dc77-4172-8e3d-0a5e3b213911",
            "name": "Plastic Composites Manufacturing",
            "category": "processes"
          }
        ]
      }
    }
  },
  "cross_references": [
    {
      "type": "url_match",
      "text": "Plastic Composites Manufacturing",
      "url": "https://haz-map.com/Processes/222",
      "confidence": 1.0,
      "uuid": "d4461b82-dc77-4172-8e3d-0a5e3b213911",
      "name": "Plastic Composites Manufacturing",
      "category": "processes"
    },
    {
      "type": "name_match",
      "text": "acetic acid",
      "confidence": 1.0,
      "uuid": "0905c6e4-df84-4895-a92d-658819239bbd",
      "name": "Acetic acid",
      "url": "https://haz-map.com/Agents/207",
      "category": "agents"
    },
    {
      "type": "name_match",
      "text": "methyl methacrylate",
      "confidence": 1.0,
      "uuid": "2199439b-5703-45e3-97fa-22fd2d480eb9",
      "name": "Methyl methacrylate",
      "url": "https://haz-map.com/Agents/216",
      "category": "agents"
    },
    {
      "type": "name_match",
      "text": "cellulose",
      "confidence": 1.0,
      "uuid": "b9b1b190-806c-4622-8201-8f09b0a87eca",
      "name": "Cellulose",
      "url": "https://haz-map.com/Agents/347",
      "category": "agents"
    },
    {
      "type": "name_match",
      "text": "ethylene glycol",
      "confidence": 1.0,
      "uuid": "99589035-d71c-415a-914c-81c7a166be11",
      "name": "Ethylene glycol",
      "url": "https://haz-map.com/Agents/488",
      "category": "agents"
    },
    {
      "type": "name_match",
      "text": "ethyl acetate",
      "confidence": 1.0,
      "uuid": "ed41957a-17a2-415b-87b5-5893e3fa08ad",
      "name": "Ethyl acetate",
      "url": "https://haz-map.com/Agents/721",
      "category": "agents"
    },
    {
      "type": "name_match",
      "text": "ethyl methacrylate",
      "confidence": 1.0,
      "uuid": "c6fffbc1-19c8-4d59-a80f-43c99fc33e11",
      "name": "Ethyl methacrylate",
      "url": "https://haz-map.com/Agents/825",
      "category": "agents"
    },
    {
      "type": "name_match",
      "text": "ethane",
      "confidence": 1.0,
      "uuid": "5162cc8c-dfb9-4060-81ac-38a8cec7f9dd",
      "name": "Ethane",
      "url": "https://haz-map.com/Agents/1075",
      "category": "agents"
    },
    {
      "type": "name_match",
      "text": "ethylene",
      "confidence": 1.0,
      "uuid": "958eacc0-5135-4b62-bb93-6df972bf552f",
      "name": "Ethylene",
      "url": "https://haz-map.com/Agents/1076",
      "category": "agents"
    },
    {
      "type": "name_match",
      "text": "cellulose acetate",
      "confidence": 1.0,
      "uuid": "49569e1f-799a-41c1-89b6-2457a776e513",
      "name": "Cellulose acetate",
      "url": "https://haz-map.com/Agents/4251",
      "category": "agents"
    },
    {
      "type": "name_match",
      "text": "ethylene glycol diacetate",
      "confidence": 1.0,
      "uuid": "ca15433e-43a2-4d36-8c3b-38e5674e807a",
      "name": "Ethylene glycol diacetate",
      "url": "https://haz-map.com/Agents/5214",
      "category": "agents"
    },
    {
      "type": "name_match",
      "text": "triethylene glycol",
      "confidence": 1.0,
      "uuid": "d663b8c5-8e07-4966-958a-ce0f5e532bd0",
      "name": "Triethylene glycol",
      "url": "https://haz-map.com/Agents/7567",
      "category": "agents"
    },
    {
      "type": "name_match",
      "text": "triglycol diacetate",
      "confidence": 1.0,
      "uuid": "0a99681f-1830-4225-8265-f75c60a6fb90",
      "name": "Triglycol diacetate",
      "url": "https://haz-map.com/Agents/7590",
      "category": "agents"
    },
    {
      "type": "name_match",
      "text": "ethyl cellulose",
      "confidence": 1.0,
      "uuid": "b3245a3e-f347-440d-8981-e7c57a38f238",
      "name": "Ethyl cellulose",
      "url": "https://haz-map.com/Agents/8356",
      "category": "agents"
    },
    {
      "type": "name_match",
      "text": "cellulose acetate butyrate",
      "confidence": 1.0,
      "uuid": "84fa751e-0a0e-4c60-9cc7-292c0340b5cb",
      "name": "Cellulose acetate butyrate",
      "url": "https://haz-map.com/Agents/12801",
      "category": "agents"
    }
  ],
  "all_links": [
    {
      "text": "Search PubMed",
      "url": "https://www.ncbi.nlm.nih.gov/pubmed?term=Triglycol+diacetate%20AND%20human%5Bmh%5D%20AND%20%28Occupational%20Diseases%20%5Bmh%5D%20OR%20Occupational%20Exposure%20%5Bmh%5D%29%20%20AND%20%28tox%5Bsb%5D%29&cmd=search"
    },
    {
      "text": "Plastic Composites Manufacturing",
      "url": "https://haz-map.com/Processes/222"
    }
  ]
}