{
  "metadata": {
    "scraped_from": "https://haz-map.com/Agents/2459",
    "entity_name": "Molybdenum hexacarbonyl",
    "category": "agents",
    "uuid": "0af0d2af-a731-4d12-b478-dd8677a84630",
    "scraped_at": "2025-07-23T19:13:17.261439"
  },
  "parsed_at": "2025-07-24T00:57:52.275714",
  "title": "Molybdenum hexacarbonyl",
  "sections": {
    "general": {
      "agent_name": {
        "original_name": "Agent Name",
        "value": "Molybdenum hexacarbonyl",
        "links": [],
        "cross_references": [
          {
            "type": "name_match",
            "text": "molybdenum",
            "confidence": 1.0,
            "uuid": "76d52948-f016-4bd4-9f50-20525aec4bcd",
            "name": "Molybdenum",
            "url": "https://haz-map.com/Agents/64",
            "category": "agents"
          },
          {
            "type": "name_match",
            "text": "carbon",
            "confidence": 1.0,
            "uuid": "b53f8815-ee80-40ef-b4aa-3b000e17dab5",
            "name": "Carbon",
            "url": "https://haz-map.com/Agents/1891",
            "category": "agents"
          },
          {
            "type": "name_match",
            "text": "molybdenum hexacarbonyl",
            "confidence": 1.0,
            "uuid": "0af0d2af-a731-4d12-b478-dd8677a84630",
            "name": "Molybdenum hexacarbonyl",
            "url": "https://haz-map.com/Agents/2459",
            "category": "agents"
          }
        ]
      },
      "cas_number": {
        "original_name": "CAS Number",
        "value": "13939-06-5",
        "links": [],
        "cross_references": []
      },
      "formula": {
        "original_name": "Formula",
        "value": "C6-Mo-O6",
        "links": [],
        "cross_references": []
      },
      "major_category": {
        "original_name": "Major Category",
        "value": "Metals",
        "links": [],
        "cross_references": []
      },
      "synonyms": {
        "original_name": "Synonyms",
        "value": "Hexacarbonylmolybdenum; [ChemIDplus] Molybdenum carbonyl; [Hawley] UN3466",
        "links": [],
        "cross_references": [
          {
            "type": "name_match",
            "text": "molybdenum",
            "confidence": 1.0,
            "uuid": "76d52948-f016-4bd4-9f50-20525aec4bcd",
            "name": "Molybdenum",
            "url": "https://haz-map.com/Agents/64",
            "category": "agents"
          },
          {
            "type": "name_match",
            "text": "carbon",
            "confidence": 1.0,
            "uuid": "b53f8815-ee80-40ef-b4aa-3b000e17dab5",
            "name": "Carbon",
            "url": "https://haz-map.com/Agents/1891",
            "category": "agents"
          }
        ]
      },
      "category": {
        "original_name": "Category",
        "value": "Metals, Organic Compounds",
        "links": [],
        "cross_references": [
          {
            "type": "fuzzy_match",
            "text": "organic compounds",
            "matched_name": "Tin, organic compounds",
            "confidence": 0.8196969696969697,
            "uuid": "e027d413-8869-4308-9eb2-27d768b011ea",
            "category": "agents",
            "url": "https://haz-map.com/Agents/656"
          }
        ]
      },
      "description": {
        "original_name": "Description",
        "value": "White solid; [Hawley]",
        "links": [],
        "cross_references": []
      },
      "sourcesuses": {
        "original_name": "Sources/Uses",
        "value": "Used in molybdenum plating; [Hawley]",
        "links": [],
        "cross_references": [
          {
            "type": "name_match",
            "text": "molybdenum",
            "confidence": 1.0,
            "uuid": "76d52948-f016-4bd4-9f50-20525aec4bcd",
            "name": "Molybdenum",
            "url": "https://haz-map.com/Agents/64",
            "category": "agents"
          }
        ]
      },
      "comments": {
        "original_name": "Comments",
        "value": "Toxic by ingestion; May be harmful if absorbed through skin or inhaled; A skin, eye, and respiratory tract irritant; [MSDSonline] See \"\"Chromium hexacarbonyl.\" See \"Molybdenum.\"",
        "links": [],
        "cross_references": [
          {
            "type": "name_match",
            "text": "chromium",
            "confidence": 1.0,
            "uuid": "84822d7b-b69c-44a8-96b3-a0e606e38049",
            "name": "Chromium",
            "url": "https://haz-map.com/Agents/7",
            "category": "agents"
          },
          {
            "type": "name_match",
            "text": "molybdenum",
            "confidence": 1.0,
            "uuid": "76d52948-f016-4bd4-9f50-20525aec4bcd",
            "name": "Molybdenum",
            "url": "https://haz-map.com/Agents/64",
            "category": "agents"
          },
          {
            "type": "name_match",
            "text": "carbon",
            "confidence": 1.0,
            "uuid": "b53f8815-ee80-40ef-b4aa-3b000e17dab5",
            "name": "Carbon",
            "url": "https://haz-map.com/Agents/1891",
            "category": "agents"
          },
          {
            "type": "name_match",
            "text": "chromium hexacarbonyl",
            "confidence": 1.0,
            "uuid": "31c55550-92e3-47fa-9e59-0b938cdf1ffc",
            "name": "Chromium hexacarbonyl",
            "url": "https://haz-map.com/Agents/2453",
            "category": "agents"
          }
        ]
      },
      "biomedical_references": {
        "original_name": "Biomedical References",
        "value": "Search PubMed",
        "links": [
          {
            "text": "Search PubMed",
            "url": "https://www.ncbi.nlm.nih.gov/pubmed?term=Molybdenum+hexacarbonyl%20AND%20human%5Bmh%5D%20AND%20%28Occupational%20Diseases%20%5Bmh%5D%20OR%20Occupational%20Exposure%20%5Bmh%5D%29%20%20AND%20%28tox%5Bsb%5D%29&cmd=search"
          }
        ],
        "cross_references": []
      }
    },
    "exposure_assessment": {
      "vapor_pressure": {
        "original_name": "Vapor Pressure",
        "value": "9.75 mm Hg",
        "links": [],
        "cross_references": []
      },
      "explanatory_notes": {
        "original_name": "Explanatory Notes",
        "value": "VP = 9.75 mmHg at 20 deg C; mp = 150 deg C; [MSDSonline] For TLV, see \"Molybdenum and compounds.\"",
        "links": [],
        "cross_references": [
          {
            "type": "name_match",
            "text": "molybdenum",
            "confidence": 1.0,
            "uuid": "76d52948-f016-4bd4-9f50-20525aec4bcd",
            "name": "Molybdenum",
            "url": "https://haz-map.com/Agents/64",
            "category": "agents"
          }
        ]
      }
    },
    "diseases_processes_and_activities_linked_to_this_agent": {
      "processes": {
        "original_name": "Processes",
        "value": "Industrial Processes with risk of exposure: Electroplating",
        "links": [
          {
            "text": "Electroplating",
            "url": "https://haz-map.com/Processes/66"
          }
        ],
        "cross_references": [
          {
            "type": "url_match",
            "text": "Electroplating",
            "url": "https://haz-map.com/Processes/66",
            "confidence": 1.0,
            "uuid": "ae1bd2c1-37de-4b26-82b6-47ee206af837",
            "name": "Electroplating",
            "category": "processes"
          }
        ]
      }
    }
  },
  "cross_references": [
    {
      "type": "url_match",
      "text": "Electroplating",
      "url": "https://haz-map.com/Processes/66",
      "confidence": 1.0,
      "uuid": "ae1bd2c1-37de-4b26-82b6-47ee206af837",
      "name": "Electroplating",
      "category": "processes"
    },
    {
      "type": "name_match",
      "text": "chromium",
      "confidence": 1.0,
      "uuid": "84822d7b-b69c-44a8-96b3-a0e606e38049",
      "name": "Chromium",
      "url": "https://haz-map.com/Agents/7",
      "category": "agents"
    },
    {
      "type": "name_match",
      "text": "molybdenum",
      "confidence": 1.0,
      "uuid": "76d52948-f016-4bd4-9f50-20525aec4bcd",
      "name": "Molybdenum",
      "url": "https://haz-map.com/Agents/64",
      "category": "agents"
    },
    {
      "type": "name_match",
      "text": "carbon",
      "confidence": 1.0,
      "uuid": "b53f8815-ee80-40ef-b4aa-3b000e17dab5",
      "name": "Carbon",
      "url": "https://haz-map.com/Agents/1891",
      "category": "agents"
    },
    {
      "type": "name_match",
      "text": "chromium hexacarbonyl",
      "confidence": 1.0,
      "uuid": "31c55550-92e3-47fa-9e59-0b938cdf1ffc",
      "name": "Chromium hexacarbonyl",
      "url": "https://haz-map.com/Agents/2453",
      "category": "agents"
    },
    {
      "type": "name_match",
      "text": "molybdenum hexacarbonyl",
      "confidence": 1.0,
      "uuid": "0af0d2af-a731-4d12-b478-dd8677a84630",
      "name": "Molybdenum hexacarbonyl",
      "url": "https://haz-map.com/Agents/2459",
      "category": "agents"
    },
    {
      "type": "fuzzy_match",
      "text": "organic compounds",
      "matched_name": "Tin, organic compounds",
      "confidence": 0.8196969696969697,
      "uuid": "e027d413-8869-4308-9eb2-27d768b011ea",
      "category": "agents",
      "url": "https://haz-map.com/Agents/656"
    }
  ],
  "all_links": [
    {
      "text": "Search PubMed",
      "url": "https://www.ncbi.nlm.nih.gov/pubmed?term=Molybdenum+hexacarbonyl%20AND%20human%5Bmh%5D%20AND%20%28Occupational%20Diseases%20%5Bmh%5D%20OR%20Occupational%20Exposure%20%5Bmh%5D%29%20%20AND%20%28tox%5Bsb%5D%29&cmd=search"
    },
    {
      "text": "Electroplating",
      "url": "https://haz-map.com/Processes/66"
    }
  ]
}