{
  "metadata": {
    "scraped_from": "https://haz-map.com/Agents/12063",
    "entity_name": "Capsaicin",
    "category": "agents",
    "uuid": "0af6c718-1f42-4b8a-98d1-b9974797eab2",
    "scraped_at": "2025-07-23T21:05:16.011728"
  },
  "parsed_at": "2025-07-24T01:05:03.781272",
  "title": "Capsaicin",
  "sections": {
    "general": {
      "agent_name": {
        "original_name": "Agent Name",
        "value": "Capsaicin",
        "links": [],
        "cross_references": [
          {
            "type": "name_match",
            "text": "capsaicin",
            "confidence": 1.0,
            "uuid": "0af6c718-1f42-4b8a-98d1-b9974797eab2",
            "name": "Capsaicin",
            "url": "https://haz-map.com/Agents/12063",
            "category": "agents"
          }
        ]
      },
      "cas_number": {
        "original_name": "CAS Number",
        "value": "404-86-4",
        "links": [],
        "cross_references": []
      },
      "formula": {
        "original_name": "Formula",
        "value": "C18-H27-N-O3",
        "links": [],
        "cross_references": []
      },
      "major_category": {
        "original_name": "Major Category",
        "value": "Biological Agents",
        "links": [],
        "cross_references": []
      },
      "synonyms": {
        "original_name": "Synonyms",
        "value": "(E)-8-Methyl-N-vanillyl-6-nonenamide; (E)-N-((4-Hydroxy-3-methoxyphenyl)-methyl)-8-methyl-6-nonenamide; 6-Nonenamide, (E)-N-((4-hydroxy-3-methoxy-phenyl)methyl)-8-methyl; 6-Nonenamide, 8-methyl-N-vanillyl-, (E)-; 6-Nonenamide, N-((4-hydroxy-3-methoxyphenyl)methyl)-8-methyl-, (E)-; 8-Methyl-N-vanillyl-6-nonenamide, (E)-; Capsaicine; Isodecenoic acid vanillylamide; N-((4-Hydroxy-3-methoxyphenyl)methyl)-8-methyl-6-nonenamide, (E)-; N-(4-Hydroxy-3-methoxybenzyl)-8-methylnon-trans-6-enamide; NGX 4010; NGX-4010; Qutenza; Styptysat; Zostrix; trans-8-Methyl-N-vanillyl-6-nonenamide; 6-Nonenamide, N-((4-hydroxy-3-methoxyphenyl)methyl)-8-methyl-, (6E)-; [ChemIDplus] (6E)- N-((4-Hydroxy-3-methoxyphenyl)methyl)-8-methyl-6-nonenamide; Axsain; Mioton; Zacin; [Merck Index] E-Capsaicin; trans- N-((4-Hydroxy-3-methoxyphenyl)methyl)-8-methyl-6-nonenamide; [RTECS]",
        "links": [],
        "cross_references": [
          {
            "type": "name_match",
            "text": "capsaicin",
            "confidence": 1.0,
            "uuid": "0af6c718-1f42-4b8a-98d1-b9974797eab2",
            "name": "Capsaicin",
            "url": "https://haz-map.com/Agents/12063",
            "category": "agents"
          }
        ]
      },
      "category": {
        "original_name": "Category",
        "value": "Plant Toxins",
        "links": [],
        "cross_references": []
      },
      "description": {
        "original_name": "Description",
        "value": "Dark red solid with a volatile pungent odor; [HSDB] Formulated as dry powder, liquid, and liquid spray; [Reference #1] White crystalline solid; [Sigma-Aldrich MSDS]",
        "links": [],
        "cross_references": [
          {
            "type": "fuzzy_match",
            "text": "crystalline",
            "matched_name": "Silica, crystalline",
            "confidence": 0.7061403508771931,
            "uuid": "f920e8a2-46df-41b7-af8d-0368a777251e",
            "category": "agents",
            "url": "https://haz-map.com/Agents/427"
          }
        ]
      },
      "sourcesuses": {
        "original_name": "Sources/Uses",
        "value": "Pungent component in capsicum species plants; Used in neurobiological research and as a topical analgesic; [Merck Index] Used as flavoring agent or adjuvant; [FDA] Used as a repellent for birds, voles, deer, rabbits, squirrels, insects, and attacking dogs indoors and outdoors for the protection of fruit and vegetable crops, ornamentals, and lawns; [Reference #1]",
        "links": [],
        "cross_references": [
          {
            "type": "name_match",
            "text": "insects",
            "confidence": 1.0,
            "uuid": "aa09eb63-8062-4e8a-ba83-b4fd16d81454",
            "name": "Insects",
            "url": "https://haz-map.com/Agents/1216",
            "category": "agents"
          },
          {
            "type": "name_match",
            "text": "birds",
            "confidence": 1.0,
            "uuid": "b275e67e-6346-4cb9-88dd-f56d826c8b43",
            "name": "Birds",
            "url": "https://haz-map.com/Agents/19083",
            "category": "agents"
          }
        ]
      },
      "comments": {
        "original_name": "Comments",
        "value": "Causes local irritation and lachrymation; Skin contact results in erythema and burning without blistering; Intense tearing, pain, conjunctivitis, and blepharospasm may occur from eye contact; [HSDB] It is unlikely that pesticide products containing capsaicin will pose a significant threat to human health. Excessive exposure to capsaicin may cause some slight eye and skin irritation. [Reference #1]",
        "links": [],
        "cross_references": [
          {
            "type": "name_match",
            "text": "burn",
            "confidence": 1.0,
            "uuid": "63665de5-6376-4918-8dbf-4c10c4d63837",
            "name": "burn",
            "url": "https://haz-map.com/Findings/204",
            "category": "findings"
          },
          {
            "type": "name_match",
            "text": "tea",
            "confidence": 1.0,
            "uuid": "773409e5-ac1a-4c9e-9470-9667ca82091c",
            "name": "Tea",
            "url": "https://haz-map.com/Agents/878",
            "category": "agents"
          },
          {
            "type": "name_match",
            "text": "ht",
            "confidence": 1.0,
            "uuid": "764df367-8d53-4a11-81a2-31ccfe122a8d",
            "name": "HT",
            "url": "https://haz-map.com/Agents/2168",
            "category": "agents"
          },
          {
            "type": "name_match",
            "text": "capsaicin",
            "confidence": 1.0,
            "uuid": "0af6c718-1f42-4b8a-98d1-b9974797eab2",
            "name": "Capsaicin",
            "url": "https://haz-map.com/Agents/12063",
            "category": "agents"
          }
        ]
      },
      "reference_link_1": {
        "original_name": "Reference Link #1",
        "value": "EPA Pesticide Chemical Search",
        "links": [
          {
            "text": "EPA Pesticide Chemical Search",
            "url": "https://iaspub.epa.gov/apex/pesticides/f?p=CHEMICALSEARCH:1:"
          }
        ],
        "cross_references": [
          {
            "type": "name_match",
            "text": "mica",
            "confidence": 1.0,
            "uuid": "433f26f1-c399-4596-b179-ce3843cfd465",
            "name": "Mica",
            "url": "https://haz-map.com/Agents/621",
            "category": "agents"
          }
        ]
      },
      "biomedical_references": {
        "original_name": "Biomedical References",
        "value": "Search PubMed",
        "links": [
          {
            "text": "Search PubMed",
            "url": "https://www.ncbi.nlm.nih.gov/pubmed?term=Capsaicin%20AND%20human%5Bmh%5D%20AND%20%28Occupational%20Diseases%20%5Bmh%5D%20OR%20Occupational%20Exposure%20%5Bmh%5D%29%20%20AND%20%28tox%5Bsb%5D%29&cmd=search"
          }
        ],
        "cross_references": []
      }
    },
    "exposure_assessment": {
      "vapor_pressure": {
        "original_name": "Vapor Pressure",
        "value": "1.3E-08 mm Hg",
        "links": [],
        "cross_references": []
      }
    },
    "adverse_effects": {
      "lachrymator": {
        "original_name": "Lachrymator",
        "value": "Yes",
        "links": [],
        "cross_references": []
      }
    },
    "diseases_processes_and_activities_linked_to_this_agent": {
      "processes": {
        "original_name": "Processes",
        "value": "Industrial Processes with risk of exposure: Farming (Pesticides)",
        "links": [
          {
            "text": "Farming (Pesticides)",
            "url": "https://haz-map.com/Processes/218"
          }
        ],
        "cross_references": [
          {
            "type": "url_match",
            "text": "Farming (Pesticides)",
            "url": "https://haz-map.com/Processes/218",
            "confidence": 1.0,
            "uuid": "cf1e5815-c9bb-4917-82a5-391848170b7e",
            "name": "Farming (Pesticides)",
            "category": "processes"
          }
        ]
      }
    }
  },
  "cross_references": [
    {
      "type": "url_match",
      "text": "Farming (Pesticides)",
      "url": "https://haz-map.com/Processes/218",
      "confidence": 1.0,
      "uuid": "cf1e5815-c9bb-4917-82a5-391848170b7e",
      "name": "Farming (Pesticides)",
      "category": "processes"
    },
    {
      "type": "name_match",
      "text": "burn",
      "confidence": 1.0,
      "uuid": "63665de5-6376-4918-8dbf-4c10c4d63837",
      "name": "burn",
      "url": "https://haz-map.com/Findings/204",
      "category": "findings"
    },
    {
      "type": "name_match",
      "text": "mica",
      "confidence": 1.0,
      "uuid": "433f26f1-c399-4596-b179-ce3843cfd465",
      "name": "Mica",
      "url": "https://haz-map.com/Agents/621",
      "category": "agents"
    },
    {
      "type": "name_match",
      "text": "tea",
      "confidence": 1.0,
      "uuid": "773409e5-ac1a-4c9e-9470-9667ca82091c",
      "name": "Tea",
      "url": "https://haz-map.com/Agents/878",
      "category": "agents"
    },
    {
      "type": "name_match",
      "text": "insects",
      "confidence": 1.0,
      "uuid": "aa09eb63-8062-4e8a-ba83-b4fd16d81454",
      "name": "Insects",
      "url": "https://haz-map.com/Agents/1216",
      "category": "agents"
    },
    {
      "type": "name_match",
      "text": "ht",
      "confidence": 1.0,
      "uuid": "764df367-8d53-4a11-81a2-31ccfe122a8d",
      "name": "HT",
      "url": "https://haz-map.com/Agents/2168",
      "category": "agents"
    },
    {
      "type": "name_match",
      "text": "capsaicin",
      "confidence": 1.0,
      "uuid": "0af6c718-1f42-4b8a-98d1-b9974797eab2",
      "name": "Capsaicin",
      "url": "https://haz-map.com/Agents/12063",
      "category": "agents"
    },
    {
      "type": "name_match",
      "text": "birds",
      "confidence": 1.0,
      "uuid": "b275e67e-6346-4cb9-88dd-f56d826c8b43",
      "name": "Birds",
      "url": "https://haz-map.com/Agents/19083",
      "category": "agents"
    },
    {
      "type": "fuzzy_match",
      "text": "crystalline",
      "matched_name": "Silica, crystalline",
      "confidence": 0.7061403508771931,
      "uuid": "f920e8a2-46df-41b7-af8d-0368a777251e",
      "category": "agents",
      "url": "https://haz-map.com/Agents/427"
    }
  ],
  "all_links": [
    {
      "text": "EPA Pesticide Chemical Search",
      "url": "https://iaspub.epa.gov/apex/pesticides/f?p=CHEMICALSEARCH:1:"
    },
    {
      "text": "Search PubMed",
      "url": "https://www.ncbi.nlm.nih.gov/pubmed?term=Capsaicin%20AND%20human%5Bmh%5D%20AND%20%28Occupational%20Diseases%20%5Bmh%5D%20OR%20Occupational%20Exposure%20%5Bmh%5D%29%20%20AND%20%28tox%5Bsb%5D%29&cmd=search"
    },
    {
      "text": "Farming (Pesticides)",
      "url": "https://haz-map.com/Processes/218"
    }
  ]
}