{
  "metadata": {
    "scraped_from": "https://haz-map.com/Agents/4600",
    "entity_name": "N-(Cyclohexylthio)phthalimide",
    "category": "agents",
    "uuid": "0b1467f4-fdd7-4307-bbcc-21d2d4ebd071",
    "scraped_at": "2025-07-23T19:42:40.043953"
  },
  "parsed_at": "2025-07-24T00:57:57.918824",
  "title": "N-(Cyclohexylthio)phthalimide",
  "sections": {
    "general": {
      "agent_name": {
        "original_name": "Agent Name",
        "value": "N-(Cyclohexylthio)phthalimide",
        "links": [],
        "cross_references": [
          {
            "type": "name_match",
            "text": "ht",
            "confidence": 1.0,
            "uuid": "764df367-8d53-4a11-81a2-31ccfe122a8d",
            "name": "HT",
            "url": "https://haz-map.com/Agents/2168",
            "category": "agents"
          },
          {
            "type": "name_match",
            "text": "n-(cyclohexylthio)phthalimide",
            "confidence": 1.0,
            "uuid": "0b1467f4-fdd7-4307-bbcc-21d2d4ebd071",
            "name": "N-(Cyclohexylthio)phthalimide",
            "url": "https://haz-map.com/Agents/4600",
            "category": "agents"
          },
          {
            "type": "name_match",
            "text": "phthalimide",
            "confidence": 1.0,
            "uuid": "c6cef4f8-7d25-450e-95a8-afe176cedc4e",
            "name": "Phthalimide",
            "url": "https://haz-map.com/Agents/6704",
            "category": "agents"
          }
        ]
      },
      "cas_number": {
        "original_name": "CAS Number",
        "value": "17796-82-6",
        "links": [],
        "cross_references": []
      },
      "formula": {
        "original_name": "Formula",
        "value": "C14-H15-N-O2-S",
        "links": [],
        "cross_references": []
      },
      "major_category": {
        "original_name": "Major Category",
        "value": "Plastics & Rubber",
        "links": [],
        "cross_references": []
      },
      "synonyms": {
        "original_name": "Synonyms",
        "value": "1H-Isoindole-1,3(2H)-dione, 2-(cyclohexylthio)-; CP 29242; Cyclohexylthiophthalimide; N-Cyclohexylsulfenylphthalimide; Santogard PVI; Santogard PVI-DS; Phthalimide, N-(cyclohexylthio)-; [ChemIDplus]",
        "links": [],
        "cross_references": [
          {
            "type": "name_match",
            "text": "ht",
            "confidence": 1.0,
            "uuid": "764df367-8d53-4a11-81a2-31ccfe122a8d",
            "name": "HT",
            "url": "https://haz-map.com/Agents/2168",
            "category": "agents"
          },
          {
            "type": "name_match",
            "text": "indole",
            "confidence": 1.0,
            "uuid": "9c93731a-de8c-47f7-94f9-bfba35edd847",
            "name": "Indole",
            "url": "https://haz-map.com/Agents/5628",
            "category": "agents"
          },
          {
            "type": "name_match",
            "text": "phthalimide",
            "confidence": 1.0,
            "uuid": "c6cef4f8-7d25-450e-95a8-afe176cedc4e",
            "name": "Phthalimide",
            "url": "https://haz-map.com/Agents/6704",
            "category": "agents"
          }
        ]
      },
      "category": {
        "original_name": "Category",
        "value": "Rubber Additives",
        "links": [],
        "cross_references": []
      },
      "description": {
        "original_name": "Description",
        "value": "Off-white solid; [HSDB] Light tan to white powder; [MSDSonline]",
        "links": [],
        "cross_references": [
          {
            "type": "name_match",
            "text": "ht",
            "confidence": 1.0,
            "uuid": "764df367-8d53-4a11-81a2-31ccfe122a8d",
            "name": "HT",
            "url": "https://haz-map.com/Agents/2168",
            "category": "agents"
          }
        ]
      },
      "sourcesuses": {
        "original_name": "Sources/Uses",
        "value": "Used as pre-vulcanization inhibitor for synthetic and natural rubber; Used to control zebra mussels in potable system raw water intake lines; [HSDB]",
        "links": [],
        "cross_references": [
          {
            "type": "name_match",
            "text": "water",
            "confidence": 1.0,
            "uuid": "6f2a7557-dfd2-49bc-9b4b-a93cd8e225d4",
            "name": "Water",
            "url": "https://haz-map.com/Agents/18668",
            "category": "agents"
          }
        ]
      },
      "comments": {
        "original_name": "Comments",
        "value": "A skin irritant; May cause skin sensitization; [HSDB] An irritant; May cause skin sensitization; [MSDSonline] Contact allergy reported in a glassblower exposed to this rubber vulcanizer in his pipe; [Kanerva, p. 1500]",
        "links": [],
        "cross_references": []
      },
      "biomedical_references": {
        "original_name": "Biomedical References",
        "value": "Search PubMed",
        "links": [
          {
            "text": "Search PubMed",
            "url": "https://www.ncbi.nlm.nih.gov/pubmed?term=N-(Cyclohexylthio)phthalimide%20AND%20human%5Bmh%5D%20AND%20%28Occupational%20Diseases%20%5Bmh%5D%20OR%20Occupational%20Exposure%20%5Bmh%5D%29%20%20AND%20%28tox%5Bsb%5D%29&cmd=search"
          }
        ],
        "cross_references": []
      }
    },
    "exposure_assessment": {
      "vapor_pressure": {
        "original_name": "Vapor Pressure",
        "value": "3.8E-08 mm Hg",
        "links": [],
        "cross_references": []
      }
    },
    "adverse_effects": {
      "skin_sensitizer": {
        "original_name": "Skin Sensitizer",
        "value": "Yes",
        "links": [],
        "cross_references": []
      }
    },
    "diseases_processes_and_activities_linked_to_this_agent": {
      "diseases": {
        "original_name": "Diseases",
        "value": "Occupational diseases associated with exposure to this agent: Contact dermatitis, allergic",
        "links": [
          {
            "text": "Contact dermatitis, allergic",
            "url": "https://haz-map.com/Diseases/18"
          }
        ],
        "cross_references": [
          {
            "type": "url_match",
            "text": "Contact dermatitis, allergic",
            "url": "https://haz-map.com/Diseases/18",
            "confidence": 1.0,
            "uuid": "c9499de0-9aa1-41bf-8753-cd5b28a63e29",
            "name": "Contact dermatitis, allergic",
            "category": "diseases"
          },
          {
            "type": "name_match",
            "text": "dermatitis",
            "confidence": 1.0,
            "uuid": "fe9c05f2-b19f-4ceb-ac7a-ffb7d7a0cae0",
            "name": "dermatitis",
            "url": "https://haz-map.com/Findings/59",
            "category": "findings"
          }
        ]
      },
      "activities": {
        "original_name": "Activities",
        "value": "Activities with risk of exposure: Glassblowing",
        "links": [
          {
            "text": "Glassblowing",
            "url": "https://haz-map.com/Activities/11"
          }
        ],
        "cross_references": [
          {
            "type": "url_match",
            "text": "Glassblowing",
            "url": "https://haz-map.com/Activities/11",
            "confidence": 1.0,
            "uuid": "05ea60f7-2ae5-4eaa-8aec-56404737bb5e",
            "name": "Glassblowing",
            "category": "activities"
          }
        ]
      }
    }
  },
  "cross_references": [
    {
      "type": "url_match",
      "text": "Contact dermatitis, allergic",
      "url": "https://haz-map.com/Diseases/18",
      "confidence": 1.0,
      "uuid": "c9499de0-9aa1-41bf-8753-cd5b28a63e29",
      "name": "Contact dermatitis, allergic",
      "category": "diseases"
    },
    {
      "type": "url_match",
      "text": "Glassblowing",
      "url": "https://haz-map.com/Activities/11",
      "confidence": 1.0,
      "uuid": "05ea60f7-2ae5-4eaa-8aec-56404737bb5e",
      "name": "Glassblowing",
      "category": "activities"
    },
    {
      "type": "name_match",
      "text": "dermatitis",
      "confidence": 1.0,
      "uuid": "fe9c05f2-b19f-4ceb-ac7a-ffb7d7a0cae0",
      "name": "dermatitis",
      "url": "https://haz-map.com/Findings/59",
      "category": "findings"
    },
    {
      "type": "name_match",
      "text": "ht",
      "confidence": 1.0,
      "uuid": "764df367-8d53-4a11-81a2-31ccfe122a8d",
      "name": "HT",
      "url": "https://haz-map.com/Agents/2168",
      "category": "agents"
    },
    {
      "type": "name_match",
      "text": "n-(cyclohexylthio)phthalimide",
      "confidence": 1.0,
      "uuid": "0b1467f4-fdd7-4307-bbcc-21d2d4ebd071",
      "name": "N-(Cyclohexylthio)phthalimide",
      "url": "https://haz-map.com/Agents/4600",
      "category": "agents"
    },
    {
      "type": "name_match",
      "text": "indole",
      "confidence": 1.0,
      "uuid": "9c93731a-de8c-47f7-94f9-bfba35edd847",
      "name": "Indole",
      "url": "https://haz-map.com/Agents/5628",
      "category": "agents"
    },
    {
      "type": "name_match",
      "text": "phthalimide",
      "confidence": 1.0,
      "uuid": "c6cef4f8-7d25-450e-95a8-afe176cedc4e",
      "name": "Phthalimide",
      "url": "https://haz-map.com/Agents/6704",
      "category": "agents"
    },
    {
      "type": "name_match",
      "text": "water",
      "confidence": 1.0,
      "uuid": "6f2a7557-dfd2-49bc-9b4b-a93cd8e225d4",
      "name": "Water",
      "url": "https://haz-map.com/Agents/18668",
      "category": "agents"
    }
  ],
  "all_links": [
    {
      "text": "Search PubMed",
      "url": "https://www.ncbi.nlm.nih.gov/pubmed?term=N-(Cyclohexylthio)phthalimide%20AND%20human%5Bmh%5D%20AND%20%28Occupational%20Diseases%20%5Bmh%5D%20OR%20Occupational%20Exposure%20%5Bmh%5D%29%20%20AND%20%28tox%5Bsb%5D%29&cmd=search"
    },
    {
      "text": "Contact dermatitis, allergic",
      "url": "https://haz-map.com/Diseases/18"
    },
    {
      "text": "Glassblowing",
      "url": "https://haz-map.com/Activities/11"
    }
  ]
}