{
  "metadata": {
    "scraped_from": "https://haz-map.com/Agents/17429",
    "entity_name": "Tetraethylsilane",
    "category": "agents",
    "uuid": "0b896082-9170-4a2a-a27b-22e60a1b2ac7",
    "scraped_at": "2025-07-23T21:46:29.045388"
  },
  "parsed_at": "2025-07-24T01:02:54.163605",
  "title": "Tetraethylsilane",
  "sections": {
    "general": {
      "agent_name": {
        "original_name": "Agent Name",
        "value": "Tetraethylsilane",
        "links": [],
        "cross_references": [
          {
            "type": "name_match",
            "text": "tetraethylsilane",
            "confidence": 1.0,
            "uuid": "0b896082-9170-4a2a-a27b-22e60a1b2ac7",
            "name": "Tetraethylsilane",
            "url": "https://haz-map.com/Agents/17429",
            "category": "agents"
          }
        ]
      },
      "cas_number": {
        "original_name": "CAS Number",
        "value": "631-36-7",
        "links": [],
        "cross_references": []
      },
      "formula": {
        "original_name": "Formula",
        "value": "C8-H20-Si",
        "links": [],
        "cross_references": []
      },
      "major_category": {
        "original_name": "Major Category",
        "value": "Metals",
        "links": [],
        "cross_references": []
      },
      "synonyms": {
        "original_name": "Synonyms",
        "value": "Silane, tetraethyl-; TL 245; [ChemIDplus] UN1993",
        "links": [],
        "cross_references": []
      },
      "category": {
        "original_name": "Category",
        "value": "Metalloid Compounds (Silicon)",
        "links": [],
        "cross_references": [
          {
            "type": "name_match",
            "text": "silicon",
            "confidence": 1.0,
            "uuid": "443f4405-7a1f-47db-bf43-809557f77483",
            "name": "Silicon",
            "url": "https://haz-map.com/Agents/623",
            "category": "agents"
          }
        ]
      },
      "description": {
        "original_name": "Description",
        "value": "Clear colorless liquid; [Sigma-Aldrich MSDS]",
        "links": [],
        "cross_references": []
      },
      "comments": {
        "original_name": "Comments",
        "value": "A skin and strong eye irritant; [Sigma-Aldrich MSDS] See \"Tetramethylsilane.\" See \"Diethylsilane.\"",
        "links": [],
        "cross_references": [
          {
            "type": "name_match",
            "text": "methylsilane",
            "confidence": 1.0,
            "uuid": "477dc5db-fed0-4dc8-8ece-f7392790a3b0",
            "name": "Methylsilane",
            "url": "https://haz-map.com/Agents/8380",
            "category": "agents"
          },
          {
            "type": "name_match",
            "text": "diethylsilane",
            "confidence": 1.0,
            "uuid": "33178c43-3fc2-4126-85e7-12d81b8b7759",
            "name": "Diethylsilane",
            "url": "https://haz-map.com/Agents/8540",
            "category": "agents"
          },
          {
            "type": "name_match",
            "text": "tetramethylsilane",
            "confidence": 1.0,
            "uuid": "d38f5849-e2fa-48dd-9487-e41d0a4e7650",
            "name": "Tetramethylsilane",
            "url": "https://haz-map.com/Agents/17936",
            "category": "agents"
          }
        ]
      },
      "biomedical_references": {
        "original_name": "Biomedical References",
        "value": "Search PubMed",
        "links": [
          {
            "text": "Search PubMed",
            "url": "https://www.ncbi.nlm.nih.gov/pubmed?term=Tetraethylsilane%20AND%20human%5Bmh%5D%20AND%20%28Occupational%20Diseases%20%5Bmh%5D%20OR%20Occupational%20Exposure%20%5Bmh%5D%29%20%20AND%20%28tox%5Bsb%5D%29&cmd=search"
          }
        ],
        "cross_references": []
      }
    },
    "exposure_assessment": {
      "vapor_pressure": {
        "original_name": "Vapor Pressure",
        "value": "5 mm Hg",
        "links": [],
        "cross_references": []
      },
      "lethal_concentration": {
        "original_name": "Lethal Concentration",
        "value": "LC (mouse) = 1,770 mg/m3/10min",
        "links": [],
        "cross_references": []
      },
      "explanatory_notes": {
        "original_name": "Explanatory Notes",
        "value": "The Guide in the Emergency Response Guidebook is for \"Flammable liquid, n.o.s.\"",
        "links": [],
        "cross_references": []
      }
    },
    "diseases_processes_and_activities_linked_to_this_agent": {
      "other_information": {
        "original_name": "Other Information",
        "value": "No other related information on this agent was found.",
        "links": [],
        "cross_references": []
      }
    }
  },
  "cross_references": [
    {
      "type": "name_match",
      "text": "silicon",
      "confidence": 1.0,
      "uuid": "443f4405-7a1f-47db-bf43-809557f77483",
      "name": "Silicon",
      "url": "https://haz-map.com/Agents/623",
      "category": "agents"
    },
    {
      "type": "name_match",
      "text": "methylsilane",
      "confidence": 1.0,
      "uuid": "477dc5db-fed0-4dc8-8ece-f7392790a3b0",
      "name": "Methylsilane",
      "url": "https://haz-map.com/Agents/8380",
      "category": "agents"
    },
    {
      "type": "name_match",
      "text": "diethylsilane",
      "confidence": 1.0,
      "uuid": "33178c43-3fc2-4126-85e7-12d81b8b7759",
      "name": "Diethylsilane",
      "url": "https://haz-map.com/Agents/8540",
      "category": "agents"
    },
    {
      "type": "name_match",
      "text": "tetraethylsilane",
      "confidence": 1.0,
      "uuid": "0b896082-9170-4a2a-a27b-22e60a1b2ac7",
      "name": "Tetraethylsilane",
      "url": "https://haz-map.com/Agents/17429",
      "category": "agents"
    },
    {
      "type": "name_match",
      "text": "tetramethylsilane",
      "confidence": 1.0,
      "uuid": "d38f5849-e2fa-48dd-9487-e41d0a4e7650",
      "name": "Tetramethylsilane",
      "url": "https://haz-map.com/Agents/17936",
      "category": "agents"
    }
  ],
  "all_links": [
    {
      "text": "Search PubMed",
      "url": "https://www.ncbi.nlm.nih.gov/pubmed?term=Tetraethylsilane%20AND%20human%5Bmh%5D%20AND%20%28Occupational%20Diseases%20%5Bmh%5D%20OR%20Occupational%20Exposure%20%5Bmh%5D%29%20%20AND%20%28tox%5Bsb%5D%29&cmd=search"
    }
  ]
}