{
  "metadata": {
    "scraped_from": "https://haz-map.com/Agents/3022",
    "entity_name": "2,5-Dichloroaniline",
    "category": "agents",
    "uuid": "0ba8737e-275f-4a23-b209-a5a95b049e4d",
    "scraped_at": "2025-07-23T19:22:48.039720"
  },
  "parsed_at": "2025-07-24T01:04:26.340049",
  "title": "2,5-Dichloroaniline",
  "sections": {
    "general": {
      "agent_name": {
        "original_name": "Agent Name",
        "value": "2,5-Dichloroaniline",
        "links": [],
        "cross_references": [
          {
            "type": "name_match",
            "text": "aniline",
            "confidence": 1.0,
            "uuid": "e4932692-8d9c-4a98-8c5c-81e55b12aedf",
            "name": "Aniline",
            "url": "https://haz-map.com/Agents/296",
            "category": "agents"
          },
          {
            "type": "name_match",
            "text": "2,5-dichloroaniline",
            "confidence": 1.0,
            "uuid": "0ba8737e-275f-4a23-b209-a5a95b049e4d",
            "name": "2,5-Dichloroaniline",
            "url": "https://haz-map.com/Agents/3022",
            "category": "agents"
          },
          {
            "type": "fuzzy_match",
            "text": "5-dichloroaniline",
            "matched_name": "3,5-Dichloroaniline",
            "confidence": 0.8759398496240601,
            "uuid": "975e5323-caf3-4320-998d-7a36806b3812",
            "category": "agents",
            "url": "https://haz-map.com/Agents/3206"
          }
        ]
      },
      "cas_number": {
        "original_name": "CAS Number",
        "value": "95-82-9",
        "links": [],
        "cross_references": []
      },
      "formula": {
        "original_name": "Formula",
        "value": "C6-H5-Cl2-N",
        "links": [],
        "cross_references": []
      },
      "major_category": {
        "original_name": "Major Category",
        "value": "Nitrogen Compounds",
        "links": [],
        "cross_references": [
          {
            "type": "name_match",
            "text": "nitrogen",
            "confidence": 1.0,
            "uuid": "db5e90a9-06d2-45b9-8b81-f345a89b0bc0",
            "name": "Nitrogen",
            "url": "https://haz-map.com/Agents/1072",
            "category": "agents"
          }
        ]
      },
      "synonyms": {
        "original_name": "Synonyms",
        "value": "1-Amino-2,5-dichlorobenzene; 2,5-DCA; 2,5-Dichloranilin [Czech]; 2,5-Dichloro-1-aminobenzene; 2,5-Dichloroaniline (NH2=1); 2,5-Dichlorobenzenamine; 2,5-Dichlorobenzeneamine; Amarthol Fast Scarlet GG Base; Amarthol Fast Scarlet GGS Base; Azobase DCA; Azoene Fast Scarlet 2G Base; Azogene Fast Scarlet GG (free base); Azogene Fast Scarlet GGC; Azoic Diazo Component 3; Benzenamine, 2,5-dichloro-; C.I. 37010; C.I. Azoic Diazo Component 3; CI 37010; CI Azoic Diazo Component 3; Daito Scarlet Base GG; Devol Scarlet 2GS Base; Devol Scarlet A (free base); Diazo Fast Scarlet GG; Diazol Scarlet 2Zh; Fast Red SGG Base; Fast Scarlet 2G; Fast Scarlet 2G Base; Fast Scarlet Base 2J; Fast Scarlet Base 2JS; Fast Scarlet Base GGT; Fast Scarlet DS Base; Fast Scarlet GG Base; Fast Scarlet GGS Base; Fast Scarlet MDC Base; Hiltonil Fast Scarlet 2G Base; Hiltonil Fast Scarlet 2GS Base; Hindamine Scarlet GG; Kambamine Scarlet GG Base; Kayaku Scarlet GG Base; Lake Scarlet GG Base; Mitsui Scarlet GG Base; Naphthanil Scarlet 2G Base; Naphtoelan Fast Scarlet GG Base; Natasol Scarlet GG Salt; Sanyo Fast Scarlet GG Base; Scarlet 2G Base; Scarlet Base Ciba I; Scarlet Base GG; Scarlet Base IRGA I (free base); Scarlet Base NGG; Scarlet Salt Ciba I; Spectrolene Scarlet 2G; Stabamine Scarlet GG; Symulon Scarlet 2G Base; Aniline, 2,5-dichloro-; [ChemIDplus] UN1590",
        "links": [],
        "cross_references": [
          {
            "type": "name_match",
            "text": "benzene",
            "confidence": 1.0,
            "uuid": "b05124de-5f34-4c14-8f04-ccb20c3780d9",
            "name": "Benzene",
            "url": "https://haz-map.com/Agents/5",
            "category": "agents"
          },
          {
            "type": "name_match",
            "text": "chlorobenzene",
            "confidence": 1.0,
            "uuid": "7e598eca-f35d-493c-aa78-93bb67744c4c",
            "name": "Chlorobenzene",
            "url": "https://haz-map.com/Agents/85",
            "category": "agents"
          },
          {
            "type": "name_match",
            "text": "aniline",
            "confidence": 1.0,
            "uuid": "e4932692-8d9c-4a98-8c5c-81e55b12aedf",
            "name": "Aniline",
            "url": "https://haz-map.com/Agents/296",
            "category": "agents"
          },
          {
            "type": "name_match",
            "text": "ht",
            "confidence": 1.0,
            "uuid": "764df367-8d53-4a11-81a2-31ccfe122a8d",
            "name": "HT",
            "url": "https://haz-map.com/Agents/2168",
            "category": "agents"
          },
          {
            "type": "name_match",
            "text": "2,5-dichloroaniline",
            "confidence": 1.0,
            "uuid": "0ba8737e-275f-4a23-b209-a5a95b049e4d",
            "name": "2,5-Dichloroaniline",
            "url": "https://haz-map.com/Agents/3022",
            "category": "agents"
          },
          {
            "type": "name_match",
            "text": "chloranil",
            "confidence": 1.0,
            "uuid": "b0d4b2cf-1a0d-49c6-8515-19691b9f6e49",
            "name": "Chloranil",
            "url": "https://haz-map.com/Agents/4278",
            "category": "agents"
          },
          {
            "type": "fuzzy_match",
            "text": "5-dichloroaniline",
            "matched_name": "3,5-Dichloroaniline",
            "confidence": 0.8759398496240601,
            "uuid": "975e5323-caf3-4320-998d-7a36806b3812",
            "category": "agents",
            "url": "https://haz-map.com/Agents/3206"
          }
        ]
      },
      "category": {
        "original_name": "Category",
        "value": "Amines, Aromatic",
        "links": [],
        "cross_references": []
      },
      "description": {
        "original_name": "Description",
        "value": "Colorless to brown solid; [ICSC] Brown flakes; [MSDSonline]",
        "links": [],
        "cross_references": []
      },
      "sourcesuses": {
        "original_name": "Sources/Uses",
        "value": "Used as a chemical intermediate for dyes and pigments and to make dyed fibers more color-fast; [HSDB]",
        "links": [],
        "cross_references": [
          {
            "type": "name_match",
            "text": "mica",
            "confidence": 1.0,
            "uuid": "433f26f1-c399-4596-b179-ce3843cfd465",
            "name": "Mica",
            "url": "https://haz-map.com/Agents/621",
            "category": "agents"
          }
        ]
      },
      "comments": {
        "original_name": "Comments",
        "value": "Causes flaccid paralysis, cyanosis, and convulsions in lethal-dose studies of guinea pigs and rabbits; [RTECS] Emergency treatment: Methemoglobinemia; [HSDB] A severe eye irritant; Can induce methemoglobinemia; May cause skin sensitization; [ICSC] A skin, eye, and mucous membrane irritant; [CAMEO]",
        "links": [],
        "cross_references": [
          {
            "type": "name_match",
            "text": "convulsion",
            "confidence": 1.0,
            "uuid": "af2c36f8-707a-48e3-a62b-1aa07adc9b72",
            "name": "convulsion",
            "url": "https://haz-map.com/Findings/14",
            "category": "findings"
          },
          {
            "type": "name_match",
            "text": "methemoglobin",
            "confidence": 1.0,
            "uuid": "afb7ebf5-d2a3-4e60-8d2e-3a19456344ee",
            "name": "Methemoglobin",
            "url": "https://haz-map.com/Agents/15467",
            "category": "agents"
          },
          {
            "type": "fuzzy_match",
            "text": "methemoglobinemia",
            "matched_name": "Methemoglobinemia, acute",
            "confidence": 0.7208333333333333,
            "uuid": "473a44bd-cf11-4710-a769-e8e2b25ba317",
            "category": "diseases",
            "url": "https://haz-map.com/Diseases/210"
          }
        ]
      },
      "biomedical_references": {
        "original_name": "Biomedical References",
        "value": "Search PubMed",
        "links": [
          {
            "text": "Search PubMed",
            "url": "https://www.ncbi.nlm.nih.gov/pubmed?term=2%2c5-Dichloroaniline%20AND%20human%5Bmh%5D%20AND%20%28Occupational%20Diseases%20%5Bmh%5D%20OR%20Occupational%20Exposure%20%5Bmh%5D%29%20%20AND%20%28tox%5Bsb%5D%29&cmd=search"
          }
        ],
        "cross_references": []
      }
    },
    "exposure_assessment": {
      "vapor_pressure": {
        "original_name": "Vapor Pressure",
        "value": "0.015 mm Hg",
        "links": [],
        "cross_references": []
      },
      "explanatory_notes": {
        "original_name": "Explanatory Notes",
        "value": "Flash point = 139 deg C; [ICSC] The Guide in the Emergency Response Guidebook is for \"Dichloroanilines, solid.\" VP from ChemIDplus;",
        "links": [],
        "cross_references": [
          {
            "type": "name_match",
            "text": "aniline",
            "confidence": 1.0,
            "uuid": "e4932692-8d9c-4a98-8c5c-81e55b12aedf",
            "name": "Aniline",
            "url": "https://haz-map.com/Agents/296",
            "category": "agents"
          },
          {
            "type": "name_match",
            "text": "ash",
            "confidence": 1.0,
            "uuid": "68b360f1-5ad0-4337-bea0-d7adca2961b5",
            "name": "Ash",
            "url": "https://haz-map.com/Agents/965",
            "category": "agents"
          }
        ]
      }
    },
    "adverse_effects": {
      "skin_sensitizer": {
        "original_name": "Skin Sensitizer",
        "value": "Yes",
        "links": [],
        "cross_references": []
      },
      "methemoglobinemia": {
        "original_name": "Methemoglobinemia",
        "value": "MetHgb is secondary toxic effect",
        "links": [],
        "cross_references": []
      }
    },
    "diseases_processes_and_activities_linked_to_this_agent": {
      "diseases": {
        "original_name": "Diseases",
        "value": "Occupational diseases associated with exposure to this agent: Contact dermatitis, allergic",
        "links": [
          {
            "text": "Contact dermatitis, allergic",
            "url": "https://haz-map.com/Diseases/18"
          }
        ],
        "cross_references": [
          {
            "type": "url_match",
            "text": "Contact dermatitis, allergic",
            "url": "https://haz-map.com/Diseases/18",
            "confidence": 1.0,
            "uuid": "c9499de0-9aa1-41bf-8753-cd5b28a63e29",
            "name": "Contact dermatitis, allergic",
            "category": "diseases"
          },
          {
            "type": "name_match",
            "text": "dermatitis",
            "confidence": 1.0,
            "uuid": "fe9c05f2-b19f-4ceb-ac7a-ffb7d7a0cae0",
            "name": "dermatitis",
            "url": "https://haz-map.com/Findings/59",
            "category": "findings"
          }
        ]
      },
      "processes": {
        "original_name": "Processes",
        "value": "Industrial Processes with risk of exposure: Textiles (Printing, Dyeing, or Finishing)",
        "links": [
          {
            "text": "Textiles (Printing, Dyeing, or Finishing)",
            "url": "https://haz-map.com/Processes/235"
          }
        ],
        "cross_references": []
      }
    }
  },
  "cross_references": [
    {
      "type": "url_match",
      "text": "Contact dermatitis, allergic",
      "url": "https://haz-map.com/Diseases/18",
      "confidence": 1.0,
      "uuid": "c9499de0-9aa1-41bf-8753-cd5b28a63e29",
      "name": "Contact dermatitis, allergic",
      "category": "diseases"
    },
    {
      "type": "name_match",
      "text": "convulsion",
      "confidence": 1.0,
      "uuid": "af2c36f8-707a-48e3-a62b-1aa07adc9b72",
      "name": "convulsion",
      "url": "https://haz-map.com/Findings/14",
      "category": "findings"
    },
    {
      "type": "name_match",
      "text": "dermatitis",
      "confidence": 1.0,
      "uuid": "fe9c05f2-b19f-4ceb-ac7a-ffb7d7a0cae0",
      "name": "dermatitis",
      "url": "https://haz-map.com/Findings/59",
      "category": "findings"
    },
    {
      "type": "name_match",
      "text": "benzene",
      "confidence": 1.0,
      "uuid": "b05124de-5f34-4c14-8f04-ccb20c3780d9",
      "name": "Benzene",
      "url": "https://haz-map.com/Agents/5",
      "category": "agents"
    },
    {
      "type": "name_match",
      "text": "chlorobenzene",
      "confidence": 1.0,
      "uuid": "7e598eca-f35d-493c-aa78-93bb67744c4c",
      "name": "Chlorobenzene",
      "url": "https://haz-map.com/Agents/85",
      "category": "agents"
    },
    {
      "type": "name_match",
      "text": "aniline",
      "confidence": 1.0,
      "uuid": "e4932692-8d9c-4a98-8c5c-81e55b12aedf",
      "name": "Aniline",
      "url": "https://haz-map.com/Agents/296",
      "category": "agents"
    },
    {
      "type": "name_match",
      "text": "mica",
      "confidence": 1.0,
      "uuid": "433f26f1-c399-4596-b179-ce3843cfd465",
      "name": "Mica",
      "url": "https://haz-map.com/Agents/621",
      "category": "agents"
    },
    {
      "type": "name_match",
      "text": "ash",
      "confidence": 1.0,
      "uuid": "68b360f1-5ad0-4337-bea0-d7adca2961b5",
      "name": "Ash",
      "url": "https://haz-map.com/Agents/965",
      "category": "agents"
    },
    {
      "type": "name_match",
      "text": "nitrogen",
      "confidence": 1.0,
      "uuid": "db5e90a9-06d2-45b9-8b81-f345a89b0bc0",
      "name": "Nitrogen",
      "url": "https://haz-map.com/Agents/1072",
      "category": "agents"
    },
    {
      "type": "name_match",
      "text": "ht",
      "confidence": 1.0,
      "uuid": "764df367-8d53-4a11-81a2-31ccfe122a8d",
      "name": "HT",
      "url": "https://haz-map.com/Agents/2168",
      "category": "agents"
    },
    {
      "type": "name_match",
      "text": "2,5-dichloroaniline",
      "confidence": 1.0,
      "uuid": "0ba8737e-275f-4a23-b209-a5a95b049e4d",
      "name": "2,5-Dichloroaniline",
      "url": "https://haz-map.com/Agents/3022",
      "category": "agents"
    },
    {
      "type": "name_match",
      "text": "chloranil",
      "confidence": 1.0,
      "uuid": "b0d4b2cf-1a0d-49c6-8515-19691b9f6e49",
      "name": "Chloranil",
      "url": "https://haz-map.com/Agents/4278",
      "category": "agents"
    },
    {
      "type": "name_match",
      "text": "methemoglobin",
      "confidence": 1.0,
      "uuid": "afb7ebf5-d2a3-4e60-8d2e-3a19456344ee",
      "name": "Methemoglobin",
      "url": "https://haz-map.com/Agents/15467",
      "category": "agents"
    },
    {
      "type": "fuzzy_match",
      "text": "5-dichloroaniline",
      "matched_name": "3,5-Dichloroaniline",
      "confidence": 0.8759398496240601,
      "uuid": "975e5323-caf3-4320-998d-7a36806b3812",
      "category": "agents",
      "url": "https://haz-map.com/Agents/3206"
    },
    {
      "type": "fuzzy_match",
      "text": "methemoglobinemia",
      "matched_name": "Methemoglobinemia, acute",
      "confidence": 0.7208333333333333,
      "uuid": "473a44bd-cf11-4710-a769-e8e2b25ba317",
      "category": "diseases",
      "url": "https://haz-map.com/Diseases/210"
    }
  ],
  "all_links": [
    {
      "text": "Search PubMed",
      "url": "https://www.ncbi.nlm.nih.gov/pubmed?term=2%2c5-Dichloroaniline%20AND%20human%5Bmh%5D%20AND%20%28Occupational%20Diseases%20%5Bmh%5D%20OR%20Occupational%20Exposure%20%5Bmh%5D%29%20%20AND%20%28tox%5Bsb%5D%29&cmd=search"
    },
    {
      "text": "Contact dermatitis, allergic",
      "url": "https://haz-map.com/Diseases/18"
    },
    {
      "text": "Textiles (Printing, Dyeing, or Finishing)",
      "url": "https://haz-map.com/Processes/235"
    }
  ]
}