{
  "metadata": {
    "scraped_from": "https://haz-map.com/Agents/14770",
    "entity_name": "Homogentisic acid",
    "category": "agents",
    "uuid": "0c0125e4-f624-45ae-9f77-0d6b33e83687",
    "scraped_at": "2025-07-23T21:26:17.283995"
  },
  "parsed_at": "2025-07-24T01:11:32.796331",
  "title": "Homogentisic acid",
  "sections": {
    "general": {
      "agent_name": {
        "original_name": "Agent Name",
        "value": "Homogentisic acid",
        "links": [],
        "cross_references": [
          {
            "type": "name_match",
            "text": "gentisic acid",
            "confidence": 1.0,
            "uuid": "e64d2bc0-6bec-4dbf-a4c4-26d078e6fcbf",
            "name": "Gentisic acid",
            "url": "https://haz-map.com/Agents/9631",
            "category": "agents"
          },
          {
            "type": "name_match",
            "text": "homogentisic acid",
            "confidence": 1.0,
            "uuid": "0c0125e4-f624-45ae-9f77-0d6b33e83687",
            "name": "Homogentisic acid",
            "url": "https://haz-map.com/Agents/14770",
            "category": "agents"
          }
        ]
      },
      "cas_number": {
        "original_name": "CAS Number",
        "value": "451-13-8",
        "links": [],
        "cross_references": []
      },
      "formula": {
        "original_name": "Formula",
        "value": "C8-H8-O4",
        "links": [],
        "cross_references": []
      },
      "major_category": {
        "original_name": "Major Category",
        "value": "Other Classes",
        "links": [],
        "cross_references": []
      },
      "synonyms": {
        "original_name": "Synonyms",
        "value": "2,5-Dihydroxy-alpha-toluic acid; 2,5-Dihydroxybenzeneacetic acid; 2,5-Dihydroxyphenylacetic acid; Alcapton; Homogentisate acid; Homogentisinic acid; (2,5-Dihydroxyphenyl)acetic acid; Acetic acid, (2,5-dihydroxyphenyl)-; Benzeneacetic acid, 2,5-dihydroxy-; [ChemIDplus]",
        "links": [],
        "cross_references": [
          {
            "type": "name_match",
            "text": "benzene",
            "confidence": 1.0,
            "uuid": "b05124de-5f34-4c14-8f04-ccb20c3780d9",
            "name": "Benzene",
            "url": "https://haz-map.com/Agents/5",
            "category": "agents"
          },
          {
            "type": "name_match",
            "text": "acetic acid",
            "confidence": 1.0,
            "uuid": "0905c6e4-df84-4895-a92d-658819239bbd",
            "name": "Acetic acid",
            "url": "https://haz-map.com/Agents/207",
            "category": "agents"
          },
          {
            "type": "name_match",
            "text": "phenylacetic acid",
            "confidence": 1.0,
            "uuid": "9fd56a07-b965-4725-89f1-49d42ccba118",
            "name": "Phenylacetic acid",
            "url": "https://haz-map.com/Agents/6638",
            "category": "agents"
          }
        ]
      },
      "category": {
        "original_name": "Category",
        "value": "Organic Acids",
        "links": [],
        "cross_references": []
      },
      "description": {
        "original_name": "Description",
        "value": "Beige crystalline solid; [Sigma-Aldrich MSDS]",
        "links": [],
        "cross_references": [
          {
            "type": "fuzzy_match",
            "text": "crystalline",
            "matched_name": "Silica, crystalline",
            "confidence": 0.7061403508771931,
            "uuid": "f920e8a2-46df-41b7-af8d-0368a777251e",
            "category": "agents",
            "url": "https://haz-map.com/Agents/427"
          }
        ]
      },
      "sourcesuses": {
        "original_name": "Sources/Uses",
        "value": "Found in plants and in the urine of alkaptonurics; A product of tyrosine and phenylalanine metabolism; [Merck Index] A naturally-occurring phenolic acid and intermediate in the catabolism of aromatic amino acids (phenylalanine and tyrosine); [Wikipedia]",
        "links": [],
        "cross_references": [
          {
            "type": "name_match",
            "text": "phenol",
            "confidence": 1.0,
            "uuid": "03141a03-a7df-4f51-9a37-adde1a7c4b31",
            "name": "Phenol",
            "url": "https://haz-map.com/Agents/84",
            "category": "agents"
          },
          {
            "type": "name_match",
            "text": "alanine",
            "confidence": 1.0,
            "uuid": "0829012c-76c4-4cb5-91ac-cacb73278dc5",
            "name": "Alanine",
            "url": "https://haz-map.com/Agents/11406",
            "category": "agents"
          },
          {
            "type": "name_match",
            "text": "phenylalanine",
            "confidence": 1.0,
            "uuid": "8be416e5-4a8c-41fd-bcc7-d2a9217599fb",
            "name": "Phenylalanine",
            "url": "https://haz-map.com/Agents/16561",
            "category": "agents"
          },
          {
            "type": "name_match",
            "text": "tyrosine",
            "confidence": 1.0,
            "uuid": "f9f78e9e-985b-45af-8557-02c83fa04d59",
            "name": "Tyrosine",
            "url": "https://haz-map.com/Agents/18489",
            "category": "agents"
          }
        ]
      },
      "comments": {
        "original_name": "Comments",
        "value": "Causes changes in urine composition in 5-day intermittent intraperitoneal studies of rats; [RTECS] A skin and strong eye irritant; [Sigma-Aldrich MSDS]",
        "links": [],
        "cross_references": []
      },
      "biomedical_references": {
        "original_name": "Biomedical References",
        "value": "Search PubMed",
        "links": [
          {
            "text": "Search PubMed",
            "url": "https://www.ncbi.nlm.nih.gov/pubmed?term=Homogentisic+acid%20AND%20human%5Bmh%5D%20AND%20%28Occupational%20Diseases%20%5Bmh%5D%20OR%20Occupational%20Exposure%20%5Bmh%5D%29%20%20AND%20%28tox%5Bsb%5D%29&cmd=search"
          }
        ],
        "cross_references": []
      }
    },
    "exposure_assessment": {
      "vapor_pressure": {
        "original_name": "Vapor Pressure",
        "value": "8.18E-07 mm Hg",
        "links": [],
        "cross_references": []
      }
    },
    "diseases_processes_and_activities_linked_to_this_agent": {
      "other_information": {
        "original_name": "Other Information",
        "value": "No other related information on this agent was found.",
        "links": [],
        "cross_references": []
      }
    }
  },
  "cross_references": [
    {
      "type": "name_match",
      "text": "benzene",
      "confidence": 1.0,
      "uuid": "b05124de-5f34-4c14-8f04-ccb20c3780d9",
      "name": "Benzene",
      "url": "https://haz-map.com/Agents/5",
      "category": "agents"
    },
    {
      "type": "name_match",
      "text": "phenol",
      "confidence": 1.0,
      "uuid": "03141a03-a7df-4f51-9a37-adde1a7c4b31",
      "name": "Phenol",
      "url": "https://haz-map.com/Agents/84",
      "category": "agents"
    },
    {
      "type": "name_match",
      "text": "acetic acid",
      "confidence": 1.0,
      "uuid": "0905c6e4-df84-4895-a92d-658819239bbd",
      "name": "Acetic acid",
      "url": "https://haz-map.com/Agents/207",
      "category": "agents"
    },
    {
      "type": "name_match",
      "text": "phenylacetic acid",
      "confidence": 1.0,
      "uuid": "9fd56a07-b965-4725-89f1-49d42ccba118",
      "name": "Phenylacetic acid",
      "url": "https://haz-map.com/Agents/6638",
      "category": "agents"
    },
    {
      "type": "name_match",
      "text": "gentisic acid",
      "confidence": 1.0,
      "uuid": "e64d2bc0-6bec-4dbf-a4c4-26d078e6fcbf",
      "name": "Gentisic acid",
      "url": "https://haz-map.com/Agents/9631",
      "category": "agents"
    },
    {
      "type": "name_match",
      "text": "alanine",
      "confidence": 1.0,
      "uuid": "0829012c-76c4-4cb5-91ac-cacb73278dc5",
      "name": "Alanine",
      "url": "https://haz-map.com/Agents/11406",
      "category": "agents"
    },
    {
      "type": "name_match",
      "text": "homogentisic acid",
      "confidence": 1.0,
      "uuid": "0c0125e4-f624-45ae-9f77-0d6b33e83687",
      "name": "Homogentisic acid",
      "url": "https://haz-map.com/Agents/14770",
      "category": "agents"
    },
    {
      "type": "name_match",
      "text": "phenylalanine",
      "confidence": 1.0,
      "uuid": "8be416e5-4a8c-41fd-bcc7-d2a9217599fb",
      "name": "Phenylalanine",
      "url": "https://haz-map.com/Agents/16561",
      "category": "agents"
    },
    {
      "type": "name_match",
      "text": "tyrosine",
      "confidence": 1.0,
      "uuid": "f9f78e9e-985b-45af-8557-02c83fa04d59",
      "name": "Tyrosine",
      "url": "https://haz-map.com/Agents/18489",
      "category": "agents"
    },
    {
      "type": "fuzzy_match",
      "text": "crystalline",
      "matched_name": "Silica, crystalline",
      "confidence": 0.7061403508771931,
      "uuid": "f920e8a2-46df-41b7-af8d-0368a777251e",
      "category": "agents",
      "url": "https://haz-map.com/Agents/427"
    }
  ],
  "all_links": [
    {
      "text": "Search PubMed",
      "url": "https://www.ncbi.nlm.nih.gov/pubmed?term=Homogentisic+acid%20AND%20human%5Bmh%5D%20AND%20%28Occupational%20Diseases%20%5Bmh%5D%20OR%20Occupational%20Exposure%20%5Bmh%5D%29%20%20AND%20%28tox%5Bsb%5D%29&cmd=search"
    }
  ]
}