{
  "metadata": {
    "scraped_from": "https://haz-map.com/Agents/838",
    "entity_name": "Ammonium thioglycolate",
    "category": "agents",
    "uuid": "0c2ce180-5636-4dda-ab36-2d89b2fcb75c",
    "scraped_at": "2025-07-23T18:49:11.469426"
  },
  "parsed_at": "2025-07-24T01:10:56.064915",
  "title": "Ammonium thioglycolate",
  "sections": {
    "general": {
      "agent_name": {
        "original_name": "Agent Name",
        "value": "Ammonium thioglycolate",
        "links": [],
        "cross_references": [
          {
            "type": "name_match",
            "text": "ammonium thioglycolate",
            "confidence": 1.0,
            "uuid": "0c2ce180-5636-4dda-ab36-2d89b2fcb75c",
            "name": "Ammonium thioglycolate",
            "url": "https://haz-map.com/Agents/838",
            "category": "agents"
          }
        ]
      },
      "cas_number": {
        "original_name": "CAS Number",
        "value": "5421-46-5",
        "links": [],
        "cross_references": []
      },
      "formula": {
        "original_name": "Formula",
        "value": "C2-H4-O2-S.H3-N",
        "links": [],
        "cross_references": []
      },
      "major_category": {
        "original_name": "Major Category",
        "value": "Other Classes",
        "links": [],
        "cross_references": []
      },
      "synonyms": {
        "original_name": "Synonyms",
        "value": "Ammonium mercaptoacetate; Ammonium thioglycolate; Ammonium thioglycollate; Thiofaco A-50; Thioglycolic acid ammonium salt; Thioglycollic acid, ammonium salt; [ChemIDplus]",
        "links": [],
        "cross_references": [
          {
            "type": "name_match",
            "text": "thioglycolic acid",
            "confidence": 1.0,
            "uuid": "e9d73c3a-78e4-4233-af53-7d006fabd18b",
            "name": "Thioglycolic acid",
            "url": "https://haz-map.com/Agents/654",
            "category": "agents"
          },
          {
            "type": "name_match",
            "text": "ammonium thioglycolate",
            "confidence": 1.0,
            "uuid": "0c2ce180-5636-4dda-ab36-2d89b2fcb75c",
            "name": "Ammonium thioglycolate",
            "url": "https://haz-map.com/Agents/838",
            "category": "agents"
          },
          {
            "type": "name_match",
            "text": "glycolic acid",
            "confidence": 1.0,
            "uuid": "1584a0fe-5d54-4768-85ea-815563bd0798",
            "name": "Glycolic acid",
            "url": "https://haz-map.com/Agents/1410",
            "category": "agents"
          }
        ]
      },
      "category": {
        "original_name": "Category",
        "value": "Thioglycolates",
        "links": [],
        "cross_references": []
      },
      "description": {
        "original_name": "Description",
        "value": "Colorless to pale pink liquid; [HSDB]",
        "links": [],
        "cross_references": []
      },
      "sourcesuses": {
        "original_name": "Sources/Uses",
        "value": "\"Solutions of various strengths are used for hair waving and for hair removal. May be used in permanent hair colors, levels up to 0.25%, as a stabilizer against oxidation.\" [HSDB]",
        "links": [],
        "cross_references": []
      },
      "comments": {
        "original_name": "Comments",
        "value": "Ammonium thioglycolate, used for alkaline hair permanents, is difficult to patch test because of its irritating effects. It is a known cause of irritant contact dermatitis in hairdressers and their clients. [Marks, p. 178] Causes contact urticaria; [Kanerva, p. 219]",
        "links": [],
        "cross_references": [
          {
            "type": "name_match",
            "text": "contact urticaria",
            "confidence": 1.0,
            "uuid": "465e908f-02ad-4f45-a29b-fd09224d5874",
            "name": "Contact urticaria",
            "url": "https://haz-map.com/Diseases/266",
            "category": "diseases"
          },
          {
            "type": "name_match",
            "text": "dermatitis",
            "confidence": 1.0,
            "uuid": "fe9c05f2-b19f-4ceb-ac7a-ffb7d7a0cae0",
            "name": "dermatitis",
            "url": "https://haz-map.com/Findings/59",
            "category": "findings"
          },
          {
            "type": "name_match",
            "text": "urticaria",
            "confidence": 1.0,
            "uuid": "077e5bcd-975f-45ad-a136-d3c876b10a30",
            "name": "urticaria",
            "url": "https://haz-map.com/Findings/113",
            "category": "findings"
          },
          {
            "type": "name_match",
            "text": "ammonium thioglycolate",
            "confidence": 1.0,
            "uuid": "0c2ce180-5636-4dda-ab36-2d89b2fcb75c",
            "name": "Ammonium thioglycolate",
            "url": "https://haz-map.com/Agents/838",
            "category": "agents"
          },
          {
            "type": "fuzzy_match",
            "text": "contact dermatitis",
            "matched_name": "Contact dermatitis, allergic",
            "confidence": 0.7214285714285715,
            "uuid": "c9499de0-9aa1-41bf-8753-cd5b28a63e29",
            "category": "diseases",
            "url": "https://haz-map.com/Diseases/18"
          }
        ]
      },
      "biomedical_references": {
        "original_name": "Biomedical References",
        "value": "Search PubMed",
        "links": [
          {
            "text": "Search PubMed",
            "url": "https://www.ncbi.nlm.nih.gov/pubmed?term=Ammonium+thioglycolate%20AND%20human%5Bmh%5D%20AND%20%28Occupational%20Diseases%20%5Bmh%5D%20OR%20Occupational%20Exposure%20%5Bmh%5D%29%20%20AND%20%28tox%5Bsb%5D%29&cmd=search"
          }
        ],
        "cross_references": []
      }
    },
    "exposure_assessment": {
      "vapor_pressure": {
        "original_name": "Vapor Pressure",
        "value": "8.5E-06 mm Hg",
        "links": [],
        "cross_references": []
      }
    },
    "adverse_effects": {
      "skin_sensitizer": {
        "original_name": "Skin Sensitizer",
        "value": "Yes",
        "links": [],
        "cross_references": []
      }
    },
    "diseases_processes_and_activities_linked_to_this_agent": {
      "diseases": {
        "original_name": "Diseases",
        "value": "Occupational diseases associated with exposure to this agent: Contact dermatitis, allergic Contact urticaria",
        "links": [
          {
            "text": "Contact dermatitis, allergic",
            "url": "https://haz-map.com/Diseases/18"
          },
          {
            "text": "Contact urticaria",
            "url": "https://haz-map.com/Diseases/266"
          }
        ],
        "cross_references": [
          {
            "type": "url_match",
            "text": "Contact dermatitis, allergic",
            "url": "https://haz-map.com/Diseases/18",
            "confidence": 1.0,
            "uuid": "c9499de0-9aa1-41bf-8753-cd5b28a63e29",
            "name": "Contact dermatitis, allergic",
            "category": "diseases"
          },
          {
            "type": "url_match",
            "text": "Contact urticaria",
            "url": "https://haz-map.com/Diseases/266",
            "confidence": 1.0,
            "uuid": "465e908f-02ad-4f45-a29b-fd09224d5874",
            "name": "Contact urticaria",
            "category": "diseases"
          },
          {
            "type": "name_match",
            "text": "dermatitis",
            "confidence": 1.0,
            "uuid": "fe9c05f2-b19f-4ceb-ac7a-ffb7d7a0cae0",
            "name": "dermatitis",
            "url": "https://haz-map.com/Findings/59",
            "category": "findings"
          },
          {
            "type": "name_match",
            "text": "urticaria",
            "confidence": 1.0,
            "uuid": "077e5bcd-975f-45ad-a136-d3c876b10a30",
            "name": "urticaria",
            "url": "https://haz-map.com/Findings/113",
            "category": "findings"
          }
        ]
      },
      "processes": {
        "original_name": "Processes",
        "value": "Industrial Processes with risk of exposure: Dressing Hair",
        "links": [
          {
            "text": "Dressing Hair",
            "url": "https://haz-map.com/Processes/258"
          }
        ],
        "cross_references": []
      }
    }
  },
  "cross_references": [
    {
      "type": "url_match",
      "text": "Contact dermatitis, allergic",
      "url": "https://haz-map.com/Diseases/18",
      "confidence": 1.0,
      "uuid": "c9499de0-9aa1-41bf-8753-cd5b28a63e29",
      "name": "Contact dermatitis, allergic",
      "category": "diseases"
    },
    {
      "type": "url_match",
      "text": "Contact urticaria",
      "url": "https://haz-map.com/Diseases/266",
      "confidence": 1.0,
      "uuid": "465e908f-02ad-4f45-a29b-fd09224d5874",
      "name": "Contact urticaria",
      "category": "diseases"
    },
    {
      "type": "name_match",
      "text": "dermatitis",
      "confidence": 1.0,
      "uuid": "fe9c05f2-b19f-4ceb-ac7a-ffb7d7a0cae0",
      "name": "dermatitis",
      "url": "https://haz-map.com/Findings/59",
      "category": "findings"
    },
    {
      "type": "name_match",
      "text": "urticaria",
      "confidence": 1.0,
      "uuid": "077e5bcd-975f-45ad-a136-d3c876b10a30",
      "name": "urticaria",
      "url": "https://haz-map.com/Findings/113",
      "category": "findings"
    },
    {
      "type": "name_match",
      "text": "thioglycolic acid",
      "confidence": 1.0,
      "uuid": "e9d73c3a-78e4-4233-af53-7d006fabd18b",
      "name": "Thioglycolic acid",
      "url": "https://haz-map.com/Agents/654",
      "category": "agents"
    },
    {
      "type": "name_match",
      "text": "ammonium thioglycolate",
      "confidence": 1.0,
      "uuid": "0c2ce180-5636-4dda-ab36-2d89b2fcb75c",
      "name": "Ammonium thioglycolate",
      "url": "https://haz-map.com/Agents/838",
      "category": "agents"
    },
    {
      "type": "name_match",
      "text": "glycolic acid",
      "confidence": 1.0,
      "uuid": "1584a0fe-5d54-4768-85ea-815563bd0798",
      "name": "Glycolic acid",
      "url": "https://haz-map.com/Agents/1410",
      "category": "agents"
    }
  ],
  "all_links": [
    {
      "text": "Search PubMed",
      "url": "https://www.ncbi.nlm.nih.gov/pubmed?term=Ammonium+thioglycolate%20AND%20human%5Bmh%5D%20AND%20%28Occupational%20Diseases%20%5Bmh%5D%20OR%20Occupational%20Exposure%20%5Bmh%5D%29%20%20AND%20%28tox%5Bsb%5D%29&cmd=search"
    },
    {
      "text": "Contact dermatitis, allergic",
      "url": "https://haz-map.com/Diseases/18"
    },
    {
      "text": "Contact urticaria",
      "url": "https://haz-map.com/Diseases/266"
    },
    {
      "text": "Dressing Hair",
      "url": "https://haz-map.com/Processes/258"
    }
  ]
}