{
  "metadata": {
    "scraped_from": "https://haz-map.com/Agents/9645",
    "entity_name": "2-Methylanisole",
    "category": "agents",
    "uuid": "0c94cee6-ff03-469c-84e2-17c9fc7c622f",
    "scraped_at": "2025-07-23T20:40:25.729430"
  },
  "parsed_at": "2025-07-24T01:08:44.230120",
  "title": "2-Methylanisole",
  "sections": {
    "general": {
      "agent_name": {
        "original_name": "Agent Name",
        "value": "2-Methylanisole",
        "links": [],
        "cross_references": [
          {
            "type": "name_match",
            "text": "anisole",
            "confidence": 1.0,
            "uuid": "f122d940-2dba-441c-9dbf-c185355d4cb0",
            "name": "Anisole",
            "url": "https://haz-map.com/Agents/3708",
            "category": "agents"
          },
          {
            "type": "name_match",
            "text": "2-methylanisole",
            "confidence": 1.0,
            "uuid": "0c94cee6-ff03-469c-84e2-17c9fc7c622f",
            "name": "2-Methylanisole",
            "url": "https://haz-map.com/Agents/9645",
            "category": "agents"
          }
        ]
      },
      "cas_number": {
        "original_name": "CAS Number",
        "value": "578-58-5",
        "links": [],
        "cross_references": []
      },
      "formula": {
        "original_name": "Formula",
        "value": "C8-H10-O",
        "links": [],
        "cross_references": []
      },
      "major_category": {
        "original_name": "Major Category",
        "value": "Other Classes",
        "links": [],
        "cross_references": []
      },
      "synonyms": {
        "original_name": "Synonyms",
        "value": "1-Methoxy-2-methylbenzene; 2-Methoxytoluene; 2-Methylmethoxybenzene; Anisole, o-methyl-; Benzene, 1-methoxy-2-methyl-; Methoxytoluene, o-; Methyl o-cresyl ether; Methyl o-tolyl ether; o-Cresol methyl ether; o-Cresyl methyl ether; o-Methylanisole; [ChemIDplus]",
        "links": [],
        "cross_references": [
          {
            "type": "name_match",
            "text": "benzene",
            "confidence": 1.0,
            "uuid": "b05124de-5f34-4c14-8f04-ccb20c3780d9",
            "name": "Benzene",
            "url": "https://haz-map.com/Agents/5",
            "category": "agents"
          },
          {
            "type": "name_match",
            "text": "toluene",
            "confidence": 1.0,
            "uuid": "0a34d5de-e924-4c47-aff5-7ae8e48c6772",
            "name": "Toluene",
            "url": "https://haz-map.com/Agents/83",
            "category": "agents"
          },
          {
            "type": "name_match",
            "text": "ethyl ether",
            "confidence": 1.0,
            "uuid": "c95edddc-9ad3-44f8-bafa-78e0bd19db3a",
            "name": "Ethyl ether",
            "url": "https://haz-map.com/Agents/455",
            "category": "agents"
          },
          {
            "type": "name_match",
            "text": "anisole",
            "confidence": 1.0,
            "uuid": "f122d940-2dba-441c-9dbf-c185355d4cb0",
            "name": "Anisole",
            "url": "https://haz-map.com/Agents/3708",
            "category": "agents"
          },
          {
            "type": "name_match",
            "text": "o-cresol",
            "confidence": 1.0,
            "uuid": "79705508-f40f-4274-9fce-92bc3b99c914",
            "name": "o-Cresol",
            "url": "https://haz-map.com/Agents/16208",
            "category": "agents"
          }
        ]
      },
      "category": {
        "original_name": "Category",
        "value": "Ethers, Other",
        "links": [],
        "cross_references": []
      },
      "description": {
        "original_name": "Description",
        "value": "Colorless liquid with a pleasant odor; [Alfa Aesar MSDS]",
        "links": [],
        "cross_references": []
      },
      "sourcesuses": {
        "original_name": "Sources/Uses",
        "value": "Used as flavoring agent or adjuvant; [FDA]",
        "links": [],
        "cross_references": []
      },
      "comments": {
        "original_name": "Comments",
        "value": "Safe when used as a flavoring agent in food; [JECFA] May cause irritation; [Alfa Aesar MSDS] See \"Anisole.\"",
        "links": [],
        "cross_references": [
          {
            "type": "name_match",
            "text": "anisole",
            "confidence": 1.0,
            "uuid": "f122d940-2dba-441c-9dbf-c185355d4cb0",
            "name": "Anisole",
            "url": "https://haz-map.com/Agents/3708",
            "category": "agents"
          }
        ]
      },
      "biomedical_references": {
        "original_name": "Biomedical References",
        "value": "Search PubMed",
        "links": [
          {
            "text": "Search PubMed",
            "url": "https://www.ncbi.nlm.nih.gov/pubmed?term=2-Methylanisole%20AND%20human%5Bmh%5D%20AND%20%28Occupational%20Diseases%20%5Bmh%5D%20OR%20Occupational%20Exposure%20%5Bmh%5D%29%20%20AND%20%28tox%5Bsb%5D%29&cmd=search"
          }
        ],
        "cross_references": []
      }
    },
    "exposure_assessment": {
      "vapor_pressure": {
        "original_name": "Vapor Pressure",
        "value": "1.5 mm Hg",
        "links": [],
        "cross_references": []
      },
      "explanatory_notes": {
        "original_name": "Explanatory Notes",
        "value": "VP from ChemIDplus;",
        "links": [],
        "cross_references": []
      }
    },
    "adverse_effects": {
      "neurotoxin": {
        "original_name": "Neurotoxin",
        "value": "Acute solvent syndrome",
        "links": [],
        "cross_references": []
      }
    },
    "diseases_processes_and_activities_linked_to_this_agent": {
      "diseases": {
        "original_name": "Diseases",
        "value": "Occupational diseases associated with exposure to this agent: Solvents, acute toxic effect",
        "links": [
          {
            "text": "Solvents, acute toxic effect",
            "url": "https://haz-map.com/Diseases/326"
          }
        ],
        "cross_references": [
          {
            "type": "url_match",
            "text": "Solvents, acute toxic effect",
            "url": "https://haz-map.com/Diseases/326",
            "confidence": 1.0,
            "uuid": "581e90e3-9d0c-45f0-aa6c-3468c28da129",
            "name": "Solvents, acute toxic effect",
            "category": "diseases"
          }
        ]
      }
    }
  },
  "cross_references": [
    {
      "type": "url_match",
      "text": "Solvents, acute toxic effect",
      "url": "https://haz-map.com/Diseases/326",
      "confidence": 1.0,
      "uuid": "581e90e3-9d0c-45f0-aa6c-3468c28da129",
      "name": "Solvents, acute toxic effect",
      "category": "diseases"
    },
    {
      "type": "name_match",
      "text": "benzene",
      "confidence": 1.0,
      "uuid": "b05124de-5f34-4c14-8f04-ccb20c3780d9",
      "name": "Benzene",
      "url": "https://haz-map.com/Agents/5",
      "category": "agents"
    },
    {
      "type": "name_match",
      "text": "toluene",
      "confidence": 1.0,
      "uuid": "0a34d5de-e924-4c47-aff5-7ae8e48c6772",
      "name": "Toluene",
      "url": "https://haz-map.com/Agents/83",
      "category": "agents"
    },
    {
      "type": "name_match",
      "text": "ethyl ether",
      "confidence": 1.0,
      "uuid": "c95edddc-9ad3-44f8-bafa-78e0bd19db3a",
      "name": "Ethyl ether",
      "url": "https://haz-map.com/Agents/455",
      "category": "agents"
    },
    {
      "type": "name_match",
      "text": "anisole",
      "confidence": 1.0,
      "uuid": "f122d940-2dba-441c-9dbf-c185355d4cb0",
      "name": "Anisole",
      "url": "https://haz-map.com/Agents/3708",
      "category": "agents"
    },
    {
      "type": "name_match",
      "text": "2-methylanisole",
      "confidence": 1.0,
      "uuid": "0c94cee6-ff03-469c-84e2-17c9fc7c622f",
      "name": "2-Methylanisole",
      "url": "https://haz-map.com/Agents/9645",
      "category": "agents"
    },
    {
      "type": "name_match",
      "text": "o-cresol",
      "confidence": 1.0,
      "uuid": "79705508-f40f-4274-9fce-92bc3b99c914",
      "name": "o-Cresol",
      "url": "https://haz-map.com/Agents/16208",
      "category": "agents"
    }
  ],
  "all_links": [
    {
      "text": "Search PubMed",
      "url": "https://www.ncbi.nlm.nih.gov/pubmed?term=2-Methylanisole%20AND%20human%5Bmh%5D%20AND%20%28Occupational%20Diseases%20%5Bmh%5D%20OR%20Occupational%20Exposure%20%5Bmh%5D%29%20%20AND%20%28tox%5Bsb%5D%29&cmd=search"
    },
    {
      "text": "Solvents, acute toxic effect",
      "url": "https://haz-map.com/Diseases/326"
    }
  ]
}