{
  "metadata": {
    "scraped_from": "https://haz-map.com/Agents/3239",
    "entity_name": "3-Methyl-6-chlorophenol",
    "category": "agents",
    "uuid": "0ca689a6-5b1c-4578-a2ad-a47f8b4a4c51",
    "scraped_at": "2025-07-23T19:26:12.394614"
  },
  "parsed_at": "2025-07-24T00:54:58.530767",
  "title": "3-Methyl-6-chlorophenol",
  "sections": {
    "general": {
      "agent_name": {
        "original_name": "Agent Name",
        "value": "3-Methyl-6-chlorophenol",
        "links": [],
        "cross_references": [
          {
            "type": "name_match",
            "text": "phenol",
            "confidence": 1.0,
            "uuid": "03141a03-a7df-4f51-9a37-adde1a7c4b31",
            "name": "Phenol",
            "url": "https://haz-map.com/Agents/84",
            "category": "agents"
          },
          {
            "type": "name_match",
            "text": "3-methyl-6-chlorophenol",
            "confidence": 1.0,
            "uuid": "0ca689a6-5b1c-4578-a2ad-a47f8b4a4c51",
            "name": "3-Methyl-6-chlorophenol",
            "url": "https://haz-map.com/Agents/3239",
            "category": "agents"
          }
        ]
      },
      "cas_number": {
        "original_name": "CAS Number",
        "value": "615-74-7",
        "links": [],
        "cross_references": []
      },
      "formula": {
        "original_name": "Formula",
        "value": "C7-H7-Cl-O",
        "links": [],
        "cross_references": []
      },
      "major_category": {
        "original_name": "Major Category",
        "value": "Other Classes",
        "links": [],
        "cross_references": []
      },
      "synonyms": {
        "original_name": "Synonyms",
        "value": "2-Chloro-5-methylphenol; 4-Chloro-3-hydroxytoluene; 5-Methyl-2-chlorophenol; 6-Chloro-3-methylphenol; 6-Chloro-m-cresol; Phenol, 2-chloro-5-methyl-; m-Cresol, 6-chloro-; [ChemIDplus] UN3437; UN2669",
        "links": [],
        "cross_references": [
          {
            "type": "name_match",
            "text": "toluene",
            "confidence": 1.0,
            "uuid": "0a34d5de-e924-4c47-aff5-7ae8e48c6772",
            "name": "Toluene",
            "url": "https://haz-map.com/Agents/83",
            "category": "agents"
          },
          {
            "type": "name_match",
            "text": "phenol",
            "confidence": 1.0,
            "uuid": "03141a03-a7df-4f51-9a37-adde1a7c4b31",
            "name": "Phenol",
            "url": "https://haz-map.com/Agents/84",
            "category": "agents"
          },
          {
            "type": "name_match",
            "text": "2-chlorophenol",
            "confidence": 1.0,
            "uuid": "9398ec0a-f8d8-4851-b2c7-324348130974",
            "name": "2-Chlorophenol",
            "url": "https://haz-map.com/Agents/3098",
            "category": "agents"
          },
          {
            "type": "name_match",
            "text": "m-cresol",
            "confidence": 1.0,
            "uuid": "33975f23-f0cb-49a7-a631-36f1ad4f95de",
            "name": "m-Cresol",
            "url": "https://haz-map.com/Agents/15395",
            "category": "agents"
          }
        ]
      },
      "category": {
        "original_name": "Category",
        "value": "Chlorophenols",
        "links": [],
        "cross_references": [
          {
            "type": "name_match",
            "text": "phenol",
            "confidence": 1.0,
            "uuid": "03141a03-a7df-4f51-9a37-adde1a7c4b31",
            "name": "Phenol",
            "url": "https://haz-map.com/Agents/84",
            "category": "agents"
          },
          {
            "type": "name_match",
            "text": "chlorophenols",
            "confidence": 1.0,
            "uuid": "3ad29a92-30f2-4b72-9028-5ce0818a90ca",
            "name": "CHLOROPHENOLS",
            "url": "https://haz-map.com/Agents/9426",
            "category": "agents"
          }
        ]
      },
      "description": {
        "original_name": "Description",
        "value": "Solid; [HSDB] Off-white solid; [MSDSonline]",
        "links": [],
        "cross_references": []
      },
      "comments": {
        "original_name": "Comments",
        "value": "An irritant; [MSDSonline] See \"CHLOROPHENOLS.\"",
        "links": [],
        "cross_references": [
          {
            "type": "name_match",
            "text": "phenol",
            "confidence": 1.0,
            "uuid": "03141a03-a7df-4f51-9a37-adde1a7c4b31",
            "name": "Phenol",
            "url": "https://haz-map.com/Agents/84",
            "category": "agents"
          },
          {
            "type": "name_match",
            "text": "chlorophenols",
            "confidence": 1.0,
            "uuid": "3ad29a92-30f2-4b72-9028-5ce0818a90ca",
            "name": "CHLOROPHENOLS",
            "url": "https://haz-map.com/Agents/9426",
            "category": "agents"
          }
        ]
      },
      "biomedical_references": {
        "original_name": "Biomedical References",
        "value": "Search PubMed",
        "links": [
          {
            "text": "Search PubMed",
            "url": "https://www.ncbi.nlm.nih.gov/pubmed?term=3-Methyl-6-chlorophenol%20AND%20human%5Bmh%5D%20AND%20%28Occupational%20Diseases%20%5Bmh%5D%20OR%20Occupational%20Exposure%20%5Bmh%5D%29%20%20AND%20%28tox%5Bsb%5D%29&cmd=search"
          }
        ],
        "cross_references": []
      }
    },
    "exposure_assessment": {
      "vapor_pressure": {
        "original_name": "Vapor Pressure",
        "value": "0.041 mm Hg",
        "links": [],
        "cross_references": []
      },
      "explanatory_notes": {
        "original_name": "Explanatory Notes",
        "value": "The Guide in the Emergency Response Guidebook is for \"Chlorocresols, solid.\"",
        "links": [],
        "cross_references": []
      }
    },
    "adverse_effects": {
      "neurotoxin": {
        "original_name": "Neurotoxin",
        "value": "Other CNS neurotoxin",
        "links": [],
        "cross_references": []
      },
      "hepatotoxin": {
        "original_name": "Hepatotoxin",
        "value": "Hepatoxic (a) from occupational exposure (secondary effect) or (b) in animal studies or in humans after ingestion",
        "links": [],
        "cross_references": []
      },
      "nephrotoxin": {
        "original_name": "Nephrotoxin",
        "value": "Yes",
        "links": [],
        "cross_references": []
      }
    },
    "diseases_processes_and_activities_linked_to_this_agent": {
      "other_information": {
        "original_name": "Other Information",
        "value": "No other related information on this agent was found.",
        "links": [],
        "cross_references": []
      }
    }
  },
  "cross_references": [
    {
      "type": "name_match",
      "text": "toluene",
      "confidence": 1.0,
      "uuid": "0a34d5de-e924-4c47-aff5-7ae8e48c6772",
      "name": "Toluene",
      "url": "https://haz-map.com/Agents/83",
      "category": "agents"
    },
    {
      "type": "name_match",
      "text": "phenol",
      "confidence": 1.0,
      "uuid": "03141a03-a7df-4f51-9a37-adde1a7c4b31",
      "name": "Phenol",
      "url": "https://haz-map.com/Agents/84",
      "category": "agents"
    },
    {
      "type": "name_match",
      "text": "2-chlorophenol",
      "confidence": 1.0,
      "uuid": "9398ec0a-f8d8-4851-b2c7-324348130974",
      "name": "2-Chlorophenol",
      "url": "https://haz-map.com/Agents/3098",
      "category": "agents"
    },
    {
      "type": "name_match",
      "text": "3-methyl-6-chlorophenol",
      "confidence": 1.0,
      "uuid": "0ca689a6-5b1c-4578-a2ad-a47f8b4a4c51",
      "name": "3-Methyl-6-chlorophenol",
      "url": "https://haz-map.com/Agents/3239",
      "category": "agents"
    },
    {
      "type": "name_match",
      "text": "chlorophenols",
      "confidence": 1.0,
      "uuid": "3ad29a92-30f2-4b72-9028-5ce0818a90ca",
      "name": "CHLOROPHENOLS",
      "url": "https://haz-map.com/Agents/9426",
      "category": "agents"
    },
    {
      "type": "name_match",
      "text": "m-cresol",
      "confidence": 1.0,
      "uuid": "33975f23-f0cb-49a7-a631-36f1ad4f95de",
      "name": "m-Cresol",
      "url": "https://haz-map.com/Agents/15395",
      "category": "agents"
    }
  ],
  "all_links": [
    {
      "text": "Search PubMed",
      "url": "https://www.ncbi.nlm.nih.gov/pubmed?term=3-Methyl-6-chlorophenol%20AND%20human%5Bmh%5D%20AND%20%28Occupational%20Diseases%20%5Bmh%5D%20OR%20Occupational%20Exposure%20%5Bmh%5D%29%20%20AND%20%28tox%5Bsb%5D%29&cmd=search"
    }
  ]
}