{
  "metadata": {
    "scraped_from": "https://haz-map.com/Agents/5117",
    "entity_name": "Erythorbic acid",
    "category": "agents",
    "uuid": "0cdff68d-ae0e-4bea-9ef7-df0c92830156",
    "scraped_at": "2025-07-23T19:49:09.878820"
  },
  "parsed_at": "2025-07-24T01:07:14.066612",
  "title": "Erythorbic acid",
  "sections": {
    "general": {
      "agent_name": {
        "original_name": "Agent Name",
        "value": "Erythorbic acid",
        "links": [],
        "cross_references": [
          {
            "type": "name_match",
            "text": "erythorbic acid",
            "confidence": 1.0,
            "uuid": "0cdff68d-ae0e-4bea-9ef7-df0c92830156",
            "name": "Erythorbic acid",
            "url": "https://haz-map.com/Agents/5117",
            "category": "agents"
          }
        ]
      },
      "alternative_name": {
        "original_name": "Alternative Name",
        "value": "Isoascorbic acid",
        "links": [],
        "cross_references": [
          {
            "type": "name_match",
            "text": "ascorbic acid",
            "confidence": 1.0,
            "uuid": "2c861365-3e0c-4c5e-bf0c-b6fb964f95de",
            "name": "Ascorbic acid",
            "url": "https://haz-map.com/Agents/11991",
            "category": "agents"
          }
        ]
      },
      "cas_number": {
        "original_name": "CAS Number",
        "value": "89-65-6",
        "links": [],
        "cross_references": []
      },
      "formula": {
        "original_name": "Formula",
        "value": "C6-H8-O6",
        "links": [],
        "cross_references": []
      },
      "major_category": {
        "original_name": "Major Category",
        "value": "Other Classes",
        "links": [],
        "cross_references": []
      },
      "synonyms": {
        "original_name": "Synonyms",
        "value": "3-keto-D-erythro-Hexonic acid gamma-lactone; 3-Oxohexonic acid lactone, D-erythro-; Araboascorbic acid; D-ASCORBIC ACID, ISO; D-Araboascorbic acid; D-Erythorbic acid; D-Isoascorbic acid; D-erythro-3-keto-Hexonic acid lactone; D-erythro-3-Oxohexonic acid lactone; D-erythro-Ascorbic acid; D-erythro-Hex-2-enonic acid, gamma-lactone; Erycorbin; Erythroascorbic acid, D-; Glucosaccharonic acid; Hex-2-enonic acid gamma-lactone, D-erythro-; Isovitamin C; Mercate 5; Neo-Cebicure; Saccharosonic acid; [ChemIDplus]",
        "links": [],
        "cross_references": [
          {
            "type": "name_match",
            "text": "erythorbic acid",
            "confidence": 1.0,
            "uuid": "0cdff68d-ae0e-4bea-9ef7-df0c92830156",
            "name": "Erythorbic acid",
            "url": "https://haz-map.com/Agents/5117",
            "category": "agents"
          },
          {
            "type": "name_match",
            "text": "ascorbic acid",
            "confidence": 1.0,
            "uuid": "2c861365-3e0c-4c5e-bf0c-b6fb964f95de",
            "name": "Ascorbic acid",
            "url": "https://haz-map.com/Agents/11991",
            "category": "agents"
          }
        ]
      },
      "category": {
        "original_name": "Category",
        "value": "Organic Acids",
        "links": [],
        "cross_references": []
      },
      "description": {
        "original_name": "Description",
        "value": "Shiny solid; [Merck Index] White odorless powder; [MSDSonline]",
        "links": [],
        "cross_references": []
      },
      "sourcesuses": {
        "original_name": "Sources/Uses",
        "value": "Used as an antioxidant (brewing industry), reducing agent (photography), and flavor; [HSDB] Used as antimicrobial agent for food; [Merck Index] An isomer of ascorbic acid used as a food antioxidant; [REPROTOX]",
        "links": [],
        "cross_references": [
          {
            "type": "name_match",
            "text": "ascorbic acid",
            "confidence": 1.0,
            "uuid": "2c861365-3e0c-4c5e-bf0c-b6fb964f95de",
            "name": "Ascorbic acid",
            "url": "https://haz-map.com/Agents/11991",
            "category": "agents"
          }
        ]
      },
      "comments": {
        "original_name": "Comments",
        "value": "Emergency treatment: Non-toxic ingestion; Generally recognized as safe (GRAS) in food; [HSDB] May cause irritation; [MSDSonline]",
        "links": [],
        "cross_references": []
      },
      "biomedical_references": {
        "original_name": "Biomedical References",
        "value": "Search PubMed",
        "links": [
          {
            "text": "Search PubMed",
            "url": "https://www.ncbi.nlm.nih.gov/pubmed?term=Erythorbic+acid%20AND%20human%5Bmh%5D%20AND%20%28Occupational%20Diseases%20%5Bmh%5D%20OR%20Occupational%20Exposure%20%5Bmh%5D%29%20%20AND%20%28tox%5Bsb%5D%29&cmd=search"
          }
        ],
        "cross_references": []
      }
    },
    "exposure_assessment": {
      "vapor_pressure": {
        "original_name": "Vapor Pressure",
        "value": "2.49E-10 mm Hg",
        "links": [],
        "cross_references": []
      }
    },
    "diseases_processes_and_activities_linked_to_this_agent": {
      "processes": {
        "original_name": "Processes",
        "value": "Industrial Processes with risk of exposure: Photographic Processing",
        "links": [
          {
            "text": "Photographic Processing",
            "url": "https://haz-map.com/Processes/231"
          }
        ],
        "cross_references": []
      }
    }
  },
  "cross_references": [
    {
      "type": "name_match",
      "text": "erythorbic acid",
      "confidence": 1.0,
      "uuid": "0cdff68d-ae0e-4bea-9ef7-df0c92830156",
      "name": "Erythorbic acid",
      "url": "https://haz-map.com/Agents/5117",
      "category": "agents"
    },
    {
      "type": "name_match",
      "text": "ascorbic acid",
      "confidence": 1.0,
      "uuid": "2c861365-3e0c-4c5e-bf0c-b6fb964f95de",
      "name": "Ascorbic acid",
      "url": "https://haz-map.com/Agents/11991",
      "category": "agents"
    }
  ],
  "all_links": [
    {
      "text": "Search PubMed",
      "url": "https://www.ncbi.nlm.nih.gov/pubmed?term=Erythorbic+acid%20AND%20human%5Bmh%5D%20AND%20%28Occupational%20Diseases%20%5Bmh%5D%20OR%20Occupational%20Exposure%20%5Bmh%5D%29%20%20AND%20%28tox%5Bsb%5D%29&cmd=search"
    },
    {
      "text": "Photographic Processing",
      "url": "https://haz-map.com/Processes/231"
    }
  ]
}