{
  "metadata": {
    "scraped_from": "https://haz-map.com/Agents/7595",
    "entity_name": "Triisopropyl phosphite",
    "category": "agents",
    "uuid": "0d0e86f2-77cd-4557-a9f7-96be5fd964d3",
    "scraped_at": "2025-07-23T20:14:38.028740"
  },
  "parsed_at": "2025-07-24T01:10:41.113693",
  "title": "Triisopropyl phosphite",
  "sections": {
    "general": {
      "agent_name": {
        "original_name": "Agent Name",
        "value": "Triisopropyl phosphite",
        "links": [],
        "cross_references": [
          {
            "type": "name_match",
            "text": "triisopropyl phosphite",
            "confidence": 1.0,
            "uuid": "0d0e86f2-77cd-4557-a9f7-96be5fd964d3",
            "name": "Triisopropyl phosphite",
            "url": "https://haz-map.com/Agents/7595",
            "category": "agents"
          }
        ]
      },
      "cas_number": {
        "original_name": "CAS Number",
        "value": "116-17-6",
        "links": [],
        "cross_references": []
      },
      "formula": {
        "original_name": "Formula",
        "value": "C9-H21-O3-P",
        "links": [],
        "cross_references": []
      },
      "major_category": {
        "original_name": "Major Category",
        "value": "Other Classes",
        "links": [],
        "cross_references": []
      },
      "synonyms": {
        "original_name": "Synonyms",
        "value": "Isopropyl phosphite, tri-; Phosphorous acid, triisopropyl ester; Phosphorous acid, tris(1-methylethyl) ester; Tri-2-propyl phosphite; Tri-2-propylphosphite; Triisopropoxyphosphine; [ChemIDplus]",
        "links": [],
        "cross_references": [
          {
            "type": "name_match",
            "text": "phosphine",
            "confidence": 1.0,
            "uuid": "b9783685-a2f4-44ef-8b65-6c1ab72fbfde",
            "name": "Phosphine",
            "url": "https://haz-map.com/Agents/74",
            "category": "agents"
          },
          {
            "type": "name_match",
            "text": "phosphorous acid",
            "confidence": 1.0,
            "uuid": "cd85912c-49fc-45b2-b593-6a900b0ec52e",
            "name": "Phosphorous acid",
            "url": "https://haz-map.com/Agents/8662",
            "category": "agents"
          }
        ]
      },
      "category": {
        "original_name": "Category",
        "value": "Phosphite Compounds",
        "links": [],
        "cross_references": []
      },
      "description": {
        "original_name": "Description",
        "value": "Colorless liquid; [HSDB]",
        "links": [],
        "cross_references": []
      },
      "sourcesuses": {
        "original_name": "Sources/Uses",
        "value": "Used as a lubricant additive, specialty solvent, antioxidant, and intermediate for insecticides; Could be used as a precursor for chemical weapons; [HSDB]",
        "links": [],
        "cross_references": [
          {
            "type": "name_match",
            "text": "mica",
            "confidence": 1.0,
            "uuid": "433f26f1-c399-4596-b179-ce3843cfd465",
            "name": "Mica",
            "url": "https://haz-map.com/Agents/621",
            "category": "agents"
          }
        ]
      },
      "comments": {
        "original_name": "Comments",
        "value": "Toxic if ingested; An irritant; [Alfa Aesar MSDS]",
        "links": [],
        "cross_references": []
      },
      "biomedical_references": {
        "original_name": "Biomedical References",
        "value": "Search PubMed",
        "links": [
          {
            "text": "Search PubMed",
            "url": "https://www.ncbi.nlm.nih.gov/pubmed?term=Triisopropyl+phosphite%20AND%20human%5Bmh%5D%20AND%20%28Occupational%20Diseases%20%5Bmh%5D%20OR%20Occupational%20Exposure%20%5Bmh%5D%29%20%20AND%20%28tox%5Bsb%5D%29&cmd=search"
          }
        ],
        "cross_references": []
      }
    },
    "exposure_assessment": {
      "vapor_pressure": {
        "original_name": "Vapor Pressure",
        "value": "0.27 mm Hg",
        "links": [],
        "cross_references": []
      }
    },
    "diseases_processes_and_activities_linked_to_this_agent": {
      "other_information": {
        "original_name": "Other Information",
        "value": "No other related information on this agent was found.",
        "links": [],
        "cross_references": []
      }
    }
  },
  "cross_references": [
    {
      "type": "name_match",
      "text": "phosphine",
      "confidence": 1.0,
      "uuid": "b9783685-a2f4-44ef-8b65-6c1ab72fbfde",
      "name": "Phosphine",
      "url": "https://haz-map.com/Agents/74",
      "category": "agents"
    },
    {
      "type": "name_match",
      "text": "mica",
      "confidence": 1.0,
      "uuid": "433f26f1-c399-4596-b179-ce3843cfd465",
      "name": "Mica",
      "url": "https://haz-map.com/Agents/621",
      "category": "agents"
    },
    {
      "type": "name_match",
      "text": "triisopropyl phosphite",
      "confidence": 1.0,
      "uuid": "0d0e86f2-77cd-4557-a9f7-96be5fd964d3",
      "name": "Triisopropyl phosphite",
      "url": "https://haz-map.com/Agents/7595",
      "category": "agents"
    },
    {
      "type": "name_match",
      "text": "phosphorous acid",
      "confidence": 1.0,
      "uuid": "cd85912c-49fc-45b2-b593-6a900b0ec52e",
      "name": "Phosphorous acid",
      "url": "https://haz-map.com/Agents/8662",
      "category": "agents"
    }
  ],
  "all_links": [
    {
      "text": "Search PubMed",
      "url": "https://www.ncbi.nlm.nih.gov/pubmed?term=Triisopropyl+phosphite%20AND%20human%5Bmh%5D%20AND%20%28Occupational%20Diseases%20%5Bmh%5D%20OR%20Occupational%20Exposure%20%5Bmh%5D%29%20%20AND%20%28tox%5Bsb%5D%29&cmd=search"
    }
  ]
}