{
  "metadata": {
    "scraped_from": "https://haz-map.com/Agents/21389",
    "entity_name": "o-Hydroxyphenylmercuric chloride",
    "category": "agents",
    "uuid": "0d17fbb6-8465-48fa-9bfd-9c00acf4cae3",
    "scraped_at": "2025-07-23T22:43:03.327849"
  },
  "parsed_at": "2025-07-24T01:01:23.323645",
  "title": "o-Hydroxyphenylmercuric chloride",
  "sections": {
    "general": {
      "agent_name": {
        "original_name": "Agent Name",
        "value": "o-Hydroxyphenylmercuric chloride",
        "links": [],
        "cross_references": [
          {
            "type": "name_match",
            "text": "mercuric chloride",
            "confidence": 1.0,
            "uuid": "5a395132-2920-46ad-a416-5209d0d82efe",
            "name": "Mercuric chloride",
            "url": "https://haz-map.com/Agents/1529",
            "category": "agents"
          },
          {
            "type": "name_match",
            "text": "phenylmercuric chloride",
            "confidence": 1.0,
            "uuid": "65a13153-c084-419d-beae-50ab8b07b2ba",
            "name": "Phenylmercuric chloride",
            "url": "https://haz-map.com/Agents/6654",
            "category": "agents"
          },
          {
            "type": "name_match",
            "text": "o-hydroxyphenylmercuric chloride",
            "confidence": 1.0,
            "uuid": "0d17fbb6-8465-48fa-9bfd-9c00acf4cae3",
            "name": "o-Hydroxyphenylmercuric chloride",
            "url": "https://haz-map.com/Agents/21389",
            "category": "agents"
          }
        ]
      },
      "cas_number": {
        "original_name": "CAS Number",
        "value": "90-03-9",
        "links": [],
        "cross_references": []
      },
      "formula": {
        "original_name": "Formula",
        "value": "C6-H5-Cl-Hg-O",
        "links": [],
        "cross_references": []
      },
      "major_category": {
        "original_name": "Major Category",
        "value": "Metals",
        "links": [],
        "cross_references": []
      },
      "synonyms": {
        "original_name": "Synonyms",
        "value": "2-Hydroxyphenylmercuric chloride; Chloro(o-hydroxyphenyl)mercury; Mercufenol chloride; Mercury, chloro(2-hydroxyphenyl)-; Myringacaine Drops; NP-27; o-(Chloromercuri)phenol; o-(Chloromercurio)phenol; o-Chloromercuriphenol; o-Hydroxyfenylmerkurichlorid [Czech]; o-Hydroxyphenylmercury chloride; o-Mercurihydroxyphenyl chloride; Phenol, o-(chloromercuri)-; Salicresin Fluid; U 7743; U-7743; 2-Chloromercuriophenol; Mercury, chloro(o-hydroxyphenyl)-; [ChemIDplus] 2-(Chloromercuri) phenol; [Sigma-Aldrich MSDS] UN2026",
        "links": [],
        "cross_references": [
          {
            "type": "name_match",
            "text": "mercury",
            "confidence": 1.0,
            "uuid": "1ccd7713-d752-4728-b246-fed6633c4405",
            "name": "Mercury",
            "url": "https://haz-map.com/Agents/6",
            "category": "agents"
          },
          {
            "type": "name_match",
            "text": "phenol",
            "confidence": 1.0,
            "uuid": "03141a03-a7df-4f51-9a37-adde1a7c4b31",
            "name": "Phenol",
            "url": "https://haz-map.com/Agents/84",
            "category": "agents"
          },
          {
            "type": "name_match",
            "text": "mercuric chloride",
            "confidence": 1.0,
            "uuid": "5a395132-2920-46ad-a416-5209d0d82efe",
            "name": "Mercuric chloride",
            "url": "https://haz-map.com/Agents/1529",
            "category": "agents"
          },
          {
            "type": "name_match",
            "text": "phenylmercuric chloride",
            "confidence": 1.0,
            "uuid": "65a13153-c084-419d-beae-50ab8b07b2ba",
            "name": "Phenylmercuric chloride",
            "url": "https://haz-map.com/Agents/6654",
            "category": "agents"
          }
        ]
      },
      "category": {
        "original_name": "Category",
        "value": "Metals, Organic Compounds",
        "links": [],
        "cross_references": [
          {
            "type": "fuzzy_match",
            "text": "organic compounds",
            "matched_name": "Tin, organic compounds",
            "confidence": 0.8196969696969697,
            "uuid": "e027d413-8869-4308-9eb2-27d768b011ea",
            "category": "agents",
            "url": "https://haz-map.com/Agents/656"
          }
        ]
      },
      "description": {
        "original_name": "Description",
        "value": "Solid; [Sigma-Aldrich MSDS]",
        "links": [],
        "cross_references": []
      },
      "comments": {
        "original_name": "Comments",
        "value": "An irritant; Highly toxic by ingestion, inhalation, and skin absorption; Targets the nerves; May have cumulative adverse effects; [Sigma-Aldrich MSDS] See \"Phenylmercuric chloride.\" See \"Mercury, aryl compounds\" and the linked occupational disease.",
        "links": [],
        "cross_references": [
          {
            "type": "name_match",
            "text": "mercury",
            "confidence": 1.0,
            "uuid": "1ccd7713-d752-4728-b246-fed6633c4405",
            "name": "Mercury",
            "url": "https://haz-map.com/Agents/6",
            "category": "agents"
          },
          {
            "type": "name_match",
            "text": "mercury, aryl compounds",
            "confidence": 1.0,
            "uuid": "4c55d1d2-0f72-42a2-9660-ec8f376b2a24",
            "name": "Mercury, aryl compounds",
            "url": "https://haz-map.com/Agents/1137",
            "category": "agents"
          },
          {
            "type": "name_match",
            "text": "mercuric chloride",
            "confidence": 1.0,
            "uuid": "5a395132-2920-46ad-a416-5209d0d82efe",
            "name": "Mercuric chloride",
            "url": "https://haz-map.com/Agents/1529",
            "category": "agents"
          },
          {
            "type": "name_match",
            "text": "phenylmercuric chloride",
            "confidence": 1.0,
            "uuid": "65a13153-c084-419d-beae-50ab8b07b2ba",
            "name": "Phenylmercuric chloride",
            "url": "https://haz-map.com/Agents/6654",
            "category": "agents"
          }
        ]
      },
      "biomedical_references": {
        "original_name": "Biomedical References",
        "value": "Search PubMed",
        "links": [
          {
            "text": "Search PubMed",
            "url": "https://www.ncbi.nlm.nih.gov/pubmed?term=o-Hydroxyphenylmercuric+chloride%20AND%20human%5Bmh%5D%20AND%20%28Occupational%20Diseases%20%5Bmh%5D%20OR%20Occupational%20Exposure%20%5Bmh%5D%29%20%20AND%20%28tox%5Bsb%5D%29&cmd=search"
          }
        ],
        "cross_references": []
      }
    },
    "exposure_assessment": {
      "skin_designation_acgih": {
        "original_name": "Skin Designation (ACGIH)",
        "value": "Yes",
        "links": [],
        "cross_references": []
      },
      "tlv_acgih": {
        "original_name": "TLV (ACGIH)",
        "value": "0.1 mg/m3, as Hg",
        "links": [],
        "cross_references": []
      },
      "pel_osha": {
        "original_name": "PEL (OSHA)",
        "value": "0.1 mg/m3, as Hg",
        "links": [],
        "cross_references": []
      },
      "idlh_niosh": {
        "original_name": "IDLH (NIOSH)",
        "value": "10 mg/m3, as Hg",
        "links": [],
        "cross_references": []
      },
      "vapor_pressure": {
        "original_name": "Vapor Pressure",
        "value": "0.00767 mm Hg",
        "links": [],
        "cross_references": []
      },
      "explanatory_notes": {
        "original_name": "Explanatory Notes",
        "value": "The Guide in the Emergency Response Guidebook is for \"Phenylmercuric compound, n.o.s.\"",
        "links": [],
        "cross_references": []
      }
    },
    "adverse_effects": {
      "neurotoxin": {
        "original_name": "Neurotoxin",
        "value": "Sensorimotor",
        "links": [],
        "cross_references": []
      },
      "reproductive_toxin": {
        "original_name": "Reproductive Toxin",
        "value": "Yes",
        "links": [],
        "cross_references": []
      }
    },
    "diseases_processes_and_activities_linked_to_this_agent": {
      "other_information": {
        "original_name": "Other Information",
        "value": "No other related information on this agent was found.",
        "links": [],
        "cross_references": []
      }
    }
  },
  "cross_references": [
    {
      "type": "name_match",
      "text": "mercury",
      "confidence": 1.0,
      "uuid": "1ccd7713-d752-4728-b246-fed6633c4405",
      "name": "Mercury",
      "url": "https://haz-map.com/Agents/6",
      "category": "agents"
    },
    {
      "type": "name_match",
      "text": "phenol",
      "confidence": 1.0,
      "uuid": "03141a03-a7df-4f51-9a37-adde1a7c4b31",
      "name": "Phenol",
      "url": "https://haz-map.com/Agents/84",
      "category": "agents"
    },
    {
      "type": "name_match",
      "text": "mercury, aryl compounds",
      "confidence": 1.0,
      "uuid": "4c55d1d2-0f72-42a2-9660-ec8f376b2a24",
      "name": "Mercury, aryl compounds",
      "url": "https://haz-map.com/Agents/1137",
      "category": "agents"
    },
    {
      "type": "name_match",
      "text": "mercuric chloride",
      "confidence": 1.0,
      "uuid": "5a395132-2920-46ad-a416-5209d0d82efe",
      "name": "Mercuric chloride",
      "url": "https://haz-map.com/Agents/1529",
      "category": "agents"
    },
    {
      "type": "name_match",
      "text": "phenylmercuric chloride",
      "confidence": 1.0,
      "uuid": "65a13153-c084-419d-beae-50ab8b07b2ba",
      "name": "Phenylmercuric chloride",
      "url": "https://haz-map.com/Agents/6654",
      "category": "agents"
    },
    {
      "type": "name_match",
      "text": "o-hydroxyphenylmercuric chloride",
      "confidence": 1.0,
      "uuid": "0d17fbb6-8465-48fa-9bfd-9c00acf4cae3",
      "name": "o-Hydroxyphenylmercuric chloride",
      "url": "https://haz-map.com/Agents/21389",
      "category": "agents"
    },
    {
      "type": "fuzzy_match",
      "text": "organic compounds",
      "matched_name": "Tin, organic compounds",
      "confidence": 0.8196969696969697,
      "uuid": "e027d413-8869-4308-9eb2-27d768b011ea",
      "category": "agents",
      "url": "https://haz-map.com/Agents/656"
    }
  ],
  "all_links": [
    {
      "text": "Search PubMed",
      "url": "https://www.ncbi.nlm.nih.gov/pubmed?term=o-Hydroxyphenylmercuric+chloride%20AND%20human%5Bmh%5D%20AND%20%28Occupational%20Diseases%20%5Bmh%5D%20OR%20Occupational%20Exposure%20%5Bmh%5D%29%20%20AND%20%28tox%5Bsb%5D%29&cmd=search"
    }
  ]
}