{
  "metadata": {
    "scraped_from": "https://haz-map.com/Agents/5262",
    "entity_name": "Etocrylene",
    "category": "agents",
    "uuid": "0d7d6cdf-1720-4cd8-b620-689f17275f3b",
    "scraped_at": "2025-07-23T19:50:44.874170"
  },
  "parsed_at": "2025-07-24T00:52:16.575604",
  "title": "Etocrylene",
  "sections": {
    "general": {
      "agent_name": {
        "original_name": "Agent Name",
        "value": "Etocrylene",
        "links": [],
        "cross_references": [
          {
            "type": "name_match",
            "text": "etocrylene",
            "confidence": 1.0,
            "uuid": "0d7d6cdf-1720-4cd8-b620-689f17275f3b",
            "name": "Etocrylene",
            "url": "https://haz-map.com/Agents/5262",
            "category": "agents"
          }
        ]
      },
      "cas_number": {
        "original_name": "CAS Number",
        "value": "5232-99-5",
        "links": [],
        "cross_references": []
      },
      "formula": {
        "original_name": "Formula",
        "value": "C18-H15-N-O2",
        "links": [],
        "cross_references": []
      },
      "major_category": {
        "original_name": "Major Category",
        "value": "Other Uses",
        "links": [],
        "cross_references": []
      },
      "synonyms": {
        "original_name": "Synonyms",
        "value": "2-Propenoic acid, 2-cyano-3,3-diphenyl-, ethyl ester; CE 2; Ethyl (diphenylmethylene)cyanoacetate; Ethyl 2-cyano-3,3-diphenyl-2-propenoate; Ethyl 2-cyano-3,3-diphenylacrylate; Ethyl alpha-cyano-beta,beta-diphenylacrylate; Etocrileno [INN-Spanish]; Etocrilenum [INN-Latin]; UV Absorber-2; Uvinul N 35; alpha-Cyano-beta-phenylcinnamic acid, ethyl ester; [ChemIDplus]",
        "links": [],
        "cross_references": [
          {
            "type": "name_match",
            "text": "ethylene",
            "confidence": 1.0,
            "uuid": "958eacc0-5135-4b62-bb93-6df972bf552f",
            "name": "Ethylene",
            "url": "https://haz-map.com/Agents/1076",
            "category": "agents"
          },
          {
            "type": "name_match",
            "text": "cinnamic acid",
            "confidence": 1.0,
            "uuid": "36c7cc13-9a22-4833-a693-400904298b8e",
            "name": "Cinnamic acid",
            "url": "https://haz-map.com/Agents/13034",
            "category": "agents"
          }
        ]
      },
      "category": {
        "original_name": "Category",
        "value": "Sunscreens",
        "links": [],
        "cross_references": [
          {
            "type": "name_match",
            "text": "sunscreens",
            "confidence": 1.0,
            "uuid": "7527d0ea-c1e0-4597-897e-e7f8794ae03b",
            "name": "SUNSCREENS",
            "url": "https://haz-map.com/Agents/1167",
            "category": "agents"
          }
        ]
      },
      "description": {
        "original_name": "Description",
        "value": "Solid; [HSDB] White odorless powder; [MSDSonline]",
        "links": [],
        "cross_references": []
      },
      "sourcesuses": {
        "original_name": "Sources/Uses",
        "value": "Ultraviolet screen; [ChemIDplus]",
        "links": [],
        "cross_references": []
      },
      "comments": {
        "original_name": "Comments",
        "value": "An irritant; May cause skin sensitization; [Aldrich MSDS]",
        "links": [],
        "cross_references": []
      },
      "biomedical_references": {
        "original_name": "Biomedical References",
        "value": "Search PubMed",
        "links": [
          {
            "text": "Search PubMed",
            "url": "https://www.ncbi.nlm.nih.gov/pubmed?term=Etocrylene%20AND%20human%5Bmh%5D%20AND%20%28Occupational%20Diseases%20%5Bmh%5D%20OR%20Occupational%20Exposure%20%5Bmh%5D%29%20%20AND%20%28tox%5Bsb%5D%29&cmd=search"
          }
        ],
        "cross_references": []
      }
    },
    "exposure_assessment": {
      "vapor_pressure": {
        "original_name": "Vapor Pressure",
        "value": "3.6E-07 mm Hg",
        "links": [],
        "cross_references": []
      }
    },
    "diseases_processes_and_activities_linked_to_this_agent": {
      "other_information": {
        "original_name": "Other Information",
        "value": "No other related information on this agent was found.",
        "links": [],
        "cross_references": []
      }
    }
  },
  "cross_references": [
    {
      "type": "name_match",
      "text": "ethylene",
      "confidence": 1.0,
      "uuid": "958eacc0-5135-4b62-bb93-6df972bf552f",
      "name": "Ethylene",
      "url": "https://haz-map.com/Agents/1076",
      "category": "agents"
    },
    {
      "type": "name_match",
      "text": "sunscreens",
      "confidence": 1.0,
      "uuid": "7527d0ea-c1e0-4597-897e-e7f8794ae03b",
      "name": "SUNSCREENS",
      "url": "https://haz-map.com/Agents/1167",
      "category": "agents"
    },
    {
      "type": "name_match",
      "text": "etocrylene",
      "confidence": 1.0,
      "uuid": "0d7d6cdf-1720-4cd8-b620-689f17275f3b",
      "name": "Etocrylene",
      "url": "https://haz-map.com/Agents/5262",
      "category": "agents"
    },
    {
      "type": "name_match",
      "text": "cinnamic acid",
      "confidence": 1.0,
      "uuid": "36c7cc13-9a22-4833-a693-400904298b8e",
      "name": "Cinnamic acid",
      "url": "https://haz-map.com/Agents/13034",
      "category": "agents"
    }
  ],
  "all_links": [
    {
      "text": "Search PubMed",
      "url": "https://www.ncbi.nlm.nih.gov/pubmed?term=Etocrylene%20AND%20human%5Bmh%5D%20AND%20%28Occupational%20Diseases%20%5Bmh%5D%20OR%20Occupational%20Exposure%20%5Bmh%5D%29%20%20AND%20%28tox%5Bsb%5D%29&cmd=search"
    }
  ]
}