{
  "metadata": {
    "scraped_from": "https://haz-map.com/Agents/3432",
    "entity_name": "(Acetyloxy)acetonitrile",
    "category": "agents",
    "uuid": "0d906706-08fe-441c-83df-bed9024dd416",
    "scraped_at": "2025-07-23T19:29:01.740894"
  },
  "parsed_at": "2025-07-24T01:09:45.771591",
  "title": "(Acetyloxy)acetonitrile",
  "sections": {
    "general": {
      "agent_name": {
        "original_name": "Agent Name",
        "value": "(Acetyloxy)acetonitrile",
        "links": [],
        "cross_references": [
          {
            "type": "name_match",
            "text": "acetonitrile",
            "confidence": 1.0,
            "uuid": "84f1210b-94c6-4b35-8215-ba63f2fe4c64",
            "name": "Acetonitrile",
            "url": "https://haz-map.com/Agents/159",
            "category": "agents"
          },
          {
            "type": "name_match",
            "text": "(acetyloxy)acetonitrile",
            "confidence": 1.0,
            "uuid": "0d906706-08fe-441c-83df-bed9024dd416",
            "name": "(Acetyloxy)acetonitrile",
            "url": "https://haz-map.com/Agents/3432",
            "category": "agents"
          }
        ]
      },
      "cas_number": {
        "original_name": "CAS Number",
        "value": "1001-55-4",
        "links": [],
        "cross_references": []
      },
      "formula": {
        "original_name": "Formula",
        "value": "C4-H5-N-O2",
        "links": [],
        "cross_references": []
      },
      "major_category": {
        "original_name": "Major Category",
        "value": "Nitrogen Compounds",
        "links": [],
        "cross_references": [
          {
            "type": "name_match",
            "text": "nitrogen",
            "confidence": 1.0,
            "uuid": "db5e90a9-06d2-45b9-8b81-f345a89b0bc0",
            "name": "Nitrogen",
            "url": "https://haz-map.com/Agents/1072",
            "category": "agents"
          }
        ]
      },
      "synonyms": {
        "original_name": "Synonyms",
        "value": "2-Acetoxyacetonitrile; Acetic acid cyanomethyl ester; Acetonitrile, (acetyloxy)-; Acetoxyacetonitrile; Acetyloxyacetonitrile; Cyanomethyl acetate; Glycolonitrile, acetate; Glycolonitrile, acetate (ester); Kyanmethylester kyseliny octove [Czech]; [ChemIDplus]",
        "links": [],
        "cross_references": [
          {
            "type": "name_match",
            "text": "acetonitrile",
            "confidence": 1.0,
            "uuid": "84f1210b-94c6-4b35-8215-ba63f2fe4c64",
            "name": "Acetonitrile",
            "url": "https://haz-map.com/Agents/159",
            "category": "agents"
          },
          {
            "type": "name_match",
            "text": "glycolonitrile",
            "confidence": 1.0,
            "uuid": "b37e9f78-abba-4410-8d41-5eb9444c5be1",
            "name": "Glycolonitrile",
            "url": "https://haz-map.com/Agents/162",
            "category": "agents"
          },
          {
            "type": "name_match",
            "text": "acetic acid",
            "confidence": 1.0,
            "uuid": "0905c6e4-df84-4895-a92d-658819239bbd",
            "name": "Acetic acid",
            "url": "https://haz-map.com/Agents/207",
            "category": "agents"
          },
          {
            "type": "name_match",
            "text": "methyl acetate",
            "confidence": 1.0,
            "uuid": "f2a7b2a2-ae53-479d-a6d7-3d6afb31799f",
            "name": "Methyl acetate",
            "url": "https://haz-map.com/Agents/546",
            "category": "agents"
          },
          {
            "type": "name_match",
            "text": "ethyl acetate",
            "confidence": 1.0,
            "uuid": "ed41957a-17a2-415b-87b5-5893e3fa08ad",
            "name": "Ethyl acetate",
            "url": "https://haz-map.com/Agents/721",
            "category": "agents"
          }
        ]
      },
      "category": {
        "original_name": "Category",
        "value": "Nitriles",
        "links": [],
        "cross_references": [
          {
            "type": "name_match",
            "text": "nitriles",
            "confidence": 1.0,
            "uuid": "41430895-c07a-4421-888b-3d7122a4cd55",
            "name": "NITRILES",
            "url": "https://haz-map.com/Agents/715",
            "category": "agents"
          }
        ]
      },
      "sourcesuses": {
        "original_name": "Sources/Uses",
        "value": "Used as an intermediate in the production of pharmaceuticals and as a component of synthetic resins; [HSDB]",
        "links": [],
        "cross_references": [
          {
            "type": "name_match",
            "text": "pharmaceuticals",
            "confidence": 1.0,
            "uuid": "713c3c30-b67e-4a2f-a90f-b32f8a306332",
            "name": "PHARMACEUTICALS",
            "url": "https://haz-map.com/Agents/1000",
            "category": "agents"
          }
        ]
      },
      "comments": {
        "original_name": "Comments",
        "value": "Highly toxic by all routes; Emergency treatment: \"Acetonitrile\"; Acetonitrile can cause delayed onset (2-13 hours) cyanide poisoning; [HSDB] See \"NITRILES.\"",
        "links": [],
        "cross_references": [
          {
            "type": "name_match",
            "text": "acetonitrile",
            "confidence": 1.0,
            "uuid": "84f1210b-94c6-4b35-8215-ba63f2fe4c64",
            "name": "Acetonitrile",
            "url": "https://haz-map.com/Agents/159",
            "category": "agents"
          },
          {
            "type": "name_match",
            "text": "nitriles",
            "confidence": 1.0,
            "uuid": "41430895-c07a-4421-888b-3d7122a4cd55",
            "name": "NITRILES",
            "url": "https://haz-map.com/Agents/715",
            "category": "agents"
          },
          {
            "type": "name_match",
            "text": "cyanide",
            "confidence": 1.0,
            "uuid": "0b4d38ba-cc5c-4386-8079-9e7ff8fb2d3a",
            "name": "Cyanide",
            "url": "https://haz-map.com/Agents/13350",
            "category": "agents"
          }
        ]
      },
      "biomedical_references": {
        "original_name": "Biomedical References",
        "value": "Search PubMed",
        "links": [
          {
            "text": "Search PubMed",
            "url": "https://www.ncbi.nlm.nih.gov/pubmed?term=(Acetyloxy)acetonitrile%20AND%20human%5Bmh%5D%20AND%20%28Occupational%20Diseases%20%5Bmh%5D%20OR%20Occupational%20Exposure%20%5Bmh%5D%29%20%20AND%20%28tox%5Bsb%5D%29&cmd=search"
          }
        ],
        "cross_references": []
      }
    },
    "exposure_assessment": {
      "vapor_pressure": {
        "original_name": "Vapor Pressure",
        "value": "0.361 mm Hg",
        "links": [],
        "cross_references": []
      },
      "lethal_concentration": {
        "original_name": "Lethal Concentration",
        "value": "LCLo (rat) = 16 ppm/4h",
        "links": [],
        "cross_references": []
      },
      "explanatory_notes": {
        "original_name": "Explanatory Notes",
        "value": "VP from ChemIDplus;",
        "links": [],
        "cross_references": []
      }
    },
    "adverse_effects": {
      "other_poison": {
        "original_name": "Other Poison",
        "value": "Chemical Asphyxiant",
        "links": [],
        "cross_references": [
          {
            "type": "name_match",
            "text": "mica",
            "confidence": 1.0,
            "uuid": "433f26f1-c399-4596-b179-ce3843cfd465",
            "name": "Mica",
            "url": "https://haz-map.com/Agents/621",
            "category": "agents"
          }
        ]
      }
    },
    "diseases_processes_and_activities_linked_to_this_agent": {
      "diseases": {
        "original_name": "Diseases",
        "value": "Occupational diseases associated with exposure to this agent: Asphyxiation, chemical",
        "links": [
          {
            "text": "Asphyxiation, chemical",
            "url": "https://haz-map.com/Diseases/351"
          }
        ],
        "cross_references": [
          {
            "type": "url_match",
            "text": "Asphyxiation, chemical",
            "url": "https://haz-map.com/Diseases/351",
            "confidence": 1.0,
            "uuid": "78d8c6de-b137-4149-8098-0b7e8b092753",
            "name": "Asphyxiation, chemical",
            "category": "diseases"
          },
          {
            "type": "name_match",
            "text": "mica",
            "confidence": 1.0,
            "uuid": "433f26f1-c399-4596-b179-ce3843cfd465",
            "name": "Mica",
            "url": "https://haz-map.com/Agents/621",
            "category": "agents"
          }
        ]
      }
    }
  },
  "cross_references": [
    {
      "type": "url_match",
      "text": "Asphyxiation, chemical",
      "url": "https://haz-map.com/Diseases/351",
      "confidence": 1.0,
      "uuid": "78d8c6de-b137-4149-8098-0b7e8b092753",
      "name": "Asphyxiation, chemical",
      "category": "diseases"
    },
    {
      "type": "name_match",
      "text": "acetonitrile",
      "confidence": 1.0,
      "uuid": "84f1210b-94c6-4b35-8215-ba63f2fe4c64",
      "name": "Acetonitrile",
      "url": "https://haz-map.com/Agents/159",
      "category": "agents"
    },
    {
      "type": "name_match",
      "text": "glycolonitrile",
      "confidence": 1.0,
      "uuid": "b37e9f78-abba-4410-8d41-5eb9444c5be1",
      "name": "Glycolonitrile",
      "url": "https://haz-map.com/Agents/162",
      "category": "agents"
    },
    {
      "type": "name_match",
      "text": "acetic acid",
      "confidence": 1.0,
      "uuid": "0905c6e4-df84-4895-a92d-658819239bbd",
      "name": "Acetic acid",
      "url": "https://haz-map.com/Agents/207",
      "category": "agents"
    },
    {
      "type": "name_match",
      "text": "methyl acetate",
      "confidence": 1.0,
      "uuid": "f2a7b2a2-ae53-479d-a6d7-3d6afb31799f",
      "name": "Methyl acetate",
      "url": "https://haz-map.com/Agents/546",
      "category": "agents"
    },
    {
      "type": "name_match",
      "text": "mica",
      "confidence": 1.0,
      "uuid": "433f26f1-c399-4596-b179-ce3843cfd465",
      "name": "Mica",
      "url": "https://haz-map.com/Agents/621",
      "category": "agents"
    },
    {
      "type": "name_match",
      "text": "nitriles",
      "confidence": 1.0,
      "uuid": "41430895-c07a-4421-888b-3d7122a4cd55",
      "name": "NITRILES",
      "url": "https://haz-map.com/Agents/715",
      "category": "agents"
    },
    {
      "type": "name_match",
      "text": "ethyl acetate",
      "confidence": 1.0,
      "uuid": "ed41957a-17a2-415b-87b5-5893e3fa08ad",
      "name": "Ethyl acetate",
      "url": "https://haz-map.com/Agents/721",
      "category": "agents"
    },
    {
      "type": "name_match",
      "text": "pharmaceuticals",
      "confidence": 1.0,
      "uuid": "713c3c30-b67e-4a2f-a90f-b32f8a306332",
      "name": "PHARMACEUTICALS",
      "url": "https://haz-map.com/Agents/1000",
      "category": "agents"
    },
    {
      "type": "name_match",
      "text": "nitrogen",
      "confidence": 1.0,
      "uuid": "db5e90a9-06d2-45b9-8b81-f345a89b0bc0",
      "name": "Nitrogen",
      "url": "https://haz-map.com/Agents/1072",
      "category": "agents"
    },
    {
      "type": "name_match",
      "text": "(acetyloxy)acetonitrile",
      "confidence": 1.0,
      "uuid": "0d906706-08fe-441c-83df-bed9024dd416",
      "name": "(Acetyloxy)acetonitrile",
      "url": "https://haz-map.com/Agents/3432",
      "category": "agents"
    },
    {
      "type": "name_match",
      "text": "cyanide",
      "confidence": 1.0,
      "uuid": "0b4d38ba-cc5c-4386-8079-9e7ff8fb2d3a",
      "name": "Cyanide",
      "url": "https://haz-map.com/Agents/13350",
      "category": "agents"
    }
  ],
  "all_links": [
    {
      "text": "Search PubMed",
      "url": "https://www.ncbi.nlm.nih.gov/pubmed?term=(Acetyloxy)acetonitrile%20AND%20human%5Bmh%5D%20AND%20%28Occupational%20Diseases%20%5Bmh%5D%20OR%20Occupational%20Exposure%20%5Bmh%5D%29%20%20AND%20%28tox%5Bsb%5D%29&cmd=search"
    },
    {
      "text": "Asphyxiation, chemical",
      "url": "https://haz-map.com/Diseases/351"
    }
  ]
}