{
  "metadata": {
    "scraped_from": "https://haz-map.com/Agents/6571",
    "entity_name": "Pentadecylbenzene",
    "category": "agents",
    "uuid": "0daf4cbb-17aa-4a15-9716-14aff3306bd4",
    "scraped_at": "2025-07-23T20:03:14.652718"
  },
  "parsed_at": "2025-07-24T00:51:33.892587",
  "title": "Pentadecylbenzene",
  "sections": {
    "general": {
      "agent_name": {
        "original_name": "Agent Name",
        "value": "Pentadecylbenzene",
        "links": [],
        "cross_references": [
          {
            "type": "name_match",
            "text": "benzene",
            "confidence": 1.0,
            "uuid": "b05124de-5f34-4c14-8f04-ccb20c3780d9",
            "name": "Benzene",
            "url": "https://haz-map.com/Agents/5",
            "category": "agents"
          },
          {
            "type": "name_match",
            "text": "decylbenzene",
            "confidence": 1.0,
            "uuid": "1502f3a9-9676-4452-8457-99a2b0057594",
            "name": "Decylbenzene",
            "url": "https://haz-map.com/Agents/4670",
            "category": "agents"
          },
          {
            "type": "name_match",
            "text": "pentadecylbenzene",
            "confidence": 1.0,
            "uuid": "0daf4cbb-17aa-4a15-9716-14aff3306bd4",
            "name": "Pentadecylbenzene",
            "url": "https://haz-map.com/Agents/6571",
            "category": "agents"
          }
        ]
      },
      "cas_number": {
        "original_name": "CAS Number",
        "value": "2131-18-2",
        "links": [],
        "cross_references": []
      },
      "formula": {
        "original_name": "Formula",
        "value": "C21-H36",
        "links": [],
        "cross_references": []
      },
      "major_category": {
        "original_name": "Major Category",
        "value": "Other Classes",
        "links": [],
        "cross_references": []
      },
      "synonyms": {
        "original_name": "Synonyms",
        "value": "1-Phenylpentadecane; Benzene, pentadecyl-; Pentadecane, 1-phenyl-; n-Pentadecylbenzene; [ChemIDplus]",
        "links": [],
        "cross_references": [
          {
            "type": "name_match",
            "text": "benzene",
            "confidence": 1.0,
            "uuid": "b05124de-5f34-4c14-8f04-ccb20c3780d9",
            "name": "Benzene",
            "url": "https://haz-map.com/Agents/5",
            "category": "agents"
          },
          {
            "type": "name_match",
            "text": "pentadecane",
            "confidence": 1.0,
            "uuid": "c94bad99-ad05-4452-a705-4d5deee091ba",
            "name": "Pentadecane",
            "url": "https://haz-map.com/Agents/1786",
            "category": "agents"
          },
          {
            "type": "name_match",
            "text": "decylbenzene",
            "confidence": 1.0,
            "uuid": "1502f3a9-9676-4452-8457-99a2b0057594",
            "name": "Decylbenzene",
            "url": "https://haz-map.com/Agents/4670",
            "category": "agents"
          },
          {
            "type": "name_match",
            "text": "pentadecylbenzene",
            "confidence": 1.0,
            "uuid": "0daf4cbb-17aa-4a15-9716-14aff3306bd4",
            "name": "Pentadecylbenzene",
            "url": "https://haz-map.com/Agents/6571",
            "category": "agents"
          }
        ]
      },
      "category": {
        "original_name": "Category",
        "value": "Aromatic Hydrocarbons",
        "links": [],
        "cross_references": [
          {
            "type": "name_match",
            "text": "carbon",
            "confidence": 1.0,
            "uuid": "b53f8815-ee80-40ef-b4aa-3b000e17dab5",
            "name": "Carbon",
            "url": "https://haz-map.com/Agents/1891",
            "category": "agents"
          },
          {
            "type": "fuzzy_match",
            "text": "aromatic hydrocarbons",
            "matched_name": "Aromatic hydrocarbons, C9-C11",
            "confidence": 0.7509578544061303,
            "uuid": "1e86d79b-784d-40c4-8412-39a4432a7a75",
            "category": "agents",
            "url": "https://haz-map.com/Agents/20258"
          },
          {
            "type": "fuzzy_match",
            "text": "hydrocarbons",
            "matched_name": "Hydrocarbons, C>3",
            "confidence": 0.7100840336134454,
            "uuid": "8eaa37ac-3931-44e4-9242-2734127fd661",
            "category": "agents",
            "url": "https://haz-map.com/Agents/14795"
          }
        ]
      },
      "description": {
        "original_name": "Description",
        "value": "mp = 22 deg C; [HSDB] Liquid; [MSDSonline]",
        "links": [],
        "cross_references": []
      },
      "sourcesuses": {
        "original_name": "Sources/Uses",
        "value": "Used in detergent alkylates; [HSDB]",
        "links": [],
        "cross_references": []
      },
      "comments": {
        "original_name": "Comments",
        "value": "An irritant; [MSDSonline]",
        "links": [],
        "cross_references": []
      },
      "biomedical_references": {
        "original_name": "Biomedical References",
        "value": "Search PubMed",
        "links": [
          {
            "text": "Search PubMed",
            "url": "https://www.ncbi.nlm.nih.gov/pubmed?term=Pentadecylbenzene%20AND%20human%5Bmh%5D%20AND%20%28Occupational%20Diseases%20%5Bmh%5D%20OR%20Occupational%20Exposure%20%5Bmh%5D%29%20%20AND%20%28tox%5Bsb%5D%29&cmd=search"
          }
        ],
        "cross_references": []
      }
    },
    "exposure_assessment": {
      "vapor_pressure": {
        "original_name": "Vapor Pressure",
        "value": "7.2E-06 mm Hg",
        "links": [],
        "cross_references": []
      }
    },
    "diseases_processes_and_activities_linked_to_this_agent": {
      "other_information": {
        "original_name": "Other Information",
        "value": "No other related information on this agent was found.",
        "links": [],
        "cross_references": []
      }
    }
  },
  "cross_references": [
    {
      "type": "name_match",
      "text": "benzene",
      "confidence": 1.0,
      "uuid": "b05124de-5f34-4c14-8f04-ccb20c3780d9",
      "name": "Benzene",
      "url": "https://haz-map.com/Agents/5",
      "category": "agents"
    },
    {
      "type": "name_match",
      "text": "pentadecane",
      "confidence": 1.0,
      "uuid": "c94bad99-ad05-4452-a705-4d5deee091ba",
      "name": "Pentadecane",
      "url": "https://haz-map.com/Agents/1786",
      "category": "agents"
    },
    {
      "type": "name_match",
      "text": "carbon",
      "confidence": 1.0,
      "uuid": "b53f8815-ee80-40ef-b4aa-3b000e17dab5",
      "name": "Carbon",
      "url": "https://haz-map.com/Agents/1891",
      "category": "agents"
    },
    {
      "type": "name_match",
      "text": "decylbenzene",
      "confidence": 1.0,
      "uuid": "1502f3a9-9676-4452-8457-99a2b0057594",
      "name": "Decylbenzene",
      "url": "https://haz-map.com/Agents/4670",
      "category": "agents"
    },
    {
      "type": "name_match",
      "text": "pentadecylbenzene",
      "confidence": 1.0,
      "uuid": "0daf4cbb-17aa-4a15-9716-14aff3306bd4",
      "name": "Pentadecylbenzene",
      "url": "https://haz-map.com/Agents/6571",
      "category": "agents"
    },
    {
      "type": "fuzzy_match",
      "text": "aromatic hydrocarbons",
      "matched_name": "Aromatic hydrocarbons, C9-C11",
      "confidence": 0.7509578544061303,
      "uuid": "1e86d79b-784d-40c4-8412-39a4432a7a75",
      "category": "agents",
      "url": "https://haz-map.com/Agents/20258"
    },
    {
      "type": "fuzzy_match",
      "text": "hydrocarbons",
      "matched_name": "Hydrocarbons, C>3",
      "confidence": 0.7100840336134454,
      "uuid": "8eaa37ac-3931-44e4-9242-2734127fd661",
      "category": "agents",
      "url": "https://haz-map.com/Agents/14795"
    }
  ],
  "all_links": [
    {
      "text": "Search PubMed",
      "url": "https://www.ncbi.nlm.nih.gov/pubmed?term=Pentadecylbenzene%20AND%20human%5Bmh%5D%20AND%20%28Occupational%20Diseases%20%5Bmh%5D%20OR%20Occupational%20Exposure%20%5Bmh%5D%29%20%20AND%20%28tox%5Bsb%5D%29&cmd=search"
    }
  ]
}