{
  "metadata": {
    "scraped_from": "https://haz-map.com/Agents/9967",
    "entity_name": "2,8-Dichlorodibenzofuran",
    "category": "agents",
    "uuid": "0e155d59-90b6-4ce5-9287-249d2cdf29f8",
    "scraped_at": "2025-07-23T20:43:29.816596"
  },
  "parsed_at": "2025-07-24T01:01:37.317163",
  "title": "2,8-Dichlorodibenzofuran",
  "sections": {
    "general": {
      "agent_name": {
        "original_name": "Agent Name",
        "value": "2,8-Dichlorodibenzofuran",
        "links": [],
        "cross_references": [
          {
            "type": "name_match",
            "text": "furan",
            "confidence": 1.0,
            "uuid": "96da3d2e-f46b-4100-9000-704d1a86985b",
            "name": "Furan",
            "url": "https://haz-map.com/Agents/1477",
            "category": "agents"
          },
          {
            "type": "name_match",
            "text": "benzofuran",
            "confidence": 1.0,
            "uuid": "433f9324-e799-4045-b9dc-d8468b9b9b05",
            "name": "Benzofuran",
            "url": "https://haz-map.com/Agents/3855",
            "category": "agents"
          },
          {
            "type": "name_match",
            "text": "dibenzofuran",
            "confidence": 1.0,
            "uuid": "1d3e7279-5130-4180-a1f4-aab842b5b78f",
            "name": "Dibenzofuran",
            "url": "https://haz-map.com/Agents/4736",
            "category": "agents"
          },
          {
            "type": "name_match",
            "text": "2,8-dichlorodibenzofuran",
            "confidence": 1.0,
            "uuid": "0e155d59-90b6-4ce5-9287-249d2cdf29f8",
            "name": "2,8-Dichlorodibenzofuran",
            "url": "https://haz-map.com/Agents/9967",
            "category": "agents"
          }
        ]
      },
      "cas_number": {
        "original_name": "CAS Number",
        "value": "5409-83-6",
        "links": [],
        "cross_references": []
      },
      "formula": {
        "original_name": "Formula",
        "value": "C12-H6-Cl2-O",
        "links": [],
        "cross_references": []
      },
      "major_category": {
        "original_name": "Major Category",
        "value": "Other Classes",
        "links": [],
        "cross_references": []
      },
      "synonyms": {
        "original_name": "Synonyms",
        "value": "Dibenzofuran, 2,8-dichloro-; [ChemIDplus]",
        "links": [],
        "cross_references": [
          {
            "type": "name_match",
            "text": "furan",
            "confidence": 1.0,
            "uuid": "96da3d2e-f46b-4100-9000-704d1a86985b",
            "name": "Furan",
            "url": "https://haz-map.com/Agents/1477",
            "category": "agents"
          },
          {
            "type": "name_match",
            "text": "benzofuran",
            "confidence": 1.0,
            "uuid": "433f9324-e799-4045-b9dc-d8468b9b9b05",
            "name": "Benzofuran",
            "url": "https://haz-map.com/Agents/3855",
            "category": "agents"
          },
          {
            "type": "name_match",
            "text": "dibenzofuran",
            "confidence": 1.0,
            "uuid": "1d3e7279-5130-4180-a1f4-aab842b5b78f",
            "name": "Dibenzofuran",
            "url": "https://haz-map.com/Agents/4736",
            "category": "agents"
          }
        ]
      },
      "category": {
        "original_name": "Category",
        "value": "Halogenated Polyaromatics",
        "links": [],
        "cross_references": []
      },
      "description": {
        "original_name": "Description",
        "value": "Solid; [Aldrich MSDS]",
        "links": [],
        "cross_references": []
      },
      "comments": {
        "original_name": "Comments",
        "value": "May cause irritation; Harmful by ingestion; [Aldrich MSDS] See \"CHLORINATED DIBENZOFURANS.\"",
        "links": [],
        "cross_references": [
          {
            "type": "name_match",
            "text": "chlorinated dibenzofurans",
            "confidence": 1.0,
            "uuid": "022217dc-56c4-4e97-8391-69b29661b179",
            "name": "CHLORINATED DIBENZOFURANS",
            "url": "https://haz-map.com/Agents/60",
            "category": "agents"
          },
          {
            "type": "name_match",
            "text": "furan",
            "confidence": 1.0,
            "uuid": "96da3d2e-f46b-4100-9000-704d1a86985b",
            "name": "Furan",
            "url": "https://haz-map.com/Agents/1477",
            "category": "agents"
          },
          {
            "type": "name_match",
            "text": "benzofuran",
            "confidence": 1.0,
            "uuid": "433f9324-e799-4045-b9dc-d8468b9b9b05",
            "name": "Benzofuran",
            "url": "https://haz-map.com/Agents/3855",
            "category": "agents"
          },
          {
            "type": "name_match",
            "text": "dibenzofuran",
            "confidence": 1.0,
            "uuid": "1d3e7279-5130-4180-a1f4-aab842b5b78f",
            "name": "Dibenzofuran",
            "url": "https://haz-map.com/Agents/4736",
            "category": "agents"
          },
          {
            "type": "name_match",
            "text": "chlorin",
            "confidence": 1.0,
            "uuid": "4a566fec-ec7e-42b0-9f14-ec586335e694",
            "name": "Chlorin",
            "url": "https://haz-map.com/Agents/20422",
            "category": "agents"
          }
        ]
      },
      "biomedical_references": {
        "original_name": "Biomedical References",
        "value": "Search PubMed",
        "links": [
          {
            "text": "Search PubMed",
            "url": "https://www.ncbi.nlm.nih.gov/pubmed?term=2%2c8-Dichlorodibenzofuran%20AND%20human%5Bmh%5D%20AND%20%28Occupational%20Diseases%20%5Bmh%5D%20OR%20Occupational%20Exposure%20%5Bmh%5D%29%20%20AND%20%28tox%5Bsb%5D%29&cmd=search"
          }
        ],
        "cross_references": []
      }
    },
    "exposure_assessment": {
      "vapor_pressure": {
        "original_name": "Vapor Pressure",
        "value": "2.54E-05 mm Hg",
        "links": [],
        "cross_references": []
      }
    },
    "adverse_effects": {
      "hepatotoxin": {
        "original_name": "Hepatotoxin",
        "value": "Hepatoxic (a) from occupational exposure (secondary effect) or (b) in animal studies or in humans after ingestion",
        "links": [],
        "cross_references": []
      },
      "reproductive_toxin": {
        "original_name": "Reproductive Toxin",
        "value": "Yes",
        "links": [],
        "cross_references": []
      },
      "dermatotoxin": {
        "original_name": "Dermatotoxin",
        "value": "Chloracne",
        "links": [],
        "cross_references": [
          {
            "type": "name_match",
            "text": "chloracne",
            "confidence": 1.0,
            "uuid": "5bb01810-1c34-450f-986e-26a644748ce8",
            "name": "Chloracne",
            "url": "https://haz-map.com/Diseases/215",
            "category": "diseases"
          },
          {
            "type": "name_match",
            "text": "acne",
            "confidence": 1.0,
            "uuid": "f329eccb-9e30-4782-83cb-36dfe9817bbf",
            "name": "acne",
            "url": "https://haz-map.com/Findings/133",
            "category": "findings"
          }
        ]
      }
    },
    "diseases_processes_and_activities_linked_to_this_agent": {
      "diseases": {
        "original_name": "Diseases",
        "value": "Occupational diseases associated with exposure to this agent: Chloracne",
        "links": [
          {
            "text": "Chloracne",
            "url": "https://haz-map.com/Diseases/215"
          }
        ],
        "cross_references": [
          {
            "type": "url_match",
            "text": "Chloracne",
            "url": "https://haz-map.com/Diseases/215",
            "confidence": 1.0,
            "uuid": "5bb01810-1c34-450f-986e-26a644748ce8",
            "name": "Chloracne",
            "category": "diseases"
          },
          {
            "type": "name_match",
            "text": "acne",
            "confidence": 1.0,
            "uuid": "f329eccb-9e30-4782-83cb-36dfe9817bbf",
            "name": "acne",
            "url": "https://haz-map.com/Findings/133",
            "category": "findings"
          }
        ]
      }
    }
  },
  "cross_references": [
    {
      "type": "url_match",
      "text": "Chloracne",
      "url": "https://haz-map.com/Diseases/215",
      "confidence": 1.0,
      "uuid": "5bb01810-1c34-450f-986e-26a644748ce8",
      "name": "Chloracne",
      "category": "diseases"
    },
    {
      "type": "name_match",
      "text": "acne",
      "confidence": 1.0,
      "uuid": "f329eccb-9e30-4782-83cb-36dfe9817bbf",
      "name": "acne",
      "url": "https://haz-map.com/Findings/133",
      "category": "findings"
    },
    {
      "type": "name_match",
      "text": "chlorinated dibenzofurans",
      "confidence": 1.0,
      "uuid": "022217dc-56c4-4e97-8391-69b29661b179",
      "name": "CHLORINATED DIBENZOFURANS",
      "url": "https://haz-map.com/Agents/60",
      "category": "agents"
    },
    {
      "type": "name_match",
      "text": "furan",
      "confidence": 1.0,
      "uuid": "96da3d2e-f46b-4100-9000-704d1a86985b",
      "name": "Furan",
      "url": "https://haz-map.com/Agents/1477",
      "category": "agents"
    },
    {
      "type": "name_match",
      "text": "benzofuran",
      "confidence": 1.0,
      "uuid": "433f9324-e799-4045-b9dc-d8468b9b9b05",
      "name": "Benzofuran",
      "url": "https://haz-map.com/Agents/3855",
      "category": "agents"
    },
    {
      "type": "name_match",
      "text": "dibenzofuran",
      "confidence": 1.0,
      "uuid": "1d3e7279-5130-4180-a1f4-aab842b5b78f",
      "name": "Dibenzofuran",
      "url": "https://haz-map.com/Agents/4736",
      "category": "agents"
    },
    {
      "type": "name_match",
      "text": "2,8-dichlorodibenzofuran",
      "confidence": 1.0,
      "uuid": "0e155d59-90b6-4ce5-9287-249d2cdf29f8",
      "name": "2,8-Dichlorodibenzofuran",
      "url": "https://haz-map.com/Agents/9967",
      "category": "agents"
    },
    {
      "type": "name_match",
      "text": "chlorin",
      "confidence": 1.0,
      "uuid": "4a566fec-ec7e-42b0-9f14-ec586335e694",
      "name": "Chlorin",
      "url": "https://haz-map.com/Agents/20422",
      "category": "agents"
    }
  ],
  "all_links": [
    {
      "text": "Search PubMed",
      "url": "https://www.ncbi.nlm.nih.gov/pubmed?term=2%2c8-Dichlorodibenzofuran%20AND%20human%5Bmh%5D%20AND%20%28Occupational%20Diseases%20%5Bmh%5D%20OR%20Occupational%20Exposure%20%5Bmh%5D%29%20%20AND%20%28tox%5Bsb%5D%29&cmd=search"
    },
    {
      "text": "Chloracne",
      "url": "https://haz-map.com/Diseases/215"
    }
  ]
}