{
  "metadata": {
    "scraped_from": "https://haz-map.com/Agents/2827",
    "entity_name": "1,4-Epoxy-p-menthane",
    "category": "agents",
    "uuid": "0e17ccd8-d8c8-49ce-886f-3056027be4a4",
    "scraped_at": "2025-07-23T19:19:30.171708"
  },
  "parsed_at": "2025-07-24T00:50:34.588590",
  "title": "1,4-Epoxy-p-menthane",
  "sections": {
    "general": {
      "agent_name": {
        "original_name": "Agent Name",
        "value": "1,4-Epoxy-p-menthane",
        "links": [],
        "cross_references": [
          {
            "type": "name_match",
            "text": "1,4-epoxy-p-menthane",
            "confidence": 1.0,
            "uuid": "0e17ccd8-d8c8-49ce-886f-3056027be4a4",
            "name": "1,4-Epoxy-p-menthane",
            "url": "https://haz-map.com/Agents/2827",
            "category": "agents"
          }
        ]
      },
      "cas_number": {
        "original_name": "CAS Number",
        "value": "470-67-7",
        "links": [],
        "cross_references": []
      },
      "formula": {
        "original_name": "Formula",
        "value": "C10-H18-O",
        "links": [],
        "cross_references": []
      },
      "major_category": {
        "original_name": "Major Category",
        "value": "Other Classes",
        "links": [],
        "cross_references": []
      },
      "synonyms": {
        "original_name": "Synonyms",
        "value": "1,4-Cineol; 1,4-Cineole; 1,4-Cineole (natural); 1-Isopropyl-4-methyl-7-oxabicyclo(2.2.1)heptane; 1-Methyl-4-(1-methylethyl)-7-oxabicyclo(2.2.1)heptane; 7-Oxabicyclo(2.2.1)heptane, 1-isopropyl-4-methyl- (6CI); 7-Oxabicyclo(2.2.1)heptane, 1-methyl-4-(1-methylethyl)-; Isocineole; p-Cineole; p-Menthane, 1,4-epoxy-; [ChemIDplus] UN1993",
        "links": [],
        "cross_references": []
      },
      "category": {
        "original_name": "Category",
        "value": "Other Organic Compounds",
        "links": [],
        "cross_references": [
          {
            "type": "fuzzy_match",
            "text": "organic compounds",
            "matched_name": "Tin, organic compounds",
            "confidence": 0.8196969696969697,
            "uuid": "e027d413-8869-4308-9eb2-27d768b011ea",
            "category": "agents",
            "url": "https://haz-map.com/Agents/656"
          }
        ]
      },
      "description": {
        "original_name": "Description",
        "value": "Colorless liquid with a minty lime odor; [HSDB]",
        "links": [],
        "cross_references": []
      },
      "sourcesuses": {
        "original_name": "Sources/Uses",
        "value": "Used as a flavoring and fragrance agent; Naturally occurring in some essential oils; [HSDB]",
        "links": [],
        "cross_references": []
      },
      "comments": {
        "original_name": "Comments",
        "value": "Safe when used as a flavoring agent in food; [JECFA] 1,8-Cineole (eucalyptol) is toxic by ingestion; As little as 1 mL can cause coma and 3.5 mL can cause death; Patients may have epigastric burning, nausea, ataxia, muscle weakness, delirium, stupor, and occasionally convulsions; Recovery reported after a dose as high as 30 mL; In a series of 109 children, eucalyptus oil ingestion caused only minor CNS depression when dose was 2-3 mL; [HSDB] May cause irritation; [MSDSonline]",
        "links": [],
        "cross_references": [
          {
            "type": "name_match",
            "text": "convulsion",
            "confidence": 1.0,
            "uuid": "af2c36f8-707a-48e3-a62b-1aa07adc9b72",
            "name": "convulsion",
            "url": "https://haz-map.com/Findings/14",
            "category": "findings"
          },
          {
            "type": "name_match",
            "text": "delirium",
            "confidence": 1.0,
            "uuid": "6aac5657-d857-4ce5-97ba-3ad9dc5c4a98",
            "name": "delirium",
            "url": "https://haz-map.com/Findings/61",
            "category": "findings"
          },
          {
            "type": "name_match",
            "text": "weakness",
            "confidence": 1.0,
            "uuid": "44bfccd5-0f7a-48f7-b4eb-de9a6ef23064",
            "name": "weakness",
            "url": "https://haz-map.com/Findings/83",
            "category": "findings"
          },
          {
            "type": "name_match",
            "text": "burn",
            "confidence": 1.0,
            "uuid": "63665de5-6376-4918-8dbf-4c10c4d63837",
            "name": "burn",
            "url": "https://haz-map.com/Findings/204",
            "category": "findings"
          },
          {
            "type": "name_match",
            "text": "eucalyptol",
            "confidence": 1.0,
            "uuid": "14bd4120-463b-4f8c-bade-7d7f9048eb30",
            "name": "Eucalyptol",
            "url": "https://haz-map.com/Agents/4421",
            "category": "agents"
          }
        ]
      },
      "biomedical_references": {
        "original_name": "Biomedical References",
        "value": "Search PubMed",
        "links": [
          {
            "text": "Search PubMed",
            "url": "https://www.ncbi.nlm.nih.gov/pubmed?term=1%2c4-Epoxy-p-menthane%20AND%20human%5Bmh%5D%20AND%20%28Occupational%20Diseases%20%5Bmh%5D%20OR%20Occupational%20Exposure%20%5Bmh%5D%29%20%20AND%20%28tox%5Bsb%5D%29&cmd=search"
          }
        ],
        "cross_references": []
      }
    },
    "exposure_assessment": {
      "vapor_pressure": {
        "original_name": "Vapor Pressure",
        "value": "1.93 mm Hg",
        "links": [],
        "cross_references": []
      },
      "explanatory_notes": {
        "original_name": "Explanatory Notes",
        "value": "The Guide in the Emergency Response Guidebook is for \"Flammable liquid, n.o.s.\" VP from ChemIDplus;",
        "links": [],
        "cross_references": []
      }
    },
    "adverse_effects": {
      "neurotoxin": {
        "original_name": "Neurotoxin",
        "value": "Acute solvent syndrome",
        "links": [],
        "cross_references": []
      }
    },
    "diseases_processes_and_activities_linked_to_this_agent": {
      "diseases": {
        "original_name": "Diseases",
        "value": "Occupational diseases associated with exposure to this agent: Solvents, acute toxic effect",
        "links": [
          {
            "text": "Solvents, acute toxic effect",
            "url": "https://haz-map.com/Diseases/326"
          }
        ],
        "cross_references": [
          {
            "type": "url_match",
            "text": "Solvents, acute toxic effect",
            "url": "https://haz-map.com/Diseases/326",
            "confidence": 1.0,
            "uuid": "581e90e3-9d0c-45f0-aa6c-3468c28da129",
            "name": "Solvents, acute toxic effect",
            "category": "diseases"
          }
        ]
      }
    }
  },
  "cross_references": [
    {
      "type": "url_match",
      "text": "Solvents, acute toxic effect",
      "url": "https://haz-map.com/Diseases/326",
      "confidence": 1.0,
      "uuid": "581e90e3-9d0c-45f0-aa6c-3468c28da129",
      "name": "Solvents, acute toxic effect",
      "category": "diseases"
    },
    {
      "type": "name_match",
      "text": "convulsion",
      "confidence": 1.0,
      "uuid": "af2c36f8-707a-48e3-a62b-1aa07adc9b72",
      "name": "convulsion",
      "url": "https://haz-map.com/Findings/14",
      "category": "findings"
    },
    {
      "type": "name_match",
      "text": "delirium",
      "confidence": 1.0,
      "uuid": "6aac5657-d857-4ce5-97ba-3ad9dc5c4a98",
      "name": "delirium",
      "url": "https://haz-map.com/Findings/61",
      "category": "findings"
    },
    {
      "type": "name_match",
      "text": "weakness",
      "confidence": 1.0,
      "uuid": "44bfccd5-0f7a-48f7-b4eb-de9a6ef23064",
      "name": "weakness",
      "url": "https://haz-map.com/Findings/83",
      "category": "findings"
    },
    {
      "type": "name_match",
      "text": "burn",
      "confidence": 1.0,
      "uuid": "63665de5-6376-4918-8dbf-4c10c4d63837",
      "name": "burn",
      "url": "https://haz-map.com/Findings/204",
      "category": "findings"
    },
    {
      "type": "name_match",
      "text": "1,4-epoxy-p-menthane",
      "confidence": 1.0,
      "uuid": "0e17ccd8-d8c8-49ce-886f-3056027be4a4",
      "name": "1,4-Epoxy-p-menthane",
      "url": "https://haz-map.com/Agents/2827",
      "category": "agents"
    },
    {
      "type": "name_match",
      "text": "eucalyptol",
      "confidence": 1.0,
      "uuid": "14bd4120-463b-4f8c-bade-7d7f9048eb30",
      "name": "Eucalyptol",
      "url": "https://haz-map.com/Agents/4421",
      "category": "agents"
    },
    {
      "type": "fuzzy_match",
      "text": "organic compounds",
      "matched_name": "Tin, organic compounds",
      "confidence": 0.8196969696969697,
      "uuid": "e027d413-8869-4308-9eb2-27d768b011ea",
      "category": "agents",
      "url": "https://haz-map.com/Agents/656"
    }
  ],
  "all_links": [
    {
      "text": "Search PubMed",
      "url": "https://www.ncbi.nlm.nih.gov/pubmed?term=1%2c4-Epoxy-p-menthane%20AND%20human%5Bmh%5D%20AND%20%28Occupational%20Diseases%20%5Bmh%5D%20OR%20Occupational%20Exposure%20%5Bmh%5D%29%20%20AND%20%28tox%5Bsb%5D%29&cmd=search"
    },
    {
      "text": "Solvents, acute toxic effect",
      "url": "https://haz-map.com/Diseases/326"
    }
  ]
}