{
  "metadata": {
    "scraped_from": "https://haz-map.com/Agents/19905",
    "entity_name": "Triethylsilane",
    "category": "agents",
    "uuid": "0e46ab89-eeec-491f-a344-e728699321b3",
    "scraped_at": "2025-07-23T22:15:04.155878"
  },
  "parsed_at": "2025-07-24T01:11:29.945876",
  "title": "Triethylsilane",
  "sections": {
    "general": {
      "agent_name": {
        "original_name": "Agent Name",
        "value": "Triethylsilane",
        "links": [],
        "cross_references": [
          {
            "type": "name_match",
            "text": "triethylsilane",
            "confidence": 1.0,
            "uuid": "0e46ab89-eeec-491f-a344-e728699321b3",
            "name": "Triethylsilane",
            "url": "https://haz-map.com/Agents/19905",
            "category": "agents"
          }
        ]
      },
      "cas_number": {
        "original_name": "CAS Number",
        "value": "617-86-7",
        "links": [],
        "cross_references": []
      },
      "formula": {
        "original_name": "Formula",
        "value": "C6-H16-Si",
        "links": [],
        "cross_references": []
      },
      "major_category": {
        "original_name": "Major Category",
        "value": "Metals",
        "links": [],
        "cross_references": []
      },
      "synonyms": {
        "original_name": "Synonyms",
        "value": "Triethylsilicon hydride; Silane, triethyl-; [ChemIDplus] Triethylhydrosilane; TES; [Merck Index] UN1993",
        "links": [],
        "cross_references": [
          {
            "type": "name_match",
            "text": "silicon",
            "confidence": 1.0,
            "uuid": "443f4405-7a1f-47db-bf43-809557f77483",
            "name": "Silicon",
            "url": "https://haz-map.com/Agents/623",
            "category": "agents"
          }
        ]
      },
      "category": {
        "original_name": "Category",
        "value": "Metalloid Compounds (Silicon)",
        "links": [],
        "cross_references": [
          {
            "type": "name_match",
            "text": "silicon",
            "confidence": 1.0,
            "uuid": "443f4405-7a1f-47db-bf43-809557f77483",
            "name": "Silicon",
            "url": "https://haz-map.com/Agents/623",
            "category": "agents"
          }
        ]
      },
      "description": {
        "original_name": "Description",
        "value": "Colorless liquid with a mild odor like garlic; [Merck Index]",
        "links": [],
        "cross_references": [
          {
            "type": "name_match",
            "text": "garlic",
            "confidence": 1.0,
            "uuid": "b7d2adf7-e077-462e-ad96-e04fd354df5f",
            "name": "Garlic",
            "url": "https://haz-map.com/Agents/892",
            "category": "agents"
          }
        ]
      },
      "sourcesuses": {
        "original_name": "Sources/Uses",
        "value": "Used as a reducing agent in synthetic organic chemistry (silylations, radical chain reactions, and transfer hydrogenations); [Merck Index]",
        "links": [],
        "cross_references": [
          {
            "type": "name_match",
            "text": "hydrogen",
            "confidence": 1.0,
            "uuid": "e2d9645f-5559-4d88-b820-fc4710c154f2",
            "name": "Hydrogen",
            "url": "https://haz-map.com/Agents/1070",
            "category": "agents"
          }
        ]
      },
      "comments": {
        "original_name": "Comments",
        "value": "An irritant; [Merck Index] A skin, respiratory tract, and strong eye irritant; [Alfa Aesar MSDS] See \"Silicon tetrahydride.\" See \"Tetramethylsilane\" and \"Diethylsilane.\"",
        "links": [],
        "cross_references": [
          {
            "type": "name_match",
            "text": "silicon",
            "confidence": 1.0,
            "uuid": "443f4405-7a1f-47db-bf43-809557f77483",
            "name": "Silicon",
            "url": "https://haz-map.com/Agents/623",
            "category": "agents"
          },
          {
            "type": "name_match",
            "text": "silicon tetrahydride",
            "confidence": 1.0,
            "uuid": "9ef4469b-e9fe-49ff-b5a1-c3fd98b523b3",
            "name": "Silicon tetrahydride",
            "url": "https://haz-map.com/Agents/713",
            "category": "agents"
          },
          {
            "type": "name_match",
            "text": "methylsilane",
            "confidence": 1.0,
            "uuid": "477dc5db-fed0-4dc8-8ece-f7392790a3b0",
            "name": "Methylsilane",
            "url": "https://haz-map.com/Agents/8380",
            "category": "agents"
          },
          {
            "type": "name_match",
            "text": "diethylsilane",
            "confidence": 1.0,
            "uuid": "33178c43-3fc2-4126-85e7-12d81b8b7759",
            "name": "Diethylsilane",
            "url": "https://haz-map.com/Agents/8540",
            "category": "agents"
          },
          {
            "type": "name_match",
            "text": "tetramethylsilane",
            "confidence": 1.0,
            "uuid": "d38f5849-e2fa-48dd-9487-e41d0a4e7650",
            "name": "Tetramethylsilane",
            "url": "https://haz-map.com/Agents/17936",
            "category": "agents"
          }
        ]
      },
      "biomedical_references": {
        "original_name": "Biomedical References",
        "value": "Search PubMed",
        "links": [
          {
            "text": "Search PubMed",
            "url": "https://www.ncbi.nlm.nih.gov/pubmed?term=Triethylsilane%20AND%20human%5Bmh%5D%20AND%20%28Occupational%20Diseases%20%5Bmh%5D%20OR%20Occupational%20Exposure%20%5Bmh%5D%29%20%20AND%20%28tox%5Bsb%5D%29&cmd=search"
          }
        ],
        "cross_references": []
      }
    },
    "exposure_assessment": {
      "vapor_pressure": {
        "original_name": "Vapor Pressure",
        "value": "42.9 mm Hg",
        "links": [],
        "cross_references": []
      },
      "explanatory_notes": {
        "original_name": "Explanatory Notes",
        "value": "The Guide in the Emergency Response Guidebook is for \"Flammable liquid, n.o.s.\"",
        "links": [],
        "cross_references": []
      }
    },
    "diseases_processes_and_activities_linked_to_this_agent": {
      "other_information": {
        "original_name": "Other Information",
        "value": "No other related information on this agent was found.",
        "links": [],
        "cross_references": []
      }
    }
  },
  "cross_references": [
    {
      "type": "name_match",
      "text": "silicon",
      "confidence": 1.0,
      "uuid": "443f4405-7a1f-47db-bf43-809557f77483",
      "name": "Silicon",
      "url": "https://haz-map.com/Agents/623",
      "category": "agents"
    },
    {
      "type": "name_match",
      "text": "silicon tetrahydride",
      "confidence": 1.0,
      "uuid": "9ef4469b-e9fe-49ff-b5a1-c3fd98b523b3",
      "name": "Silicon tetrahydride",
      "url": "https://haz-map.com/Agents/713",
      "category": "agents"
    },
    {
      "type": "name_match",
      "text": "garlic",
      "confidence": 1.0,
      "uuid": "b7d2adf7-e077-462e-ad96-e04fd354df5f",
      "name": "Garlic",
      "url": "https://haz-map.com/Agents/892",
      "category": "agents"
    },
    {
      "type": "name_match",
      "text": "hydrogen",
      "confidence": 1.0,
      "uuid": "e2d9645f-5559-4d88-b820-fc4710c154f2",
      "name": "Hydrogen",
      "url": "https://haz-map.com/Agents/1070",
      "category": "agents"
    },
    {
      "type": "name_match",
      "text": "methylsilane",
      "confidence": 1.0,
      "uuid": "477dc5db-fed0-4dc8-8ece-f7392790a3b0",
      "name": "Methylsilane",
      "url": "https://haz-map.com/Agents/8380",
      "category": "agents"
    },
    {
      "type": "name_match",
      "text": "diethylsilane",
      "confidence": 1.0,
      "uuid": "33178c43-3fc2-4126-85e7-12d81b8b7759",
      "name": "Diethylsilane",
      "url": "https://haz-map.com/Agents/8540",
      "category": "agents"
    },
    {
      "type": "name_match",
      "text": "tetramethylsilane",
      "confidence": 1.0,
      "uuid": "d38f5849-e2fa-48dd-9487-e41d0a4e7650",
      "name": "Tetramethylsilane",
      "url": "https://haz-map.com/Agents/17936",
      "category": "agents"
    },
    {
      "type": "name_match",
      "text": "triethylsilane",
      "confidence": 1.0,
      "uuid": "0e46ab89-eeec-491f-a344-e728699321b3",
      "name": "Triethylsilane",
      "url": "https://haz-map.com/Agents/19905",
      "category": "agents"
    }
  ],
  "all_links": [
    {
      "text": "Search PubMed",
      "url": "https://www.ncbi.nlm.nih.gov/pubmed?term=Triethylsilane%20AND%20human%5Bmh%5D%20AND%20%28Occupational%20Diseases%20%5Bmh%5D%20OR%20Occupational%20Exposure%20%5Bmh%5D%29%20%20AND%20%28tox%5Bsb%5D%29&cmd=search"
    }
  ]
}