{
  "metadata": {
    "scraped_from": "https://haz-map.com/Agents/3122",
    "entity_name": "2-Methoxyprop-1-ene",
    "category": "agents",
    "uuid": "0e9bb438-5b96-4a4e-ab8b-002e5a529190",
    "scraped_at": "2025-07-23T19:24:24.313026"
  },
  "parsed_at": "2025-07-24T00:52:41.430279",
  "title": "2-Methoxyprop-1-ene",
  "sections": {
    "general": {
      "agent_name": {
        "original_name": "Agent Name",
        "value": "2-Methoxyprop-1-ene",
        "links": [],
        "cross_references": [
          {
            "type": "name_match",
            "text": "2-methoxyprop-1-ene",
            "confidence": 1.0,
            "uuid": "0e9bb438-5b96-4a4e-ab8b-002e5a529190",
            "name": "2-Methoxyprop-1-ene",
            "url": "https://haz-map.com/Agents/3122",
            "category": "agents"
          }
        ]
      },
      "cas_number": {
        "original_name": "CAS Number",
        "value": "116-11-0",
        "links": [],
        "cross_references": []
      },
      "formula": {
        "original_name": "Formula",
        "value": "C4-H8-O",
        "links": [],
        "cross_references": []
      },
      "major_category": {
        "original_name": "Major Category",
        "value": "Other Classes",
        "links": [],
        "cross_references": []
      },
      "synonyms": {
        "original_name": "Synonyms",
        "value": "1-Propene, 2-methoxy-; 2-Methoxy-1-propene; 2-Methoxypropene; Ether, isopropenyl methyl; Isopropenyl methyl ether; Methyl isopropenyl ether; Propene, 2-methoxy-; [ChemIDplus] UN1993",
        "links": [],
        "cross_references": [
          {
            "type": "name_match",
            "text": "ethyl ether",
            "confidence": 1.0,
            "uuid": "c95edddc-9ad3-44f8-bafa-78e0bd19db3a",
            "name": "Ethyl ether",
            "url": "https://haz-map.com/Agents/455",
            "category": "agents"
          }
        ]
      },
      "category": {
        "original_name": "Category",
        "value": "Other Organic Compounds",
        "links": [],
        "cross_references": [
          {
            "type": "fuzzy_match",
            "text": "organic compounds",
            "matched_name": "Tin, organic compounds",
            "confidence": 0.8196969696969697,
            "uuid": "e027d413-8869-4308-9eb2-27d768b011ea",
            "category": "agents",
            "url": "https://haz-map.com/Agents/656"
          }
        ]
      },
      "description": {
        "original_name": "Description",
        "value": "Liquid; bp = 34-36 deg C; [MSDSonline]",
        "links": [],
        "cross_references": []
      },
      "sourcesuses": {
        "original_name": "Sources/Uses",
        "value": "Used as a laboratory reagent and an intermediate for 2-methoxyallyl bromide (an alkylating agent); [HSDB]",
        "links": [],
        "cross_references": [
          {
            "type": "name_match",
            "text": "allyl bromide",
            "confidence": 1.0,
            "uuid": "f3a84218-783f-4f06-9ae9-66e669dbf822",
            "name": "Allyl bromide",
            "url": "https://haz-map.com/Agents/3568",
            "category": "agents"
          }
        ]
      },
      "comments": {
        "original_name": "Comments",
        "value": "May form explosive peroxides; An irritant; [MSDSonline]",
        "links": [],
        "cross_references": []
      },
      "biomedical_references": {
        "original_name": "Biomedical References",
        "value": "Search PubMed",
        "links": [
          {
            "text": "Search PubMed",
            "url": "https://www.ncbi.nlm.nih.gov/pubmed?term=2-Methoxyprop-1-ene%20AND%20human%5Bmh%5D%20AND%20%28Occupational%20Diseases%20%5Bmh%5D%20OR%20Occupational%20Exposure%20%5Bmh%5D%29%20%20AND%20%28tox%5Bsb%5D%29&cmd=search"
          }
        ],
        "cross_references": []
      }
    },
    "exposure_assessment": {
      "vapor_pressure": {
        "original_name": "Vapor Pressure",
        "value": "517 mm Hg",
        "links": [],
        "cross_references": []
      },
      "lethal_concentration": {
        "original_name": "Lethal Concentration",
        "value": "LCLo (rat) = 64,000 ppm/4h",
        "links": [],
        "cross_references": []
      },
      "explanatory_notes": {
        "original_name": "Explanatory Notes",
        "value": "The Guide in the Emergency Response Guidebook is for \"Flammable liquid, n.o.s.\" VP from ChemIDplus;",
        "links": [],
        "cross_references": []
      }
    },
    "diseases_processes_and_activities_linked_to_this_agent": {
      "other_information": {
        "original_name": "Other Information",
        "value": "No other related information on this agent was found.",
        "links": [],
        "cross_references": []
      }
    }
  },
  "cross_references": [
    {
      "type": "name_match",
      "text": "ethyl ether",
      "confidence": 1.0,
      "uuid": "c95edddc-9ad3-44f8-bafa-78e0bd19db3a",
      "name": "Ethyl ether",
      "url": "https://haz-map.com/Agents/455",
      "category": "agents"
    },
    {
      "type": "name_match",
      "text": "2-methoxyprop-1-ene",
      "confidence": 1.0,
      "uuid": "0e9bb438-5b96-4a4e-ab8b-002e5a529190",
      "name": "2-Methoxyprop-1-ene",
      "url": "https://haz-map.com/Agents/3122",
      "category": "agents"
    },
    {
      "type": "name_match",
      "text": "allyl bromide",
      "confidence": 1.0,
      "uuid": "f3a84218-783f-4f06-9ae9-66e669dbf822",
      "name": "Allyl bromide",
      "url": "https://haz-map.com/Agents/3568",
      "category": "agents"
    },
    {
      "type": "fuzzy_match",
      "text": "organic compounds",
      "matched_name": "Tin, organic compounds",
      "confidence": 0.8196969696969697,
      "uuid": "e027d413-8869-4308-9eb2-27d768b011ea",
      "category": "agents",
      "url": "https://haz-map.com/Agents/656"
    }
  ],
  "all_links": [
    {
      "text": "Search PubMed",
      "url": "https://www.ncbi.nlm.nih.gov/pubmed?term=2-Methoxyprop-1-ene%20AND%20human%5Bmh%5D%20AND%20%28Occupational%20Diseases%20%5Bmh%5D%20OR%20Occupational%20Exposure%20%5Bmh%5D%29%20%20AND%20%28tox%5Bsb%5D%29&cmd=search"
    }
  ]
}