{
  "metadata": {
    "scraped_from": "https://haz-map.com/Agents/20698",
    "entity_name": "Ethyl 2-chloroacetoacetate",
    "category": "agents",
    "uuid": "0ea96f49-aa79-4e7d-849b-5194a0535b27",
    "scraped_at": "2025-07-23T22:30:09.556639"
  },
  "parsed_at": "2025-07-24T01:00:40.999157",
  "title": "Ethyl 2-chloroacetoacetate",
  "sections": {
    "general": {
      "agent_name": {
        "original_name": "Agent Name",
        "value": "Ethyl 2-chloroacetoacetate",
        "links": [],
        "cross_references": [
          {
            "type": "name_match",
            "text": "ethyl 2-chloroacetoacetate",
            "confidence": 1.0,
            "uuid": "0ea96f49-aa79-4e7d-849b-5194a0535b27",
            "name": "Ethyl 2-chloroacetoacetate",
            "url": "https://haz-map.com/Agents/20698",
            "category": "agents"
          }
        ]
      },
      "cas_number": {
        "original_name": "CAS Number",
        "value": "609-15-4",
        "links": [],
        "cross_references": []
      },
      "formula": {
        "original_name": "Formula",
        "value": "C6-H9-Cl-O3",
        "links": [],
        "cross_references": []
      },
      "major_category": {
        "original_name": "Major Category",
        "value": "Other Classes",
        "links": [],
        "cross_references": []
      },
      "synonyms": {
        "original_name": "Synonyms",
        "value": "A 21960; 2-Chloro-3-oxobutanoic acid, ethyl ester; 2-Chloro-3-oxobutyric acid ethyl ester; 2-Chloroacetoacetic acid ethyl ester; Butanoic acid, 2-chloro-3-oxo-, ethyl ester; Ethyl 2-chloro-3-oxobutanoate; Ethyl alpha-chloroacetoacetate; Ethyl-2-chloracetoacetate; Acetoacetic acid, 2-chloro-, ethyl ester (8CI); [ChemIDplus] UN2920",
        "links": [],
        "cross_references": [
          {
            "type": "name_match",
            "text": "acetic acid",
            "confidence": 1.0,
            "uuid": "0905c6e4-df84-4895-a92d-658819239bbd",
            "name": "Acetic acid",
            "url": "https://haz-map.com/Agents/207",
            "category": "agents"
          },
          {
            "type": "name_match",
            "text": "butyric acid",
            "confidence": 1.0,
            "uuid": "a59c4184-bd52-40af-8450-80d14bbee018",
            "name": "Butyric acid",
            "url": "https://haz-map.com/Agents/1391",
            "category": "agents"
          }
        ]
      },
      "category": {
        "original_name": "Category",
        "value": "Halogenated Esters",
        "links": [],
        "cross_references": []
      },
      "description": {
        "original_name": "Description",
        "value": "Clear colorless liquid; [Sigma-Aldrich MSDS]",
        "links": [],
        "cross_references": []
      },
      "sourcesuses": {
        "original_name": "Sources/Uses",
        "value": "Used as an intermediate; [ExPub: ECHA REACH Registrations]",
        "links": [],
        "cross_references": []
      },
      "comments": {
        "original_name": "Comments",
        "value": "Causes burns and lachrymation; Inhalation may cause corrosive injuries to upper respiratory tract; Harmful by ingestion; [Sigma-Aldrich MSDS] See \"Ethyl acetoacetate.\" See \"Methyl dichloroacetate.\"",
        "links": [],
        "cross_references": [
          {
            "type": "name_match",
            "text": "burn",
            "confidence": 1.0,
            "uuid": "63665de5-6376-4918-8dbf-4c10c4d63837",
            "name": "burn",
            "url": "https://haz-map.com/Findings/204",
            "category": "findings"
          },
          {
            "type": "name_match",
            "text": "ethyl acetoacetate",
            "confidence": 1.0,
            "uuid": "e1d7a651-b83f-457d-b1f4-c077b5930e0d",
            "name": "Ethyl acetoacetate",
            "url": "https://haz-map.com/Agents/5183",
            "category": "agents"
          },
          {
            "type": "name_match",
            "text": "methyl dichloroacetate",
            "confidence": 1.0,
            "uuid": "9339ae32-7220-4921-bd15-7ac3f49e1db4",
            "name": "Methyl dichloroacetate",
            "url": "https://haz-map.com/Agents/15499",
            "category": "agents"
          }
        ]
      },
      "biomedical_references": {
        "original_name": "Biomedical References",
        "value": "Search PubMed",
        "links": [
          {
            "text": "Search PubMed",
            "url": "https://www.ncbi.nlm.nih.gov/pubmed?term=Ethyl+2-chloroacetoacetate%20AND%20human%5Bmh%5D%20AND%20%28Occupational%20Diseases%20%5Bmh%5D%20OR%20Occupational%20Exposure%20%5Bmh%5D%29%20%20AND%20%28tox%5Bsb%5D%29&cmd=search"
          }
        ],
        "cross_references": []
      }
    },
    "exposure_assessment": {
      "vapor_pressure": {
        "original_name": "Vapor Pressure",
        "value": "0.22 mm Hg",
        "links": [],
        "cross_references": []
      },
      "explanatory_notes": {
        "original_name": "Explanatory Notes",
        "value": "The Guide in the Emergency Response Guidebook is for \"Corrosive liquid, flammable, n.o.s.\"",
        "links": [],
        "cross_references": []
      }
    },
    "adverse_effects": {
      "lachrymator": {
        "original_name": "Lachrymator",
        "value": "Yes",
        "links": [],
        "cross_references": []
      },
      "dermatotoxin": {
        "original_name": "Dermatotoxin",
        "value": "Skin burns",
        "links": [],
        "cross_references": [
          {
            "type": "name_match",
            "text": "burn",
            "confidence": 1.0,
            "uuid": "63665de5-6376-4918-8dbf-4c10c4d63837",
            "name": "burn",
            "url": "https://haz-map.com/Findings/204",
            "category": "findings"
          }
        ]
      }
    },
    "diseases_processes_and_activities_linked_to_this_agent": {
      "other_information": {
        "original_name": "Other Information",
        "value": "No other related information on this agent was found.",
        "links": [],
        "cross_references": []
      }
    }
  },
  "cross_references": [
    {
      "type": "name_match",
      "text": "burn",
      "confidence": 1.0,
      "uuid": "63665de5-6376-4918-8dbf-4c10c4d63837",
      "name": "burn",
      "url": "https://haz-map.com/Findings/204",
      "category": "findings"
    },
    {
      "type": "name_match",
      "text": "acetic acid",
      "confidence": 1.0,
      "uuid": "0905c6e4-df84-4895-a92d-658819239bbd",
      "name": "Acetic acid",
      "url": "https://haz-map.com/Agents/207",
      "category": "agents"
    },
    {
      "type": "name_match",
      "text": "butyric acid",
      "confidence": 1.0,
      "uuid": "a59c4184-bd52-40af-8450-80d14bbee018",
      "name": "Butyric acid",
      "url": "https://haz-map.com/Agents/1391",
      "category": "agents"
    },
    {
      "type": "name_match",
      "text": "ethyl acetoacetate",
      "confidence": 1.0,
      "uuid": "e1d7a651-b83f-457d-b1f4-c077b5930e0d",
      "name": "Ethyl acetoacetate",
      "url": "https://haz-map.com/Agents/5183",
      "category": "agents"
    },
    {
      "type": "name_match",
      "text": "methyl dichloroacetate",
      "confidence": 1.0,
      "uuid": "9339ae32-7220-4921-bd15-7ac3f49e1db4",
      "name": "Methyl dichloroacetate",
      "url": "https://haz-map.com/Agents/15499",
      "category": "agents"
    },
    {
      "type": "name_match",
      "text": "ethyl 2-chloroacetoacetate",
      "confidence": 1.0,
      "uuid": "0ea96f49-aa79-4e7d-849b-5194a0535b27",
      "name": "Ethyl 2-chloroacetoacetate",
      "url": "https://haz-map.com/Agents/20698",
      "category": "agents"
    }
  ],
  "all_links": [
    {
      "text": "Search PubMed",
      "url": "https://www.ncbi.nlm.nih.gov/pubmed?term=Ethyl+2-chloroacetoacetate%20AND%20human%5Bmh%5D%20AND%20%28Occupational%20Diseases%20%5Bmh%5D%20OR%20Occupational%20Exposure%20%5Bmh%5D%29%20%20AND%20%28tox%5Bsb%5D%29&cmd=search"
    }
  ]
}