{
  "metadata": {
    "scraped_from": "https://haz-map.com/Agents/592",
    "entity_name": "Phenyl ether-biphenyl mixture, vapor",
    "category": "agents",
    "uuid": "0f3945f8-96f7-4611-9477-2819732df269",
    "scraped_at": "2025-07-23T18:45:04.826230"
  },
  "parsed_at": "2025-07-24T01:01:06.426311",
  "title": "Phenyl ether-biphenyl mixture, vapor",
  "sections": {
    "general": {
      "agent_name": {
        "original_name": "Agent Name",
        "value": "Phenyl ether-biphenyl mixture, vapor",
        "links": [],
        "cross_references": [
          {
            "type": "name_match",
            "text": "biphenyl",
            "confidence": 1.0,
            "uuid": "740f90cb-888a-4a3b-b9ae-30768927fec2",
            "name": "Biphenyl",
            "url": "https://haz-map.com/Agents/306",
            "category": "agents"
          },
          {
            "type": "name_match",
            "text": "phenyl ether",
            "confidence": 1.0,
            "uuid": "063d5590-1868-48d4-a62d-7f1f2e8cf6d4",
            "name": "Phenyl ether",
            "url": "https://haz-map.com/Agents/591",
            "category": "agents"
          },
          {
            "type": "name_match",
            "text": "phenyl ether-biphenyl mixture, vapor",
            "confidence": 1.0,
            "uuid": "0f3945f8-96f7-4611-9477-2819732df269",
            "name": "Phenyl ether-biphenyl mixture, vapor",
            "url": "https://haz-map.com/Agents/592",
            "category": "agents"
          }
        ]
      },
      "cas_number": {
        "original_name": "CAS Number",
        "value": "8004-13-5",
        "links": [],
        "cross_references": []
      },
      "formula": {
        "original_name": "Formula",
        "value": "C12-H10-O.C12-H10",
        "links": [],
        "cross_references": []
      },
      "major_category": {
        "original_name": "Major Category",
        "value": "Other Classes",
        "links": [],
        "cross_references": []
      },
      "synonyms": {
        "original_name": "Synonyms",
        "value": "1,1'-Biphenyl, mixt. with 1,1'-oxybis(benzene); Biphenyl, mixed with biphenyl oxide (3:7); Biphenyl-diphenyl ether eutectic mixture; Biphenyl-diphenyl ether mixture; Biphenyl-diphenyl ether mixture (26.5:73.5); Dinil; Dinyl; Diphenyl mixed with diphenyl oxide; Diphyl; Dowtherm A; Phenyl ether, compd with biphenyl; Phenyl ether-biphenyl eutectic mixture; Phenyl ether-diphenyl mixture; Therminol VP; [ChemIDplus]",
        "links": [],
        "cross_references": [
          {
            "type": "name_match",
            "text": "benzene",
            "confidence": 1.0,
            "uuid": "b05124de-5f34-4c14-8f04-ccb20c3780d9",
            "name": "Benzene",
            "url": "https://haz-map.com/Agents/5",
            "category": "agents"
          },
          {
            "type": "name_match",
            "text": "biphenyl",
            "confidence": 1.0,
            "uuid": "740f90cb-888a-4a3b-b9ae-30768927fec2",
            "name": "Biphenyl",
            "url": "https://haz-map.com/Agents/306",
            "category": "agents"
          },
          {
            "type": "name_match",
            "text": "phenyl ether",
            "confidence": 1.0,
            "uuid": "063d5590-1868-48d4-a62d-7f1f2e8cf6d4",
            "name": "Phenyl ether",
            "url": "https://haz-map.com/Agents/591",
            "category": "agents"
          }
        ]
      },
      "category": {
        "original_name": "Category",
        "value": "Other Aromatic Compounds",
        "links": [],
        "cross_references": []
      },
      "description": {
        "original_name": "Description",
        "value": "Colorless to straw-colored liquid or solid (below 54 degrees F) with a disagreeable, aromatic odor. [Note: A mixture typically contains 75% phenyl ether & 25% biphenyl.]; [NIOSH]",
        "links": [],
        "cross_references": [
          {
            "type": "name_match",
            "text": "biphenyl",
            "confidence": 1.0,
            "uuid": "740f90cb-888a-4a3b-b9ae-30768927fec2",
            "name": "Biphenyl",
            "url": "https://haz-map.com/Agents/306",
            "category": "agents"
          },
          {
            "type": "name_match",
            "text": "phenyl ether",
            "confidence": 1.0,
            "uuid": "063d5590-1868-48d4-a62d-7f1f2e8cf6d4",
            "name": "Phenyl ether",
            "url": "https://haz-map.com/Agents/591",
            "category": "agents"
          }
        ]
      },
      "sourcesuses": {
        "original_name": "Sources/Uses",
        "value": "Used as a heat transfer medium at temperatures below 380 degrees C; [HSDB]",
        "links": [],
        "cross_references": []
      },
      "comments": {
        "original_name": "Comments",
        "value": "Rats fed 0.5-1.0 g/kg 5 days a week for 132 doses show slightly increased liver weights. Irritating to the eyes, nose, and throat at concentrations of 3 to 4 ppm; [HSDB]",
        "links": [],
        "cross_references": [
          {
            "type": "name_match",
            "text": "ht",
            "confidence": 1.0,
            "uuid": "764df367-8d53-4a11-81a2-31ccfe122a8d",
            "name": "HT",
            "url": "https://haz-map.com/Agents/2168",
            "category": "agents"
          }
        ]
      },
      "biomedical_references": {
        "original_name": "Biomedical References",
        "value": "Search PubMed",
        "links": [
          {
            "text": "Search PubMed",
            "url": "https://www.ncbi.nlm.nih.gov/pubmed?term=Phenyl+ether-biphenyl+mixture%2c+vapor%20AND%20human%5Bmh%5D%20AND%20%28Occupational%20Diseases%20%5Bmh%5D%20OR%20Occupational%20Exposure%20%5Bmh%5D%29%20%20AND%20%28tox%5Bsb%5D%29&cmd=search"
          }
        ],
        "cross_references": []
      }
    },
    "exposure_assessment": {
      "pel_osha": {
        "original_name": "PEL (OSHA)",
        "value": "1 ppm",
        "links": [],
        "cross_references": []
      },
      "idlh_niosh": {
        "original_name": "IDLH (NIOSH)",
        "value": "10 ppm",
        "links": [],
        "cross_references": []
      },
      "excerpts_from_documentation_for_idlhs": {
        "original_name": "Excerpts from Documentation for IDLHs",
        "value": "Human data: Concentrations ranging from 7 to 10 ppm have caused burning of the eyes, irritation of the respiratory tract, and severe nausea [ILO 1971].",
        "links": [],
        "cross_references": [
          {
            "type": "name_match",
            "text": "burn",
            "confidence": 1.0,
            "uuid": "63665de5-6376-4918-8dbf-4c10c4d63837",
            "name": "burn",
            "url": "https://haz-map.com/Findings/204",
            "category": "findings"
          }
        ]
      },
      "vapor_pressure": {
        "original_name": "Vapor Pressure",
        "value": "0.08 mm Hg",
        "links": [],
        "cross_references": []
      },
      "explanatory_notes": {
        "original_name": "Explanatory Notes",
        "value": "Flash point = 255 deg F; VP from HSDB;",
        "links": [],
        "cross_references": [
          {
            "type": "name_match",
            "text": "ash",
            "confidence": 1.0,
            "uuid": "68b360f1-5ad0-4337-bea0-d7adca2961b5",
            "name": "Ash",
            "url": "https://haz-map.com/Agents/965",
            "category": "agents"
          }
        ]
      }
    },
    "adverse_effects": {
      "hepatotoxin": {
        "original_name": "Hepatotoxin",
        "value": "Hepatoxic (a) from occupational exposure (secondary effect) or (b) in animal studies or in humans after ingestion",
        "links": [],
        "cross_references": []
      }
    },
    "diseases_processes_and_activities_linked_to_this_agent": {
      "other_information": {
        "original_name": "Other Information",
        "value": "No other related information on this agent was found.",
        "links": [],
        "cross_references": []
      }
    }
  },
  "cross_references": [
    {
      "type": "name_match",
      "text": "burn",
      "confidence": 1.0,
      "uuid": "63665de5-6376-4918-8dbf-4c10c4d63837",
      "name": "burn",
      "url": "https://haz-map.com/Findings/204",
      "category": "findings"
    },
    {
      "type": "name_match",
      "text": "benzene",
      "confidence": 1.0,
      "uuid": "b05124de-5f34-4c14-8f04-ccb20c3780d9",
      "name": "Benzene",
      "url": "https://haz-map.com/Agents/5",
      "category": "agents"
    },
    {
      "type": "name_match",
      "text": "biphenyl",
      "confidence": 1.0,
      "uuid": "740f90cb-888a-4a3b-b9ae-30768927fec2",
      "name": "Biphenyl",
      "url": "https://haz-map.com/Agents/306",
      "category": "agents"
    },
    {
      "type": "name_match",
      "text": "phenyl ether",
      "confidence": 1.0,
      "uuid": "063d5590-1868-48d4-a62d-7f1f2e8cf6d4",
      "name": "Phenyl ether",
      "url": "https://haz-map.com/Agents/591",
      "category": "agents"
    },
    {
      "type": "name_match",
      "text": "phenyl ether-biphenyl mixture, vapor",
      "confidence": 1.0,
      "uuid": "0f3945f8-96f7-4611-9477-2819732df269",
      "name": "Phenyl ether-biphenyl mixture, vapor",
      "url": "https://haz-map.com/Agents/592",
      "category": "agents"
    },
    {
      "type": "name_match",
      "text": "ash",
      "confidence": 1.0,
      "uuid": "68b360f1-5ad0-4337-bea0-d7adca2961b5",
      "name": "Ash",
      "url": "https://haz-map.com/Agents/965",
      "category": "agents"
    },
    {
      "type": "name_match",
      "text": "ht",
      "confidence": 1.0,
      "uuid": "764df367-8d53-4a11-81a2-31ccfe122a8d",
      "name": "HT",
      "url": "https://haz-map.com/Agents/2168",
      "category": "agents"
    }
  ],
  "all_links": [
    {
      "text": "Search PubMed",
      "url": "https://www.ncbi.nlm.nih.gov/pubmed?term=Phenyl+ether-biphenyl+mixture%2c+vapor%20AND%20human%5Bmh%5D%20AND%20%28Occupational%20Diseases%20%5Bmh%5D%20OR%20Occupational%20Exposure%20%5Bmh%5D%29%20%20AND%20%28tox%5Bsb%5D%29&cmd=search"
    }
  ]
}