{
  "metadata": {
    "scraped_from": "https://haz-map.com/Agents/13046",
    "entity_name": "Cyclopentane, 1,2,3-trimethyl-, (1alpha,2alpha,3beta)-",
    "category": "agents",
    "uuid": "0f6ae697-8bf2-4088-99e4-fb85117a565c",
    "scraped_at": "2025-07-23T21:11:56.654581"
  },
  "parsed_at": "2025-07-24T01:13:01.734551",
  "title": "Cyclopentane, 1,2,3-trimethyl-, (1alpha,2alpha,3beta)-",
  "sections": {
    "general": {
      "agent_name": {
        "original_name": "Agent Name",
        "value": "Cyclopentane, 1,2,3-trimethyl-, (1alpha,2alpha,3beta)-",
        "links": [],
        "cross_references": [
          {
            "type": "name_match",
            "text": "cyclopentane",
            "confidence": 1.0,
            "uuid": "6480e7e3-674a-4296-afdc-a9ce8b2f2850",
            "name": "Cyclopentane",
            "url": "https://haz-map.com/Agents/387",
            "category": "agents"
          },
          {
            "type": "name_match",
            "text": "cyclopentane, 1,2,3-trimethyl-, (1alpha,2alpha,3beta)-",
            "confidence": 1.0,
            "uuid": "0f6ae697-8bf2-4088-99e4-fb85117a565c",
            "name": "Cyclopentane, 1,2,3-trimethyl-, (1alpha,2alpha,3beta)-",
            "url": "https://haz-map.com/Agents/13046",
            "category": "agents"
          }
        ]
      },
      "cas_number": {
        "original_name": "CAS Number",
        "value": "15890-40-1",
        "links": [],
        "cross_references": []
      },
      "formula": {
        "original_name": "Formula",
        "value": "C8-H16",
        "links": [],
        "cross_references": []
      },
      "major_category": {
        "original_name": "Major Category",
        "value": "Solvents",
        "links": [],
        "cross_references": []
      },
      "category": {
        "original_name": "Category",
        "value": "Aliphatics, Saturated (<C12)",
        "links": [],
        "cross_references": []
      },
      "comments": {
        "original_name": "Comments",
        "value": "See \"Methylcyclopentane.\"",
        "links": [],
        "cross_references": [
          {
            "type": "name_match",
            "text": "cyclopentane",
            "confidence": 1.0,
            "uuid": "6480e7e3-674a-4296-afdc-a9ce8b2f2850",
            "name": "Cyclopentane",
            "url": "https://haz-map.com/Agents/387",
            "category": "agents"
          },
          {
            "type": "name_match",
            "text": "methylcyclopentane",
            "confidence": 1.0,
            "uuid": "5ff95a8e-db75-42d1-b99b-2e187bc2553a",
            "name": "Methylcyclopentane",
            "url": "https://haz-map.com/Agents/8262",
            "category": "agents"
          },
          {
            "type": "name_match",
            "text": "ethylcyclopentane",
            "confidence": 1.0,
            "uuid": "358f9ebf-de12-481a-80a5-9cbc12e2d4d5",
            "name": "Ethylcyclopentane",
            "url": "https://haz-map.com/Agents/13510",
            "category": "agents"
          }
        ]
      },
      "biomedical_references": {
        "original_name": "Biomedical References",
        "value": "Search PubMed",
        "links": [
          {
            "text": "Search PubMed",
            "url": "https://www.ncbi.nlm.nih.gov/pubmed?term=Cyclopentane%2c+1%2c2%2c3-trimethyl-%2c+(1alpha%2c2alpha%2c3beta)-%20AND%20human%5Bmh%5D%20AND%20%28Occupational%20Diseases%20%5Bmh%5D%20OR%20Occupational%20Exposure%20%5Bmh%5D%29%20%20AND%20%28tox%5Bsb%5D%29&cmd=search"
          }
        ],
        "cross_references": []
      }
    },
    "exposure_assessment": {
      "vapor_pressure": {
        "original_name": "Vapor Pressure",
        "value": "32 mm Hg",
        "links": [],
        "cross_references": []
      },
      "explanatory_notes": {
        "original_name": "Explanatory Notes",
        "value": "VP from ChemIDplus;",
        "links": [],
        "cross_references": []
      }
    },
    "adverse_effects": {
      "neurotoxin": {
        "original_name": "Neurotoxin",
        "value": "Acute solvent syndrome",
        "links": [],
        "cross_references": []
      }
    },
    "diseases_processes_and_activities_linked_to_this_agent": {
      "diseases": {
        "original_name": "Diseases",
        "value": "Occupational diseases associated with exposure to this agent: Solvents, acute toxic effect",
        "links": [
          {
            "text": "Solvents, acute toxic effect",
            "url": "https://haz-map.com/Diseases/326"
          }
        ],
        "cross_references": [
          {
            "type": "url_match",
            "text": "Solvents, acute toxic effect",
            "url": "https://haz-map.com/Diseases/326",
            "confidence": 1.0,
            "uuid": "581e90e3-9d0c-45f0-aa6c-3468c28da129",
            "name": "Solvents, acute toxic effect",
            "category": "diseases"
          }
        ]
      }
    }
  },
  "cross_references": [
    {
      "type": "url_match",
      "text": "Solvents, acute toxic effect",
      "url": "https://haz-map.com/Diseases/326",
      "confidence": 1.0,
      "uuid": "581e90e3-9d0c-45f0-aa6c-3468c28da129",
      "name": "Solvents, acute toxic effect",
      "category": "diseases"
    },
    {
      "type": "name_match",
      "text": "cyclopentane",
      "confidence": 1.0,
      "uuid": "6480e7e3-674a-4296-afdc-a9ce8b2f2850",
      "name": "Cyclopentane",
      "url": "https://haz-map.com/Agents/387",
      "category": "agents"
    },
    {
      "type": "name_match",
      "text": "methylcyclopentane",
      "confidence": 1.0,
      "uuid": "5ff95a8e-db75-42d1-b99b-2e187bc2553a",
      "name": "Methylcyclopentane",
      "url": "https://haz-map.com/Agents/8262",
      "category": "agents"
    },
    {
      "type": "name_match",
      "text": "cyclopentane, 1,2,3-trimethyl-, (1alpha,2alpha,3beta)-",
      "confidence": 1.0,
      "uuid": "0f6ae697-8bf2-4088-99e4-fb85117a565c",
      "name": "Cyclopentane, 1,2,3-trimethyl-, (1alpha,2alpha,3beta)-",
      "url": "https://haz-map.com/Agents/13046",
      "category": "agents"
    },
    {
      "type": "name_match",
      "text": "ethylcyclopentane",
      "confidence": 1.0,
      "uuid": "358f9ebf-de12-481a-80a5-9cbc12e2d4d5",
      "name": "Ethylcyclopentane",
      "url": "https://haz-map.com/Agents/13510",
      "category": "agents"
    }
  ],
  "all_links": [
    {
      "text": "Search PubMed",
      "url": "https://www.ncbi.nlm.nih.gov/pubmed?term=Cyclopentane%2c+1%2c2%2c3-trimethyl-%2c+(1alpha%2c2alpha%2c3beta)-%20AND%20human%5Bmh%5D%20AND%20%28Occupational%20Diseases%20%5Bmh%5D%20OR%20Occupational%20Exposure%20%5Bmh%5D%29%20%20AND%20%28tox%5Bsb%5D%29&cmd=search"
    },
    {
      "text": "Solvents, acute toxic effect",
      "url": "https://haz-map.com/Diseases/326"
    }
  ]
}