{
  "metadata": {
    "scraped_from": "https://haz-map.com/Agents/17265",
    "entity_name": "Trimethylsilanol",
    "category": "agents",
    "uuid": "0fb59f2b-cc2d-48b9-b0ab-82a3952cecb8",
    "scraped_at": "2025-07-23T21:44:56.467226"
  },
  "parsed_at": "2025-07-24T01:16:43.213450",
  "title": "Trimethylsilanol",
  "sections": {
    "general": {
      "agent_name": {
        "original_name": "Agent Name",
        "value": "Trimethylsilanol",
        "links": [],
        "cross_references": [
          {
            "type": "name_match",
            "text": "trimethylsilanol",
            "confidence": 1.0,
            "uuid": "0fb59f2b-cc2d-48b9-b0ab-82a3952cecb8",
            "name": "Trimethylsilanol",
            "url": "https://haz-map.com/Agents/17265",
            "category": "agents"
          }
        ]
      },
      "cas_number": {
        "original_name": "CAS Number",
        "value": "1066-40-6",
        "links": [],
        "cross_references": []
      },
      "formula": {
        "original_name": "Formula",
        "value": "C3-H10-O-Si",
        "links": [],
        "cross_references": []
      },
      "major_category": {
        "original_name": "Major Category",
        "value": "Metals",
        "links": [],
        "cross_references": []
      },
      "synonyms": {
        "original_name": "Synonyms",
        "value": "Hydroxytrimethylsilane; Silanol, 1,1,1-trimethyl-; Silanol, trimethyl-; [ChemIDplus] Trimethylhydroxysilane; [JECDB] UN1993",
        "links": [],
        "cross_references": [
          {
            "type": "name_match",
            "text": "methylsilane",
            "confidence": 1.0,
            "uuid": "477dc5db-fed0-4dc8-8ece-f7392790a3b0",
            "name": "Methylsilane",
            "url": "https://haz-map.com/Agents/8380",
            "category": "agents"
          },
          {
            "type": "name_match",
            "text": "trimethylsilane",
            "confidence": 1.0,
            "uuid": "9eac8ed0-d439-4c2f-b2e1-784c743cff2b",
            "name": "Trimethylsilane",
            "url": "https://haz-map.com/Agents/18373",
            "category": "agents"
          }
        ]
      },
      "category": {
        "original_name": "Category",
        "value": "Metalloid Compounds (Silicon)",
        "links": [],
        "cross_references": [
          {
            "type": "name_match",
            "text": "silicon",
            "confidence": 1.0,
            "uuid": "443f4405-7a1f-47db-bf43-809557f77483",
            "name": "Silicon",
            "url": "https://haz-map.com/Agents/623",
            "category": "agents"
          }
        ]
      },
      "description": {
        "original_name": "Description",
        "value": "Colorless liquid with a strong odor; [Wacker Silicones MSDS]",
        "links": [],
        "cross_references": [
          {
            "type": "name_match",
            "text": "silicon",
            "confidence": 1.0,
            "uuid": "443f4405-7a1f-47db-bf43-809557f77483",
            "name": "Silicon",
            "url": "https://haz-map.com/Agents/623",
            "category": "agents"
          }
        ]
      },
      "sourcesuses": {
        "original_name": "Sources/Uses",
        "value": "Used as a chemical intermediate; [Wacker Silicones MSDS]",
        "links": [],
        "cross_references": [
          {
            "type": "name_match",
            "text": "mica",
            "confidence": 1.0,
            "uuid": "433f26f1-c399-4596-b179-ce3843cfd465",
            "name": "Mica",
            "url": "https://haz-map.com/Agents/621",
            "category": "agents"
          },
          {
            "type": "name_match",
            "text": "silicon",
            "confidence": 1.0,
            "uuid": "443f4405-7a1f-47db-bf43-809557f77483",
            "name": "Silicon",
            "url": "https://haz-map.com/Agents/623",
            "category": "agents"
          }
        ]
      },
      "comments": {
        "original_name": "Comments",
        "value": "Reduced spontaneous motor activity, staggering gait, and decreased body weight observed in 28-day oral study of rats at the highest tested dose (640 mg/kg/day); No evidence of mutagenicity; [JECDB] Contains 10-30% hexamethyl disiloxane (CAS# 107-46-0) as an impurity; May cause mild eye irritation; [Wacker Silicones MSDS] See \"Hexamethyldisiloxane\" and \"Dimethylsilane.\"",
        "links": [],
        "cross_references": [
          {
            "type": "name_match",
            "text": "silicon",
            "confidence": 1.0,
            "uuid": "443f4405-7a1f-47db-bf43-809557f77483",
            "name": "Silicon",
            "url": "https://haz-map.com/Agents/623",
            "category": "agents"
          },
          {
            "type": "name_match",
            "text": "ht",
            "confidence": 1.0,
            "uuid": "764df367-8d53-4a11-81a2-31ccfe122a8d",
            "name": "HT",
            "url": "https://haz-map.com/Agents/2168",
            "category": "agents"
          },
          {
            "type": "name_match",
            "text": "hexamethyldisiloxane",
            "confidence": 1.0,
            "uuid": "152d69f7-dd66-4d09-a6fb-55394a7f25d4",
            "name": "Hexamethyldisiloxane",
            "url": "https://haz-map.com/Agents/5523",
            "category": "agents"
          },
          {
            "type": "name_match",
            "text": "methylsilane",
            "confidence": 1.0,
            "uuid": "477dc5db-fed0-4dc8-8ece-f7392790a3b0",
            "name": "Methylsilane",
            "url": "https://haz-map.com/Agents/8380",
            "category": "agents"
          },
          {
            "type": "name_match",
            "text": "dimethylsilane",
            "confidence": 1.0,
            "uuid": "74897abd-ecfb-41f7-a881-8b3b57e397cf",
            "name": "Dimethylsilane",
            "url": "https://haz-map.com/Agents/13216",
            "category": "agents"
          }
        ]
      },
      "biomedical_references": {
        "original_name": "Biomedical References",
        "value": "Search PubMed",
        "links": [
          {
            "text": "Search PubMed",
            "url": "https://www.ncbi.nlm.nih.gov/pubmed?term=Trimethylsilanol%20AND%20human%5Bmh%5D%20AND%20%28Occupational%20Diseases%20%5Bmh%5D%20OR%20Occupational%20Exposure%20%5Bmh%5D%29%20%20AND%20%28tox%5Bsb%5D%29&cmd=search"
          }
        ],
        "cross_references": []
      }
    },
    "exposure_assessment": {
      "vapor_pressure": {
        "original_name": "Vapor Pressure",
        "value": "0.14 mm Hg",
        "links": [],
        "cross_references": []
      },
      "explanatory_notes": {
        "original_name": "Explanatory Notes",
        "value": "The Guide in the Emergency Response Guidebook is for \"Flammable liquid, n.o.s.\"",
        "links": [],
        "cross_references": []
      }
    },
    "adverse_effects": {
      "neurotoxin": {
        "original_name": "Neurotoxin",
        "value": "Other CNS neurotoxin",
        "links": [],
        "cross_references": []
      }
    },
    "diseases_processes_and_activities_linked_to_this_agent": {
      "other_information": {
        "original_name": "Other Information",
        "value": "No other related information on this agent was found.",
        "links": [],
        "cross_references": []
      }
    }
  },
  "cross_references": [
    {
      "type": "name_match",
      "text": "mica",
      "confidence": 1.0,
      "uuid": "433f26f1-c399-4596-b179-ce3843cfd465",
      "name": "Mica",
      "url": "https://haz-map.com/Agents/621",
      "category": "agents"
    },
    {
      "type": "name_match",
      "text": "silicon",
      "confidence": 1.0,
      "uuid": "443f4405-7a1f-47db-bf43-809557f77483",
      "name": "Silicon",
      "url": "https://haz-map.com/Agents/623",
      "category": "agents"
    },
    {
      "type": "name_match",
      "text": "ht",
      "confidence": 1.0,
      "uuid": "764df367-8d53-4a11-81a2-31ccfe122a8d",
      "name": "HT",
      "url": "https://haz-map.com/Agents/2168",
      "category": "agents"
    },
    {
      "type": "name_match",
      "text": "hexamethyldisiloxane",
      "confidence": 1.0,
      "uuid": "152d69f7-dd66-4d09-a6fb-55394a7f25d4",
      "name": "Hexamethyldisiloxane",
      "url": "https://haz-map.com/Agents/5523",
      "category": "agents"
    },
    {
      "type": "name_match",
      "text": "methylsilane",
      "confidence": 1.0,
      "uuid": "477dc5db-fed0-4dc8-8ece-f7392790a3b0",
      "name": "Methylsilane",
      "url": "https://haz-map.com/Agents/8380",
      "category": "agents"
    },
    {
      "type": "name_match",
      "text": "dimethylsilane",
      "confidence": 1.0,
      "uuid": "74897abd-ecfb-41f7-a881-8b3b57e397cf",
      "name": "Dimethylsilane",
      "url": "https://haz-map.com/Agents/13216",
      "category": "agents"
    },
    {
      "type": "name_match",
      "text": "trimethylsilanol",
      "confidence": 1.0,
      "uuid": "0fb59f2b-cc2d-48b9-b0ab-82a3952cecb8",
      "name": "Trimethylsilanol",
      "url": "https://haz-map.com/Agents/17265",
      "category": "agents"
    },
    {
      "type": "name_match",
      "text": "trimethylsilane",
      "confidence": 1.0,
      "uuid": "9eac8ed0-d439-4c2f-b2e1-784c743cff2b",
      "name": "Trimethylsilane",
      "url": "https://haz-map.com/Agents/18373",
      "category": "agents"
    }
  ],
  "all_links": [
    {
      "text": "Search PubMed",
      "url": "https://www.ncbi.nlm.nih.gov/pubmed?term=Trimethylsilanol%20AND%20human%5Bmh%5D%20AND%20%28Occupational%20Diseases%20%5Bmh%5D%20OR%20Occupational%20Exposure%20%5Bmh%5D%29%20%20AND%20%28tox%5Bsb%5D%29&cmd=search"
    }
  ]
}