{
  "metadata": {
    "scraped_from": "https://haz-map.com/Agents/12205",
    "entity_name": "Benzo(b)naphtho(2,3-d)thiophene",
    "category": "agents",
    "uuid": "10042d8c-be2e-49d4-b6af-ae07458f3e2b",
    "scraped_at": "2025-07-23T21:06:24.897440"
  },
  "parsed_at": "2025-07-24T01:14:10.439302",
  "title": "Benzo(b)naphtho(2,3-d)thiophene",
  "sections": {
    "general": {
      "agent_name": {
        "original_name": "Agent Name",
        "value": "Benzo(b)naphtho(2,3-d)thiophene",
        "links": [],
        "cross_references": [
          {
            "type": "name_match",
            "text": "thiophene",
            "confidence": 1.0,
            "uuid": "f7ccd5a0-b31f-419d-b64f-3472ae89f92f",
            "name": "Thiophene",
            "url": "https://haz-map.com/Agents/1479",
            "category": "agents"
          },
          {
            "type": "name_match",
            "text": "ht",
            "confidence": 1.0,
            "uuid": "764df367-8d53-4a11-81a2-31ccfe122a8d",
            "name": "HT",
            "url": "https://haz-map.com/Agents/2168",
            "category": "agents"
          },
          {
            "type": "name_match",
            "text": "benzo(b)naphtho(2,3-d)thiophene",
            "confidence": 1.0,
            "uuid": "10042d8c-be2e-49d4-b6af-ae07458f3e2b",
            "name": "Benzo(b)naphtho(2,3-d)thiophene",
            "url": "https://haz-map.com/Agents/12205",
            "category": "agents"
          }
        ]
      },
      "cas_number": {
        "original_name": "CAS Number",
        "value": "243-46-9",
        "links": [],
        "cross_references": []
      },
      "formula": {
        "original_name": "Formula",
        "value": "C16-H10-S",
        "links": [],
        "cross_references": []
      },
      "major_category": {
        "original_name": "Major Category",
        "value": "Other Classes",
        "links": [],
        "cross_references": []
      },
      "category": {
        "original_name": "Category",
        "value": "Other Aromatic Compounds",
        "links": [],
        "cross_references": []
      },
      "description": {
        "original_name": "Description",
        "value": "Almost white solid; [Acros Organics MSDS]",
        "links": [],
        "cross_references": []
      },
      "comments": {
        "original_name": "Comments",
        "value": "See \"Dibenzothiophene.\"",
        "links": [],
        "cross_references": [
          {
            "type": "name_match",
            "text": "thiophene",
            "confidence": 1.0,
            "uuid": "f7ccd5a0-b31f-419d-b64f-3472ae89f92f",
            "name": "Thiophene",
            "url": "https://haz-map.com/Agents/1479",
            "category": "agents"
          },
          {
            "type": "name_match",
            "text": "dibenzothiophene",
            "confidence": 1.0,
            "uuid": "0b465a27-bce6-4f2b-8710-cdb02834f327",
            "name": "Dibenzothiophene",
            "url": "https://haz-map.com/Agents/4737",
            "category": "agents"
          },
          {
            "type": "name_match",
            "text": "benzothiophene",
            "confidence": 1.0,
            "uuid": "f0b45426-a838-47ca-9040-b034903ae4bf",
            "name": "Benzothiophene",
            "url": "https://haz-map.com/Agents/12230",
            "category": "agents"
          }
        ]
      },
      "biomedical_references": {
        "original_name": "Biomedical References",
        "value": "Search PubMed",
        "links": [
          {
            "text": "Search PubMed",
            "url": "https://www.ncbi.nlm.nih.gov/pubmed?term=Benzo(b)naphtho(2%2c3-d)thiophene%20AND%20human%5Bmh%5D%20AND%20%28Occupational%20Diseases%20%5Bmh%5D%20OR%20Occupational%20Exposure%20%5Bmh%5D%29%20%20AND%20%28tox%5Bsb%5D%29&cmd=search"
          }
        ],
        "cross_references": []
      }
    },
    "exposure_assessment": {
      "vapor_pressure": {
        "original_name": "Vapor Pressure",
        "value": "8.97E-07 mm Hg",
        "links": [],
        "cross_references": []
      }
    },
    "diseases_processes_and_activities_linked_to_this_agent": {
      "other_information": {
        "original_name": "Other Information",
        "value": "No other related information on this agent was found.",
        "links": [],
        "cross_references": []
      }
    }
  },
  "cross_references": [
    {
      "type": "name_match",
      "text": "thiophene",
      "confidence": 1.0,
      "uuid": "f7ccd5a0-b31f-419d-b64f-3472ae89f92f",
      "name": "Thiophene",
      "url": "https://haz-map.com/Agents/1479",
      "category": "agents"
    },
    {
      "type": "name_match",
      "text": "ht",
      "confidence": 1.0,
      "uuid": "764df367-8d53-4a11-81a2-31ccfe122a8d",
      "name": "HT",
      "url": "https://haz-map.com/Agents/2168",
      "category": "agents"
    },
    {
      "type": "name_match",
      "text": "dibenzothiophene",
      "confidence": 1.0,
      "uuid": "0b465a27-bce6-4f2b-8710-cdb02834f327",
      "name": "Dibenzothiophene",
      "url": "https://haz-map.com/Agents/4737",
      "category": "agents"
    },
    {
      "type": "name_match",
      "text": "benzo(b)naphtho(2,3-d)thiophene",
      "confidence": 1.0,
      "uuid": "10042d8c-be2e-49d4-b6af-ae07458f3e2b",
      "name": "Benzo(b)naphtho(2,3-d)thiophene",
      "url": "https://haz-map.com/Agents/12205",
      "category": "agents"
    },
    {
      "type": "name_match",
      "text": "benzothiophene",
      "confidence": 1.0,
      "uuid": "f0b45426-a838-47ca-9040-b034903ae4bf",
      "name": "Benzothiophene",
      "url": "https://haz-map.com/Agents/12230",
      "category": "agents"
    }
  ],
  "all_links": [
    {
      "text": "Search PubMed",
      "url": "https://www.ncbi.nlm.nih.gov/pubmed?term=Benzo(b)naphtho(2%2c3-d)thiophene%20AND%20human%5Bmh%5D%20AND%20%28Occupational%20Diseases%20%5Bmh%5D%20OR%20Occupational%20Exposure%20%5Bmh%5D%29%20%20AND%20%28tox%5Bsb%5D%29&cmd=search"
    }
  ]
}