{
  "metadata": {
    "scraped_from": "https://haz-map.com/Agents/4753",
    "entity_name": "Dibutyl sebacate",
    "category": "agents",
    "uuid": "101b5c45-d8d6-40a2-8b9a-0f8d0424be4b",
    "scraped_at": "2025-07-23T19:44:18.775811"
  },
  "parsed_at": "2025-07-24T01:04:35.860619",
  "title": "Dibutyl sebacate",
  "sections": {
    "general": {
      "agent_name": {
        "original_name": "Agent Name",
        "value": "Dibutyl sebacate",
        "links": [],
        "cross_references": [
          {
            "type": "name_match",
            "text": "dibutyl sebacate",
            "confidence": 1.0,
            "uuid": "101b5c45-d8d6-40a2-8b9a-0f8d0424be4b",
            "name": "Dibutyl sebacate",
            "url": "https://haz-map.com/Agents/4753",
            "category": "agents"
          }
        ]
      },
      "cas_number": {
        "original_name": "CAS Number",
        "value": "109-43-3",
        "links": [],
        "cross_references": []
      },
      "formula": {
        "original_name": "Formula",
        "value": "C18-H34-O4",
        "links": [],
        "cross_references": []
      },
      "major_category": {
        "original_name": "Major Category",
        "value": "Other Classes",
        "links": [],
        "cross_references": []
      },
      "synonyms": {
        "original_name": "Synonyms",
        "value": "Bis(n-butyl) sebacate; Bis(n-butyl)sebacate; Butyl sebacate; Decanedioic acid, dibutyl ester; Di-n-butyl sebacate; Di-n-butylsebacate; Dibutyl 1,8-octanedicarboxylate; Dibutyl decanedioate; Dibutyl sebacinate; Dibutylester kyseliny sebakove [Czech]; Kodaflex DBS; Monoplex DBS; PX 404; Polycizer DBS; Sebacic acid, dibutyl ester; Staflex DBS; [ChemIDplus]",
        "links": [],
        "cross_references": [
          {
            "type": "name_match",
            "text": "octane",
            "confidence": 1.0,
            "uuid": "feb2932c-69c5-4142-b6b6-bde017998940",
            "name": "Octane",
            "url": "https://haz-map.com/Agents/106",
            "category": "agents"
          },
          {
            "type": "name_match",
            "text": "sebacic acid",
            "confidence": 1.0,
            "uuid": "94d4aacf-49e0-4ad7-85af-ba0f890be47e",
            "name": "Sebacic acid",
            "url": "https://haz-map.com/Agents/17219",
            "category": "agents"
          }
        ]
      },
      "category": {
        "original_name": "Category",
        "value": "Esters, Other",
        "links": [],
        "cross_references": []
      },
      "description": {
        "original_name": "Description",
        "value": "Colorless oily liquid; [ICSC] Odorless; [HSDB]",
        "links": [],
        "cross_references": []
      },
      "sourcesuses": {
        "original_name": "Sources/Uses",
        "value": "Used as plasticizer, rubber softener, dielectric liquid, flavoring ingredient, and additive to cosmetics and perfumes; [HSDB]",
        "links": [],
        "cross_references": []
      },
      "comments": {
        "original_name": "Comments",
        "value": "Safe when used as a flavoring agent in food; [JECFA] Causes somnolence, diarrhea, and abnormal liver function tests in lethal-dose feeding studies of rats; [RTECS] May cause skin sensitization; [ICSC] Emergency treatment: \"Irritants\"; Considered to be practically non-toxic by oral and dermal exposure; [HSDB] Search by CAS# found no article relating to allergic dermatitis; [PubMed] A skin irritant; No sensitizing effects known; [MSDSonline]",
        "links": [],
        "cross_references": [
          {
            "type": "name_match",
            "text": "diarrhea",
            "confidence": 1.0,
            "uuid": "001ae7b5-5f3c-42c2-bc33-81e7581abd53",
            "name": "diarrhea",
            "url": "https://haz-map.com/Findings/15",
            "category": "findings"
          },
          {
            "type": "name_match",
            "text": "dermatitis",
            "confidence": 1.0,
            "uuid": "fe9c05f2-b19f-4ceb-ac7a-ffb7d7a0cae0",
            "name": "dermatitis",
            "url": "https://haz-map.com/Findings/59",
            "category": "findings"
          },
          {
            "type": "name_match",
            "text": "irritants",
            "confidence": 1.0,
            "uuid": "9d2b9572-8c3e-48a4-ac68-63d6e2eb6f49",
            "name": "Irritants",
            "url": "https://haz-map.com/Agents/2063",
            "category": "agents"
          },
          {
            "type": "fuzzy_match",
            "text": "liver function test",
            "matched_name": "liver function test, abnormal",
            "confidence": 0.7099391480730223,
            "uuid": "914c0118-6d54-441d-ad3a-44c52b3d4e41",
            "category": "findings",
            "url": "https://haz-map.com/Findings/202"
          }
        ]
      },
      "biomedical_references": {
        "original_name": "Biomedical References",
        "value": "Search PubMed",
        "links": [
          {
            "text": "Search PubMed",
            "url": "https://www.ncbi.nlm.nih.gov/pubmed?term=Dibutyl+sebacate%20AND%20human%5Bmh%5D%20AND%20%28Occupational%20Diseases%20%5Bmh%5D%20OR%20Occupational%20Exposure%20%5Bmh%5D%29%20%20AND%20%28tox%5Bsb%5D%29&cmd=search"
          }
        ],
        "cross_references": []
      }
    },
    "exposure_assessment": {
      "vapor_pressure": {
        "original_name": "Vapor Pressure",
        "value": "4.69E-06 mm Hg",
        "links": [],
        "cross_references": []
      },
      "lethal_concentration": {
        "original_name": "Lethal Concentration",
        "value": "LC (rat) > 5.4 mg/m3/4h",
        "links": [],
        "cross_references": []
      },
      "nfpa": {
        "original_name": "NFPA",
        "value": "must be preheated",
        "links": [],
        "cross_references": []
      }
    },
    "adverse_effects": {
      "hepatotoxin": {
        "original_name": "Hepatotoxin",
        "value": "Hepatoxic (a) from occupational exposure (secondary effect) or (b) in animal studies or in humans after ingestion",
        "links": [],
        "cross_references": []
      }
    },
    "diseases_processes_and_activities_linked_to_this_agent": {
      "other_information": {
        "original_name": "Other Information",
        "value": "No other related information on this agent was found.",
        "links": [],
        "cross_references": []
      }
    }
  },
  "cross_references": [
    {
      "type": "name_match",
      "text": "diarrhea",
      "confidence": 1.0,
      "uuid": "001ae7b5-5f3c-42c2-bc33-81e7581abd53",
      "name": "diarrhea",
      "url": "https://haz-map.com/Findings/15",
      "category": "findings"
    },
    {
      "type": "name_match",
      "text": "dermatitis",
      "confidence": 1.0,
      "uuid": "fe9c05f2-b19f-4ceb-ac7a-ffb7d7a0cae0",
      "name": "dermatitis",
      "url": "https://haz-map.com/Findings/59",
      "category": "findings"
    },
    {
      "type": "name_match",
      "text": "octane",
      "confidence": 1.0,
      "uuid": "feb2932c-69c5-4142-b6b6-bde017998940",
      "name": "Octane",
      "url": "https://haz-map.com/Agents/106",
      "category": "agents"
    },
    {
      "type": "name_match",
      "text": "irritants",
      "confidence": 1.0,
      "uuid": "9d2b9572-8c3e-48a4-ac68-63d6e2eb6f49",
      "name": "Irritants",
      "url": "https://haz-map.com/Agents/2063",
      "category": "agents"
    },
    {
      "type": "name_match",
      "text": "dibutyl sebacate",
      "confidence": 1.0,
      "uuid": "101b5c45-d8d6-40a2-8b9a-0f8d0424be4b",
      "name": "Dibutyl sebacate",
      "url": "https://haz-map.com/Agents/4753",
      "category": "agents"
    },
    {
      "type": "name_match",
      "text": "sebacic acid",
      "confidence": 1.0,
      "uuid": "94d4aacf-49e0-4ad7-85af-ba0f890be47e",
      "name": "Sebacic acid",
      "url": "https://haz-map.com/Agents/17219",
      "category": "agents"
    },
    {
      "type": "fuzzy_match",
      "text": "liver function test",
      "matched_name": "liver function test, abnormal",
      "confidence": 0.7099391480730223,
      "uuid": "914c0118-6d54-441d-ad3a-44c52b3d4e41",
      "category": "findings",
      "url": "https://haz-map.com/Findings/202"
    }
  ],
  "all_links": [
    {
      "text": "Search PubMed",
      "url": "https://www.ncbi.nlm.nih.gov/pubmed?term=Dibutyl+sebacate%20AND%20human%5Bmh%5D%20AND%20%28Occupational%20Diseases%20%5Bmh%5D%20OR%20Occupational%20Exposure%20%5Bmh%5D%29%20%20AND%20%28tox%5Bsb%5D%29&cmd=search"
    }
  ]
}