{
  "metadata": {
    "scraped_from": "https://haz-map.com/Agents/10596",
    "entity_name": "2,2,3-Trimethylpentane",
    "category": "agents",
    "uuid": "10752c95-3000-4c88-81a5-8d3876015caf",
    "scraped_at": "2025-07-23T20:49:54.799754"
  },
  "parsed_at": "2025-07-24T01:01:45.261727",
  "title": "2,2,3-Trimethylpentane",
  "sections": {
    "general": {
      "agent_name": {
        "original_name": "Agent Name",
        "value": "2,2,3-Trimethylpentane",
        "links": [],
        "cross_references": [
          {
            "type": "name_match",
            "text": "2,2,3-trimethylpentane",
            "confidence": 1.0,
            "uuid": "10752c95-3000-4c88-81a5-8d3876015caf",
            "name": "2,2,3-Trimethylpentane",
            "url": "https://haz-map.com/Agents/10596",
            "category": "agents"
          },
          {
            "type": "fuzzy_match",
            "text": "3-trimethylpentane",
            "matched_name": "2,3,3-Trimethylpentane",
            "confidence": 0.8424242424242425,
            "uuid": "9a9afd14-cddb-45f8-b016-d2e6fc68a28a",
            "category": "agents",
            "url": "https://haz-map.com/Agents/9625"
          }
        ]
      },
      "cas_number": {
        "original_name": "CAS Number",
        "value": "564-02-3",
        "links": [],
        "cross_references": []
      },
      "formula": {
        "original_name": "Formula",
        "value": "C8-H18",
        "links": [],
        "cross_references": []
      },
      "major_category": {
        "original_name": "Major Category",
        "value": "Solvents",
        "links": [],
        "cross_references": []
      },
      "synonyms": {
        "original_name": "Synonyms",
        "value": "Pentane, 2,2,3-trimethyl-; [ChemIDplus] UN3295",
        "links": [],
        "cross_references": []
      },
      "category": {
        "original_name": "Category",
        "value": "Aliphatics, Saturated (<C12)",
        "links": [],
        "cross_references": []
      },
      "description": {
        "original_name": "Description",
        "value": "Liquid; [TCI America MSDS]",
        "links": [],
        "cross_references": []
      },
      "comments": {
        "original_name": "Comments",
        "value": "May have anesthetic effects (drowsiness, dizziness, and headache); [ChemSampCo MSDS] See \"3-Methylpentane.\"",
        "links": [],
        "cross_references": [
          {
            "type": "name_match",
            "text": "dizziness",
            "confidence": 1.0,
            "uuid": "4b0e6043-b228-49de-996c-b42ec8b3780e",
            "name": "dizziness",
            "url": "https://haz-map.com/Findings/16",
            "category": "findings"
          },
          {
            "type": "name_match",
            "text": "headache",
            "confidence": 1.0,
            "uuid": "a474a38d-66ac-44da-92de-de1c781a30e7",
            "name": "headache",
            "url": "https://haz-map.com/Findings/17",
            "category": "findings"
          },
          {
            "type": "name_match",
            "text": "3-methylpentane",
            "confidence": 1.0,
            "uuid": "698b4dee-7a99-499c-adfd-3cd8f7cc2b10",
            "name": "3-Methylpentane",
            "url": "https://haz-map.com/Agents/3242",
            "category": "agents"
          }
        ]
      },
      "biomedical_references": {
        "original_name": "Biomedical References",
        "value": "Search PubMed",
        "links": [
          {
            "text": "Search PubMed",
            "url": "https://www.ncbi.nlm.nih.gov/pubmed?term=2%2c2%2c3-Trimethylpentane%20AND%20human%5Bmh%5D%20AND%20%28Occupational%20Diseases%20%5Bmh%5D%20OR%20Occupational%20Exposure%20%5Bmh%5D%29%20%20AND%20%28tox%5Bsb%5D%29&cmd=search"
          }
        ],
        "cross_references": []
      }
    },
    "exposure_assessment": {
      "vapor_pressure": {
        "original_name": "Vapor Pressure",
        "value": "32.1 mm Hg",
        "links": [],
        "cross_references": []
      },
      "explanatory_notes": {
        "original_name": "Explanatory Notes",
        "value": "The Guide in the Emergency Response Guidebook is for \"Hydrocarbons, liquid, n.o.s.\" VP from ChemIDplus;",
        "links": [],
        "cross_references": [
          {
            "type": "name_match",
            "text": "carbon",
            "confidence": 1.0,
            "uuid": "b53f8815-ee80-40ef-b4aa-3b000e17dab5",
            "name": "Carbon",
            "url": "https://haz-map.com/Agents/1891",
            "category": "agents"
          },
          {
            "type": "fuzzy_match",
            "text": "hydrocarbons",
            "matched_name": "Hydrocarbons, C>3",
            "confidence": 0.7100840336134454,
            "uuid": "8eaa37ac-3931-44e4-9242-2734127fd661",
            "category": "agents",
            "url": "https://haz-map.com/Agents/14795"
          }
        ]
      },
      "nfpa": {
        "original_name": "NFPA",
        "value": "may ignite at ambient temp",
        "links": [],
        "cross_references": []
      }
    },
    "adverse_effects": {
      "neurotoxin": {
        "original_name": "Neurotoxin",
        "value": "Acute solvent syndrome",
        "links": [],
        "cross_references": []
      }
    },
    "diseases_processes_and_activities_linked_to_this_agent": {
      "diseases": {
        "original_name": "Diseases",
        "value": "Occupational diseases associated with exposure to this agent: Solvents, acute toxic effect",
        "links": [
          {
            "text": "Solvents, acute toxic effect",
            "url": "https://haz-map.com/Diseases/326"
          }
        ],
        "cross_references": [
          {
            "type": "url_match",
            "text": "Solvents, acute toxic effect",
            "url": "https://haz-map.com/Diseases/326",
            "confidence": 1.0,
            "uuid": "581e90e3-9d0c-45f0-aa6c-3468c28da129",
            "name": "Solvents, acute toxic effect",
            "category": "diseases"
          }
        ]
      }
    }
  },
  "cross_references": [
    {
      "type": "url_match",
      "text": "Solvents, acute toxic effect",
      "url": "https://haz-map.com/Diseases/326",
      "confidence": 1.0,
      "uuid": "581e90e3-9d0c-45f0-aa6c-3468c28da129",
      "name": "Solvents, acute toxic effect",
      "category": "diseases"
    },
    {
      "type": "name_match",
      "text": "dizziness",
      "confidence": 1.0,
      "uuid": "4b0e6043-b228-49de-996c-b42ec8b3780e",
      "name": "dizziness",
      "url": "https://haz-map.com/Findings/16",
      "category": "findings"
    },
    {
      "type": "name_match",
      "text": "headache",
      "confidence": 1.0,
      "uuid": "a474a38d-66ac-44da-92de-de1c781a30e7",
      "name": "headache",
      "url": "https://haz-map.com/Findings/17",
      "category": "findings"
    },
    {
      "type": "name_match",
      "text": "carbon",
      "confidence": 1.0,
      "uuid": "b53f8815-ee80-40ef-b4aa-3b000e17dab5",
      "name": "Carbon",
      "url": "https://haz-map.com/Agents/1891",
      "category": "agents"
    },
    {
      "type": "name_match",
      "text": "3-methylpentane",
      "confidence": 1.0,
      "uuid": "698b4dee-7a99-499c-adfd-3cd8f7cc2b10",
      "name": "3-Methylpentane",
      "url": "https://haz-map.com/Agents/3242",
      "category": "agents"
    },
    {
      "type": "name_match",
      "text": "2,2,3-trimethylpentane",
      "confidence": 1.0,
      "uuid": "10752c95-3000-4c88-81a5-8d3876015caf",
      "name": "2,2,3-Trimethylpentane",
      "url": "https://haz-map.com/Agents/10596",
      "category": "agents"
    },
    {
      "type": "fuzzy_match",
      "text": "3-trimethylpentane",
      "matched_name": "2,3,3-Trimethylpentane",
      "confidence": 0.8424242424242425,
      "uuid": "9a9afd14-cddb-45f8-b016-d2e6fc68a28a",
      "category": "agents",
      "url": "https://haz-map.com/Agents/9625"
    },
    {
      "type": "fuzzy_match",
      "text": "hydrocarbons",
      "matched_name": "Hydrocarbons, C>3",
      "confidence": 0.7100840336134454,
      "uuid": "8eaa37ac-3931-44e4-9242-2734127fd661",
      "category": "agents",
      "url": "https://haz-map.com/Agents/14795"
    }
  ],
  "all_links": [
    {
      "text": "Search PubMed",
      "url": "https://www.ncbi.nlm.nih.gov/pubmed?term=2%2c2%2c3-Trimethylpentane%20AND%20human%5Bmh%5D%20AND%20%28Occupational%20Diseases%20%5Bmh%5D%20OR%20Occupational%20Exposure%20%5Bmh%5D%29%20%20AND%20%28tox%5Bsb%5D%29&cmd=search"
    },
    {
      "text": "Solvents, acute toxic effect",
      "url": "https://haz-map.com/Diseases/326"
    }
  ]
}