{
  "metadata": {
    "scraped_from": "https://haz-map.com/Agents/21059",
    "entity_name": "Isonicotinamide",
    "category": "agents",
    "uuid": "108bf443-e8d1-4cf9-827f-0b9e32d9fb67",
    "scraped_at": "2025-07-23T22:36:51.020111"
  },
  "parsed_at": "2025-07-24T00:58:19.155316",
  "title": "Isonicotinamide",
  "sections": {
    "general": {
      "agent_name": {
        "original_name": "Agent Name",
        "value": "Isonicotinamide",
        "links": [],
        "cross_references": [
          {
            "type": "name_match",
            "text": "nicotinamide",
            "confidence": 1.0,
            "uuid": "eb13c633-8b67-4851-9fbe-b14c4c5564ed",
            "name": "Nicotinamide",
            "url": "https://haz-map.com/Agents/15948",
            "category": "agents"
          },
          {
            "type": "name_match",
            "text": "isonicotinamide",
            "confidence": 1.0,
            "uuid": "108bf443-e8d1-4cf9-827f-0b9e32d9fb67",
            "name": "Isonicotinamide",
            "url": "https://haz-map.com/Agents/21059",
            "category": "agents"
          }
        ]
      },
      "cas_number": {
        "original_name": "CAS Number",
        "value": "1453-82-3",
        "links": [],
        "cross_references": []
      },
      "formula": {
        "original_name": "Formula",
        "value": "C6-H6-N2-O",
        "links": [],
        "cross_references": []
      },
      "major_category": {
        "original_name": "Major Category",
        "value": "Nitrogen Compounds",
        "links": [],
        "cross_references": [
          {
            "type": "name_match",
            "text": "nitrogen",
            "confidence": 1.0,
            "uuid": "db5e90a9-06d2-45b9-8b81-f345a89b0bc0",
            "name": "Nitrogen",
            "url": "https://haz-map.com/Agents/1072",
            "category": "agents"
          }
        ]
      },
      "synonyms": {
        "original_name": "Synonyms",
        "value": "4-Carbamoylpyridine; gamma-Pyridinecarboxamide; Isonicotinic acid amide; 4-Pyridinecarboxamide; [ChemIDplus] Pyridine-4-carboxamide; [Acros Organics MSDS]",
        "links": [],
        "cross_references": [
          {
            "type": "name_match",
            "text": "pyridine",
            "confidence": 1.0,
            "uuid": "a2d916a4-844b-4df6-9be5-868b2b364d71",
            "name": "Pyridine",
            "url": "https://haz-map.com/Agents/616",
            "category": "agents"
          },
          {
            "type": "name_match",
            "text": "nicotinic acid",
            "confidence": 1.0,
            "uuid": "a2557ad0-66df-43a7-b01e-f9390d8e602f",
            "name": "Nicotinic acid",
            "url": "https://haz-map.com/Agents/15893",
            "category": "agents"
          },
          {
            "type": "name_match",
            "text": "oxamide",
            "confidence": 1.0,
            "uuid": "3b911451-e34f-4ab7-9228-2919a8e1aad5",
            "name": "Oxamide",
            "url": "https://haz-map.com/Agents/16307",
            "category": "agents"
          },
          {
            "type": "name_match",
            "text": "isonicotinic acid",
            "confidence": 1.0,
            "uuid": "bc949ff8-5445-456f-97ae-5b5eac9ad56b",
            "name": "Isonicotinic acid",
            "url": "https://haz-map.com/Agents/21060",
            "category": "agents"
          }
        ]
      },
      "category": {
        "original_name": "Category",
        "value": "Pyridines",
        "links": [],
        "cross_references": [
          {
            "type": "name_match",
            "text": "pyridine",
            "confidence": 1.0,
            "uuid": "a2d916a4-844b-4df6-9be5-868b2b364d71",
            "name": "Pyridine",
            "url": "https://haz-map.com/Agents/616",
            "category": "agents"
          }
        ]
      },
      "description": {
        "original_name": "Description",
        "value": "White powder; [Acros Organics MSDS]",
        "links": [],
        "cross_references": []
      },
      "sourcesuses": {
        "original_name": "Sources/Uses",
        "value": "\"Isonicotinamide (pyridine-4-carboxamide) is a chemical based on the nicotinamide structure, but in which the amide is in the 4-position and not the 3-position. It has the chemical formula C6H6N2O.\" [Wikipedia]",
        "links": [],
        "cross_references": [
          {
            "type": "name_match",
            "text": "pyridine",
            "confidence": 1.0,
            "uuid": "a2d916a4-844b-4df6-9be5-868b2b364d71",
            "name": "Pyridine",
            "url": "https://haz-map.com/Agents/616",
            "category": "agents"
          },
          {
            "type": "name_match",
            "text": "mica",
            "confidence": 1.0,
            "uuid": "433f26f1-c399-4596-b179-ce3843cfd465",
            "name": "Mica",
            "url": "https://haz-map.com/Agents/621",
            "category": "agents"
          },
          {
            "type": "name_match",
            "text": "nicotinamide",
            "confidence": 1.0,
            "uuid": "eb13c633-8b67-4851-9fbe-b14c4c5564ed",
            "name": "Nicotinamide",
            "url": "https://haz-map.com/Agents/15948",
            "category": "agents"
          },
          {
            "type": "name_match",
            "text": "oxamide",
            "confidence": 1.0,
            "uuid": "3b911451-e34f-4ab7-9228-2919a8e1aad5",
            "name": "Oxamide",
            "url": "https://haz-map.com/Agents/16307",
            "category": "agents"
          },
          {
            "type": "name_match",
            "text": "isonicotinamide",
            "confidence": 1.0,
            "uuid": "108bf443-e8d1-4cf9-827f-0b9e32d9fb67",
            "name": "Isonicotinamide",
            "url": "https://haz-map.com/Agents/21059",
            "category": "agents"
          }
        ]
      },
      "comments": {
        "original_name": "Comments",
        "value": "An irritant; [Acros Organics MSDS] See \"Nicotinamide.\"",
        "links": [],
        "cross_references": [
          {
            "type": "name_match",
            "text": "nicotinamide",
            "confidence": 1.0,
            "uuid": "eb13c633-8b67-4851-9fbe-b14c4c5564ed",
            "name": "Nicotinamide",
            "url": "https://haz-map.com/Agents/15948",
            "category": "agents"
          }
        ]
      },
      "biomedical_references": {
        "original_name": "Biomedical References",
        "value": "Search PubMed",
        "links": [
          {
            "text": "Search PubMed",
            "url": "https://www.ncbi.nlm.nih.gov/pubmed?term=Isonicotinamide%20AND%20human%5Bmh%5D%20AND%20%28Occupational%20Diseases%20%5Bmh%5D%20OR%20Occupational%20Exposure%20%5Bmh%5D%29%20%20AND%20%28tox%5Bsb%5D%29&cmd=search"
          }
        ],
        "cross_references": []
      }
    },
    "exposure_assessment": {
      "vapor_pressure": {
        "original_name": "Vapor Pressure",
        "value": "0.00042 mm Hg",
        "links": [],
        "cross_references": []
      }
    },
    "diseases_processes_and_activities_linked_to_this_agent": {
      "other_information": {
        "original_name": "Other Information",
        "value": "No other related information on this agent was found.",
        "links": [],
        "cross_references": []
      }
    }
  },
  "cross_references": [
    {
      "type": "name_match",
      "text": "pyridine",
      "confidence": 1.0,
      "uuid": "a2d916a4-844b-4df6-9be5-868b2b364d71",
      "name": "Pyridine",
      "url": "https://haz-map.com/Agents/616",
      "category": "agents"
    },
    {
      "type": "name_match",
      "text": "mica",
      "confidence": 1.0,
      "uuid": "433f26f1-c399-4596-b179-ce3843cfd465",
      "name": "Mica",
      "url": "https://haz-map.com/Agents/621",
      "category": "agents"
    },
    {
      "type": "name_match",
      "text": "nitrogen",
      "confidence": 1.0,
      "uuid": "db5e90a9-06d2-45b9-8b81-f345a89b0bc0",
      "name": "Nitrogen",
      "url": "https://haz-map.com/Agents/1072",
      "category": "agents"
    },
    {
      "type": "name_match",
      "text": "nicotinic acid",
      "confidence": 1.0,
      "uuid": "a2557ad0-66df-43a7-b01e-f9390d8e602f",
      "name": "Nicotinic acid",
      "url": "https://haz-map.com/Agents/15893",
      "category": "agents"
    },
    {
      "type": "name_match",
      "text": "nicotinamide",
      "confidence": 1.0,
      "uuid": "eb13c633-8b67-4851-9fbe-b14c4c5564ed",
      "name": "Nicotinamide",
      "url": "https://haz-map.com/Agents/15948",
      "category": "agents"
    },
    {
      "type": "name_match",
      "text": "oxamide",
      "confidence": 1.0,
      "uuid": "3b911451-e34f-4ab7-9228-2919a8e1aad5",
      "name": "Oxamide",
      "url": "https://haz-map.com/Agents/16307",
      "category": "agents"
    },
    {
      "type": "name_match",
      "text": "isonicotinamide",
      "confidence": 1.0,
      "uuid": "108bf443-e8d1-4cf9-827f-0b9e32d9fb67",
      "name": "Isonicotinamide",
      "url": "https://haz-map.com/Agents/21059",
      "category": "agents"
    },
    {
      "type": "name_match",
      "text": "isonicotinic acid",
      "confidence": 1.0,
      "uuid": "bc949ff8-5445-456f-97ae-5b5eac9ad56b",
      "name": "Isonicotinic acid",
      "url": "https://haz-map.com/Agents/21060",
      "category": "agents"
    }
  ],
  "all_links": [
    {
      "text": "Search PubMed",
      "url": "https://www.ncbi.nlm.nih.gov/pubmed?term=Isonicotinamide%20AND%20human%5Bmh%5D%20AND%20%28Occupational%20Diseases%20%5Bmh%5D%20OR%20Occupational%20Exposure%20%5Bmh%5D%29%20%20AND%20%28tox%5Bsb%5D%29&cmd=search"
    }
  ]
}