{
  "metadata": {
    "scraped_from": "https://haz-map.com/Agents/19504",
    "entity_name": "2,6-Dimethylpiperidine",
    "category": "agents",
    "uuid": "1097feab-412e-493d-a39b-faaaf20ba52a",
    "scraped_at": "2025-07-23T22:07:30.041207"
  },
  "parsed_at": "2025-07-24T00:55:33.111256",
  "title": "2,6-Dimethylpiperidine",
  "sections": {
    "general": {
      "agent_name": {
        "original_name": "Agent Name",
        "value": "2,6-Dimethylpiperidine",
        "links": [],
        "cross_references": [
          {
            "type": "name_match",
            "text": "piperidine",
            "confidence": 1.0,
            "uuid": "622e458e-e32f-4d3a-80d2-7455291a8a04",
            "name": "Piperidine",
            "url": "https://haz-map.com/Agents/1427",
            "category": "agents"
          },
          {
            "type": "name_match",
            "text": "2,6-dimethylpiperidine",
            "confidence": 1.0,
            "uuid": "1097feab-412e-493d-a39b-faaaf20ba52a",
            "name": "2,6-Dimethylpiperidine",
            "url": "https://haz-map.com/Agents/19504",
            "category": "agents"
          }
        ]
      },
      "cas_number": {
        "original_name": "CAS Number",
        "value": "766-17-6",
        "links": [],
        "cross_references": []
      },
      "formula": {
        "original_name": "Formula",
        "value": "C7-H15-N",
        "links": [],
        "cross_references": []
      },
      "major_category": {
        "original_name": "Major Category",
        "value": "Nitrogen Compounds",
        "links": [],
        "cross_references": [
          {
            "type": "name_match",
            "text": "nitrogen",
            "confidence": 1.0,
            "uuid": "db5e90a9-06d2-45b9-8b81-f345a89b0bc0",
            "name": "Nitrogen",
            "url": "https://haz-map.com/Agents/1072",
            "category": "agents"
          }
        ]
      },
      "synonyms": {
        "original_name": "Synonyms",
        "value": "cis-2,6-Dimethylpiperidine; [Sigma-Aldrich MSDS] UN1993",
        "links": [],
        "cross_references": [
          {
            "type": "name_match",
            "text": "piperidine",
            "confidence": 1.0,
            "uuid": "622e458e-e32f-4d3a-80d2-7455291a8a04",
            "name": "Piperidine",
            "url": "https://haz-map.com/Agents/1427",
            "category": "agents"
          },
          {
            "type": "name_match",
            "text": "2,6-dimethylpiperidine",
            "confidence": 1.0,
            "uuid": "1097feab-412e-493d-a39b-faaaf20ba52a",
            "name": "2,6-Dimethylpiperidine",
            "url": "https://haz-map.com/Agents/19504",
            "category": "agents"
          }
        ]
      },
      "category": {
        "original_name": "Category",
        "value": "Amines, Cyclic",
        "links": [],
        "cross_references": []
      },
      "description": {
        "original_name": "Description",
        "value": "Light yellow liquid; [Sigma-Aldrich MSDS]",
        "links": [],
        "cross_references": [
          {
            "type": "name_match",
            "text": "ht",
            "confidence": 1.0,
            "uuid": "764df367-8d53-4a11-81a2-31ccfe122a8d",
            "name": "HT",
            "url": "https://haz-map.com/Agents/2168",
            "category": "agents"
          }
        ]
      },
      "comments": {
        "original_name": "Comments",
        "value": "An irritant; [Sigma-Aldrich MSDS] See \"Piperidine.\"",
        "links": [],
        "cross_references": [
          {
            "type": "name_match",
            "text": "piperidine",
            "confidence": 1.0,
            "uuid": "622e458e-e32f-4d3a-80d2-7455291a8a04",
            "name": "Piperidine",
            "url": "https://haz-map.com/Agents/1427",
            "category": "agents"
          }
        ]
      },
      "biomedical_references": {
        "original_name": "Biomedical References",
        "value": "Search PubMed",
        "links": [
          {
            "text": "Search PubMed",
            "url": "https://www.ncbi.nlm.nih.gov/pubmed?term=2%2c6-Dimethylpiperidine%20AND%20human%5Bmh%5D%20AND%20%28Occupational%20Diseases%20%5Bmh%5D%20OR%20Occupational%20Exposure%20%5Bmh%5D%29%20%20AND%20%28tox%5Bsb%5D%29&cmd=search"
          }
        ],
        "cross_references": []
      }
    },
    "exposure_assessment": {
      "vapor_pressure": {
        "original_name": "Vapor Pressure",
        "value": "2.56 mm Hg",
        "links": [],
        "cross_references": []
      },
      "explanatory_notes": {
        "original_name": "Explanatory Notes",
        "value": "The Guide in the Emergency Response Guidebook is for \"Flammable liquid, n.o.s.\"",
        "links": [],
        "cross_references": []
      }
    },
    "diseases_processes_and_activities_linked_to_this_agent": {
      "other_information": {
        "original_name": "Other Information",
        "value": "No other related information on this agent was found.",
        "links": [],
        "cross_references": []
      }
    }
  },
  "cross_references": [
    {
      "type": "name_match",
      "text": "nitrogen",
      "confidence": 1.0,
      "uuid": "db5e90a9-06d2-45b9-8b81-f345a89b0bc0",
      "name": "Nitrogen",
      "url": "https://haz-map.com/Agents/1072",
      "category": "agents"
    },
    {
      "type": "name_match",
      "text": "piperidine",
      "confidence": 1.0,
      "uuid": "622e458e-e32f-4d3a-80d2-7455291a8a04",
      "name": "Piperidine",
      "url": "https://haz-map.com/Agents/1427",
      "category": "agents"
    },
    {
      "type": "name_match",
      "text": "ht",
      "confidence": 1.0,
      "uuid": "764df367-8d53-4a11-81a2-31ccfe122a8d",
      "name": "HT",
      "url": "https://haz-map.com/Agents/2168",
      "category": "agents"
    },
    {
      "type": "name_match",
      "text": "2,6-dimethylpiperidine",
      "confidence": 1.0,
      "uuid": "1097feab-412e-493d-a39b-faaaf20ba52a",
      "name": "2,6-Dimethylpiperidine",
      "url": "https://haz-map.com/Agents/19504",
      "category": "agents"
    }
  ],
  "all_links": [
    {
      "text": "Search PubMed",
      "url": "https://www.ncbi.nlm.nih.gov/pubmed?term=2%2c6-Dimethylpiperidine%20AND%20human%5Bmh%5D%20AND%20%28Occupational%20Diseases%20%5Bmh%5D%20OR%20Occupational%20Exposure%20%5Bmh%5D%29%20%20AND%20%28tox%5Bsb%5D%29&cmd=search"
    }
  ]
}