{
  "metadata": {
    "scraped_from": "https://haz-map.com/Agents/7498",
    "entity_name": "Tri-allate",
    "category": "agents",
    "uuid": "10d0ef33-b91d-4cb7-b78d-445b88317d01",
    "scraped_at": "2025-07-23T20:13:22.477627"
  },
  "parsed_at": "2025-07-24T01:04:04.810973",
  "title": "Tri-allate",
  "sections": {
    "general": {
      "agent_name": {
        "original_name": "Agent Name",
        "value": "Tri-allate",
        "links": [],
        "cross_references": [
          {
            "type": "name_match",
            "text": "tri-allate",
            "confidence": 1.0,
            "uuid": "10d0ef33-b91d-4cb7-b78d-445b88317d01",
            "name": "Tri-allate",
            "url": "https://haz-map.com/Agents/7498",
            "category": "agents"
          }
        ]
      },
      "cas_number": {
        "original_name": "CAS Number",
        "value": "2303-17-5",
        "links": [],
        "cross_references": []
      },
      "formula": {
        "original_name": "Formula",
        "value": "C10-H16-Cl3-N-O-S",
        "links": [],
        "cross_references": []
      },
      "major_category": {
        "original_name": "Major Category",
        "value": "Pesticides",
        "links": [],
        "cross_references": []
      },
      "synonyms": {
        "original_name": "Synonyms",
        "value": "2,3,3-Trichlorallyl-N,N-(diisopropyl)-thiocarbamat [German]; 2,3,3-Trichloro-2-propene-1-thiol diisopropylcarbamate; 2,3,3-Trichloroallyl N,N-diisopropylthiocarbamate; 2,3,3-Trichloroallyl diisopropylthiocarbamate; 2-Propene-1-thiol, 2,3,3-trichloro-, diisopropylcarbamate; Avadex BW; Bis(1-methylethyl)carbamothioic acid, S-(2,3,3-trichloro-2-propenyl)ester; CP 23426; Carbamic acid, diisopropylthio-, S-(2,3,3-trichloroallyl) ester; Carbamothioic acid, bis(1-methylethyl)-, S-(2,3,3-trichloro-2-propenyl)ester; Diisopropylthiocarbamic acid S-(2,3,3-trichloroallyl) ester; Diisopropyltrichloroallylthiocarbamate; Dipthal; Far-Go; N,N-Diisopropyl-2,3,3-trichlorallyl-thiolcarbamat [German]; N-Diisopropylthiocarbamic acid S-2,3,3-trichloro-2-propenyl ester; S-(2,3,3-Trichloro-2-propenyl) bis(1-methylethyl)carbamothioate (9CI); S-(2,3,3-Trichloro-2-propenyl) bis(1-methylethyl)carbamothiote; S-(2,3,3-Trichloroallyl) diisopropylthiocarbamate (8CI); S-(2,3,3-Trichloroallyl)diisopropylthiocarbamate; S-2,3,3-Trichloroallyl N,N-diisopropylthiocarbamate; S-2,3,3-Trichloroallyl-N,N-diisopropylthiolcarbamate; Thiocarbamic acid, N-diisopropyl-, S-2,3,3-trichloroallyl ester; Triallat [German]; Triallate; Triamyl; [ChemIDplus]",
        "links": [],
        "cross_references": [
          {
            "type": "name_match",
            "text": "moth",
            "confidence": 1.0,
            "uuid": "14a33a40-8ea5-4ef5-b71a-3731a9d4ba32",
            "name": "Moth",
            "url": "https://haz-map.com/Agents/907",
            "category": "agents"
          },
          {
            "type": "name_match",
            "text": "chloral",
            "confidence": 1.0,
            "uuid": "4484bb9d-804f-4aa4-bb27-31f95359d89e",
            "name": "Chloral",
            "url": "https://haz-map.com/Agents/4272",
            "category": "agents"
          }
        ]
      },
      "category": {
        "original_name": "Category",
        "value": "Herbicides, Thiocarbamate",
        "links": [],
        "cross_references": [
          {
            "type": "name_match",
            "text": "herbicides",
            "confidence": 1.0,
            "uuid": "195f29ae-3f15-47c5-836d-0a9791db3fc1",
            "name": "HERBICIDES",
            "url": "https://haz-map.com/Agents/703",
            "category": "agents"
          }
        ]
      },
      "description": {
        "original_name": "Description",
        "value": "Oily liquid; mp 29–30 deg C; [Hawley] Clear liquid or colorless solid; Technical product is amber liquid; [ICSC] Dark brown to yellow solid or clear brown to dark brown liquid above 30 deg C; [HSDB]",
        "links": [],
        "cross_references": []
      },
      "sourcesuses": {
        "original_name": "Sources/Uses",
        "value": "Used as selective pre-emergence herbicide for control of wild oats and some annual grasses in crops; [HSDB]",
        "links": [],
        "cross_references": []
      },
      "comments": {
        "original_name": "Comments",
        "value": "A skin and eye irritant; [ICSC] May cause skin sensitization; [eChemPortal: ESIS] May cause irritation; May cause skin sensitization; [MSDSonline]",
        "links": [],
        "cross_references": []
      },
      "reference_link_1": {
        "original_name": "Reference Link #1",
        "value": "INCHEM HSG: Tri-allate - 1994",
        "links": [
          {
            "text": "INCHEM HSG: Tri-allate - 1994",
            "url": "http://www.inchem.org/documents/hsg/hsg/hsg89.htm"
          }
        ],
        "cross_references": [
          {
            "type": "name_match",
            "text": "tri-allate",
            "confidence": 1.0,
            "uuid": "10d0ef33-b91d-4cb7-b78d-445b88317d01",
            "name": "Tri-allate",
            "url": "https://haz-map.com/Agents/7498",
            "category": "agents"
          }
        ]
      },
      "biomedical_references": {
        "original_name": "Biomedical References",
        "value": "Search PubMed",
        "links": [
          {
            "text": "Search PubMed",
            "url": "https://www.ncbi.nlm.nih.gov/pubmed?term=Tri-allate%20AND%20human%5Bmh%5D%20AND%20%28Occupational%20Diseases%20%5Bmh%5D%20OR%20Occupational%20Exposure%20%5Bmh%5D%29%20%20AND%20%28tox%5Bsb%5D%29&cmd=search"
          }
        ],
        "cross_references": []
      }
    },
    "exposure_assessment": {
      "vapor_pressure": {
        "original_name": "Vapor Pressure",
        "value": "0.00012 mm Hg",
        "links": [],
        "cross_references": []
      },
      "lethal_concentration": {
        "original_name": "Lethal Concentration",
        "value": "LCLo (cats) = 400 mg/m3/4h",
        "links": [],
        "cross_references": []
      },
      "reference_link_2": {
        "original_name": "Reference Link #2",
        "value": "INCHEM: Thiocarbamate pesticides: A general introduction (EHC 76 - 1988)",
        "links": [
          {
            "text": "INCHEM: Thiocarbamate pesticides: A general introduction (EHC 76 - 1988)",
            "url": "http://www.inchem.org/documents/ehc/ehc/ehc76.htm"
          }
        ],
        "cross_references": []
      }
    },
    "adverse_effects": {
      "skin_sensitizer": {
        "original_name": "Skin Sensitizer",
        "value": "Yes",
        "links": [],
        "cross_references": []
      }
    },
    "diseases_processes_and_activities_linked_to_this_agent": {
      "diseases": {
        "original_name": "Diseases",
        "value": "Occupational diseases associated with exposure to this agent: Contact dermatitis, allergic",
        "links": [
          {
            "text": "Contact dermatitis, allergic",
            "url": "https://haz-map.com/Diseases/18"
          }
        ],
        "cross_references": [
          {
            "type": "url_match",
            "text": "Contact dermatitis, allergic",
            "url": "https://haz-map.com/Diseases/18",
            "confidence": 1.0,
            "uuid": "c9499de0-9aa1-41bf-8753-cd5b28a63e29",
            "name": "Contact dermatitis, allergic",
            "category": "diseases"
          },
          {
            "type": "name_match",
            "text": "dermatitis",
            "confidence": 1.0,
            "uuid": "fe9c05f2-b19f-4ceb-ac7a-ffb7d7a0cae0",
            "name": "dermatitis",
            "url": "https://haz-map.com/Findings/59",
            "category": "findings"
          }
        ]
      },
      "processes": {
        "original_name": "Processes",
        "value": "Industrial Processes with risk of exposure: Farming (Pesticides)",
        "links": [
          {
            "text": "Farming (Pesticides)",
            "url": "https://haz-map.com/Processes/218"
          }
        ],
        "cross_references": [
          {
            "type": "url_match",
            "text": "Farming (Pesticides)",
            "url": "https://haz-map.com/Processes/218",
            "confidence": 1.0,
            "uuid": "cf1e5815-c9bb-4917-82a5-391848170b7e",
            "name": "Farming (Pesticides)",
            "category": "processes"
          }
        ]
      }
    }
  },
  "cross_references": [
    {
      "type": "url_match",
      "text": "Contact dermatitis, allergic",
      "url": "https://haz-map.com/Diseases/18",
      "confidence": 1.0,
      "uuid": "c9499de0-9aa1-41bf-8753-cd5b28a63e29",
      "name": "Contact dermatitis, allergic",
      "category": "diseases"
    },
    {
      "type": "url_match",
      "text": "Farming (Pesticides)",
      "url": "https://haz-map.com/Processes/218",
      "confidence": 1.0,
      "uuid": "cf1e5815-c9bb-4917-82a5-391848170b7e",
      "name": "Farming (Pesticides)",
      "category": "processes"
    },
    {
      "type": "name_match",
      "text": "dermatitis",
      "confidence": 1.0,
      "uuid": "fe9c05f2-b19f-4ceb-ac7a-ffb7d7a0cae0",
      "name": "dermatitis",
      "url": "https://haz-map.com/Findings/59",
      "category": "findings"
    },
    {
      "type": "name_match",
      "text": "herbicides",
      "confidence": 1.0,
      "uuid": "195f29ae-3f15-47c5-836d-0a9791db3fc1",
      "name": "HERBICIDES",
      "url": "https://haz-map.com/Agents/703",
      "category": "agents"
    },
    {
      "type": "name_match",
      "text": "moth",
      "confidence": 1.0,
      "uuid": "14a33a40-8ea5-4ef5-b71a-3731a9d4ba32",
      "name": "Moth",
      "url": "https://haz-map.com/Agents/907",
      "category": "agents"
    },
    {
      "type": "name_match",
      "text": "chloral",
      "confidence": 1.0,
      "uuid": "4484bb9d-804f-4aa4-bb27-31f95359d89e",
      "name": "Chloral",
      "url": "https://haz-map.com/Agents/4272",
      "category": "agents"
    },
    {
      "type": "name_match",
      "text": "tri-allate",
      "confidence": 1.0,
      "uuid": "10d0ef33-b91d-4cb7-b78d-445b88317d01",
      "name": "Tri-allate",
      "url": "https://haz-map.com/Agents/7498",
      "category": "agents"
    }
  ],
  "all_links": [
    {
      "text": "INCHEM HSG: Tri-allate - 1994",
      "url": "http://www.inchem.org/documents/hsg/hsg/hsg89.htm"
    },
    {
      "text": "Search PubMed",
      "url": "https://www.ncbi.nlm.nih.gov/pubmed?term=Tri-allate%20AND%20human%5Bmh%5D%20AND%20%28Occupational%20Diseases%20%5Bmh%5D%20OR%20Occupational%20Exposure%20%5Bmh%5D%29%20%20AND%20%28tox%5Bsb%5D%29&cmd=search"
    },
    {
      "text": "INCHEM: Thiocarbamate pesticides: A general introduction (EHC 76 - 1988)",
      "url": "http://www.inchem.org/documents/ehc/ehc/ehc76.htm"
    },
    {
      "text": "Contact dermatitis, allergic",
      "url": "https://haz-map.com/Diseases/18"
    },
    {
      "text": "Farming (Pesticides)",
      "url": "https://haz-map.com/Processes/218"
    }
  ]
}