{
  "metadata": {
    "scraped_from": "https://haz-map.com/Agents/20023",
    "entity_name": "4-Chlorobutyronitrile",
    "category": "agents",
    "uuid": "10d1dc61-43f1-4bf6-891f-71cfa35ccc10",
    "scraped_at": "2025-07-23T22:17:28.977566"
  },
  "parsed_at": "2025-07-24T01:05:38.199374",
  "title": "4-Chlorobutyronitrile",
  "sections": {
    "general": {
      "agent_name": {
        "original_name": "Agent Name",
        "value": "4-Chlorobutyronitrile",
        "links": [],
        "cross_references": [
          {
            "type": "name_match",
            "text": "4-chlorobutyronitrile",
            "confidence": 1.0,
            "uuid": "10d1dc61-43f1-4bf6-891f-71cfa35ccc10",
            "name": "4-Chlorobutyronitrile",
            "url": "https://haz-map.com/Agents/20023",
            "category": "agents"
          }
        ]
      },
      "cas_number": {
        "original_name": "CAS Number",
        "value": "628-20-6",
        "links": [],
        "cross_references": []
      },
      "formula": {
        "original_name": "Formula",
        "value": "C4-H6-Cl-N",
        "links": [],
        "cross_references": []
      },
      "major_category": {
        "original_name": "Major Category",
        "value": "Nitrogen Compounds",
        "links": [],
        "cross_references": [
          {
            "type": "name_match",
            "text": "nitrogen",
            "confidence": 1.0,
            "uuid": "db5e90a9-06d2-45b9-8b81-f345a89b0bc0",
            "name": "Nitrogen",
            "url": "https://haz-map.com/Agents/1072",
            "category": "agents"
          }
        ]
      },
      "synonyms": {
        "original_name": "Synonyms",
        "value": "1-Chloro-3-cyanopropane; 4-Chlorobutanenitrile; gamma-Chlorobutyronitrile; Butanenitrile, 4-chloro-; Butyronitrile, 4-chloro-; [ChemIDplus] UN3276",
        "links": [],
        "cross_references": [
          {
            "type": "name_match",
            "text": "propane",
            "confidence": 1.0,
            "uuid": "563a611b-46ea-4bdc-b77b-17d8f7646283",
            "name": "Propane",
            "url": "https://haz-map.com/Agents/607",
            "category": "agents"
          }
        ]
      },
      "category": {
        "original_name": "Category",
        "value": "Nitriles",
        "links": [],
        "cross_references": [
          {
            "type": "name_match",
            "text": "nitriles",
            "confidence": 1.0,
            "uuid": "41430895-c07a-4421-888b-3d7122a4cd55",
            "name": "NITRILES",
            "url": "https://haz-map.com/Agents/715",
            "category": "agents"
          }
        ]
      },
      "description": {
        "original_name": "Description",
        "value": "White to light yellow liquid; [CHRIS] Colorless liquid; [Alfa Aesar MSDS]",
        "links": [],
        "cross_references": [
          {
            "type": "name_match",
            "text": "ht",
            "confidence": 1.0,
            "uuid": "764df367-8d53-4a11-81a2-31ccfe122a8d",
            "name": "HT",
            "url": "https://haz-map.com/Agents/2168",
            "category": "agents"
          }
        ]
      },
      "comments": {
        "original_name": "Comments",
        "value": "An eye irritant; [CAMEO] An eye, nose, and throat irritant; [CHRIS] A skin and strong eye irritant; Toxic by ingestion; [Alfa Aesar MSDS] See \"3-Chloropropanonitrile.\"",
        "links": [],
        "cross_references": [
          {
            "type": "name_match",
            "text": "3-chloropropanonitrile",
            "confidence": 1.0,
            "uuid": "518e4f51-85aa-49cc-ad60-d8ab62dcd481",
            "name": "3-Chloropropanonitrile",
            "url": "https://haz-map.com/Agents/3227",
            "category": "agents"
          }
        ]
      },
      "biomedical_references": {
        "original_name": "Biomedical References",
        "value": "Search PubMed",
        "links": [
          {
            "text": "Search PubMed",
            "url": "https://www.ncbi.nlm.nih.gov/pubmed?term=4-Chlorobutyronitrile%20AND%20human%5Bmh%5D%20AND%20%28Occupational%20Diseases%20%5Bmh%5D%20OR%20Occupational%20Exposure%20%5Bmh%5D%29%20%20AND%20%28tox%5Bsb%5D%29&cmd=search"
          }
        ],
        "cross_references": []
      }
    },
    "exposure_assessment": {
      "tih": {
        "original_name": "TIH",
        "value": "Yes",
        "links": [],
        "cross_references": []
      },
      "vapor_pressure": {
        "original_name": "Vapor Pressure",
        "value": "1 mm Hg",
        "links": [],
        "cross_references": []
      },
      "explanatory_notes": {
        "original_name": "Explanatory Notes",
        "value": "The Guide in the Emergency Response Guidebook is for \"Nitriles, liquid, toxic, n.o.s.\"",
        "links": [],
        "cross_references": [
          {
            "type": "name_match",
            "text": "nitriles",
            "confidence": 1.0,
            "uuid": "41430895-c07a-4421-888b-3d7122a4cd55",
            "name": "NITRILES",
            "url": "https://haz-map.com/Agents/715",
            "category": "agents"
          }
        ]
      }
    },
    "adverse_effects": {
      "other_poison": {
        "original_name": "Other Poison",
        "value": "Chemical Asphyxiant",
        "links": [],
        "cross_references": [
          {
            "type": "name_match",
            "text": "mica",
            "confidence": 1.0,
            "uuid": "433f26f1-c399-4596-b179-ce3843cfd465",
            "name": "Mica",
            "url": "https://haz-map.com/Agents/621",
            "category": "agents"
          }
        ]
      }
    },
    "diseases_processes_and_activities_linked_to_this_agent": {
      "diseases": {
        "original_name": "Diseases",
        "value": "Occupational diseases associated with exposure to this agent: Asphyxiation, chemical",
        "links": [
          {
            "text": "Asphyxiation, chemical",
            "url": "https://haz-map.com/Diseases/351"
          }
        ],
        "cross_references": [
          {
            "type": "url_match",
            "text": "Asphyxiation, chemical",
            "url": "https://haz-map.com/Diseases/351",
            "confidence": 1.0,
            "uuid": "78d8c6de-b137-4149-8098-0b7e8b092753",
            "name": "Asphyxiation, chemical",
            "category": "diseases"
          },
          {
            "type": "name_match",
            "text": "mica",
            "confidence": 1.0,
            "uuid": "433f26f1-c399-4596-b179-ce3843cfd465",
            "name": "Mica",
            "url": "https://haz-map.com/Agents/621",
            "category": "agents"
          }
        ]
      }
    }
  },
  "cross_references": [
    {
      "type": "url_match",
      "text": "Asphyxiation, chemical",
      "url": "https://haz-map.com/Diseases/351",
      "confidence": 1.0,
      "uuid": "78d8c6de-b137-4149-8098-0b7e8b092753",
      "name": "Asphyxiation, chemical",
      "category": "diseases"
    },
    {
      "type": "name_match",
      "text": "propane",
      "confidence": 1.0,
      "uuid": "563a611b-46ea-4bdc-b77b-17d8f7646283",
      "name": "Propane",
      "url": "https://haz-map.com/Agents/607",
      "category": "agents"
    },
    {
      "type": "name_match",
      "text": "mica",
      "confidence": 1.0,
      "uuid": "433f26f1-c399-4596-b179-ce3843cfd465",
      "name": "Mica",
      "url": "https://haz-map.com/Agents/621",
      "category": "agents"
    },
    {
      "type": "name_match",
      "text": "nitriles",
      "confidence": 1.0,
      "uuid": "41430895-c07a-4421-888b-3d7122a4cd55",
      "name": "NITRILES",
      "url": "https://haz-map.com/Agents/715",
      "category": "agents"
    },
    {
      "type": "name_match",
      "text": "nitrogen",
      "confidence": 1.0,
      "uuid": "db5e90a9-06d2-45b9-8b81-f345a89b0bc0",
      "name": "Nitrogen",
      "url": "https://haz-map.com/Agents/1072",
      "category": "agents"
    },
    {
      "type": "name_match",
      "text": "ht",
      "confidence": 1.0,
      "uuid": "764df367-8d53-4a11-81a2-31ccfe122a8d",
      "name": "HT",
      "url": "https://haz-map.com/Agents/2168",
      "category": "agents"
    },
    {
      "type": "name_match",
      "text": "3-chloropropanonitrile",
      "confidence": 1.0,
      "uuid": "518e4f51-85aa-49cc-ad60-d8ab62dcd481",
      "name": "3-Chloropropanonitrile",
      "url": "https://haz-map.com/Agents/3227",
      "category": "agents"
    },
    {
      "type": "name_match",
      "text": "4-chlorobutyronitrile",
      "confidence": 1.0,
      "uuid": "10d1dc61-43f1-4bf6-891f-71cfa35ccc10",
      "name": "4-Chlorobutyronitrile",
      "url": "https://haz-map.com/Agents/20023",
      "category": "agents"
    }
  ],
  "all_links": [
    {
      "text": "Search PubMed",
      "url": "https://www.ncbi.nlm.nih.gov/pubmed?term=4-Chlorobutyronitrile%20AND%20human%5Bmh%5D%20AND%20%28Occupational%20Diseases%20%5Bmh%5D%20OR%20Occupational%20Exposure%20%5Bmh%5D%29%20%20AND%20%28tox%5Bsb%5D%29&cmd=search"
    },
    {
      "text": "Asphyxiation, chemical",
      "url": "https://haz-map.com/Diseases/351"
    }
  ]
}