{
  "metadata": {
    "scraped_from": "https://haz-map.com/Agents/20437",
    "entity_name": "Chrysoidine Free Base",
    "category": "agents",
    "uuid": "10d7fc97-cdad-45d8-a7ef-9b5e2850adb8",
    "scraped_at": "2025-07-23T22:25:16.735130"
  },
  "parsed_at": "2025-07-24T01:01:25.380031",
  "title": "Chrysoidine Free Base",
  "sections": {
    "general": {
      "agent_name": {
        "original_name": "Agent Name",
        "value": "Chrysoidine Free Base",
        "links": [],
        "cross_references": [
          {
            "type": "name_match",
            "text": "chrysoidine",
            "confidence": 1.0,
            "uuid": "4f84c570-b206-4aa2-9d5a-5490f54f461a",
            "name": "Chrysoidine",
            "url": "https://haz-map.com/Agents/4111",
            "category": "agents"
          },
          {
            "type": "name_match",
            "text": "chrysoidine free base",
            "confidence": 1.0,
            "uuid": "10d7fc97-cdad-45d8-a7ef-9b5e2850adb8",
            "name": "Chrysoidine Free Base",
            "url": "https://haz-map.com/Agents/20437",
            "category": "agents"
          }
        ]
      },
      "cas_number": {
        "original_name": "CAS Number",
        "value": "495-54-5",
        "links": [],
        "cross_references": []
      },
      "formula": {
        "original_name": "Formula",
        "value": "C12-H12-N4",
        "links": [],
        "cross_references": []
      },
      "major_category": {
        "original_name": "Major Category",
        "value": "Dyes",
        "links": [],
        "cross_references": []
      },
      "synonyms": {
        "original_name": "Synonyms",
        "value": "Chrysoidine free base; 2,4-Diaminoazobenzen [Czech]; 2,4-Diaminoazobenzene; 4-(Phenylazo)-1,3-phenylenediamine; Azobenzene-2,4-diamine; C.I. 11270:1; C.I. Solvent Orange 3; Chrysoidine Base; Chrysoidine Base A; Chrysoidine Base B; Chrysoidine G Base; Chrysoidine J Base; Chrysoidine Y Base; Chrysoidine Y Base New; Chrysoidine YD Base; Fat Brown GG; Grasan Chrysoidine; m-Phenylenediamine, 4-(phenylazo)-; Neptune Orange 3; Oranz rozpoustedlova 3 [Czech]; Solvent Orange 3; Waxoline Orange Y; 1,3-Benzenediamine, 4-(2-phenyldiazenyl)-; 1,3-Benzenediamine, 4-(phenylazo)-; 2,4-Diaminoazobenzene; 4-(Phenylazo)benzene-1,3-diamine; [ChemIDplus]",
        "links": [],
        "cross_references": [
          {
            "type": "name_match",
            "text": "benzene",
            "confidence": 1.0,
            "uuid": "b05124de-5f34-4c14-8f04-ccb20c3780d9",
            "name": "Benzene",
            "url": "https://haz-map.com/Agents/5",
            "category": "agents"
          },
          {
            "type": "name_match",
            "text": "2,4-d",
            "confidence": 1.0,
            "uuid": "bed35f54-2d93-4ffd-a3ee-723ab365faf1",
            "name": "2,4-D",
            "url": "https://haz-map.com/Agents/389",
            "category": "agents"
          },
          {
            "type": "name_match",
            "text": "m-phenylenediamine",
            "confidence": 1.0,
            "uuid": "3a6f1d2d-6353-4bf1-8f83-18843c001ab8",
            "name": "m-Phenylenediamine",
            "url": "https://haz-map.com/Agents/1667",
            "category": "agents"
          },
          {
            "type": "name_match",
            "text": "azobenzene",
            "confidence": 1.0,
            "uuid": "e1a05c98-d051-4091-8654-3bf45ff3ecbf",
            "name": "Azobenzene",
            "url": "https://haz-map.com/Agents/3789",
            "category": "agents"
          },
          {
            "type": "name_match",
            "text": "chrysoidine",
            "confidence": 1.0,
            "uuid": "4f84c570-b206-4aa2-9d5a-5490f54f461a",
            "name": "Chrysoidine",
            "url": "https://haz-map.com/Agents/4111",
            "category": "agents"
          },
          {
            "type": "name_match",
            "text": "chrysoidine free base",
            "confidence": 1.0,
            "uuid": "10d7fc97-cdad-45d8-a7ef-9b5e2850adb8",
            "name": "Chrysoidine Free Base",
            "url": "https://haz-map.com/Agents/20437",
            "category": "agents"
          }
        ]
      },
      "category": {
        "original_name": "Category",
        "value": "Azo Dyes",
        "links": [],
        "cross_references": []
      },
      "description": {
        "original_name": "Description",
        "value": "Solid; [Sigma-Aldrich MSDS]",
        "links": [],
        "cross_references": []
      },
      "sourcesuses": {
        "original_name": "Sources/Uses",
        "value": "Used for dyeing silk and cotton and as a biological stain; [Merck Index]",
        "links": [],
        "cross_references": []
      },
      "comments": {
        "original_name": "Comments",
        "value": "A moderate eye irritant; [RTECS] An irritant; Harmful by ingestion; [Sigma-Aldrich MSDS]",
        "links": [],
        "cross_references": []
      },
      "biomedical_references": {
        "original_name": "Biomedical References",
        "value": "Search PubMed",
        "links": [
          {
            "text": "Search PubMed",
            "url": "https://www.ncbi.nlm.nih.gov/pubmed?term=Chrysoidine+Free+Base%20AND%20human%5Bmh%5D%20AND%20%28Occupational%20Diseases%20%5Bmh%5D%20OR%20Occupational%20Exposure%20%5Bmh%5D%29%20%20AND%20%28tox%5Bsb%5D%29&cmd=search"
          }
        ],
        "cross_references": []
      }
    },
    "exposure_assessment": {
      "vapor_pressure": {
        "original_name": "Vapor Pressure",
        "value": "1.52E-06 mm Hg",
        "links": [],
        "cross_references": []
      }
    },
    "diseases_processes_and_activities_linked_to_this_agent": {
      "processes": {
        "original_name": "Processes",
        "value": "Industrial Processes with risk of exposure: Textiles (Printing, Dyeing, or Finishing)",
        "links": [
          {
            "text": "Textiles (Printing, Dyeing, or Finishing)",
            "url": "https://haz-map.com/Processes/235"
          }
        ],
        "cross_references": []
      }
    }
  },
  "cross_references": [
    {
      "type": "name_match",
      "text": "benzene",
      "confidence": 1.0,
      "uuid": "b05124de-5f34-4c14-8f04-ccb20c3780d9",
      "name": "Benzene",
      "url": "https://haz-map.com/Agents/5",
      "category": "agents"
    },
    {
      "type": "name_match",
      "text": "2,4-d",
      "confidence": 1.0,
      "uuid": "bed35f54-2d93-4ffd-a3ee-723ab365faf1",
      "name": "2,4-D",
      "url": "https://haz-map.com/Agents/389",
      "category": "agents"
    },
    {
      "type": "name_match",
      "text": "m-phenylenediamine",
      "confidence": 1.0,
      "uuid": "3a6f1d2d-6353-4bf1-8f83-18843c001ab8",
      "name": "m-Phenylenediamine",
      "url": "https://haz-map.com/Agents/1667",
      "category": "agents"
    },
    {
      "type": "name_match",
      "text": "azobenzene",
      "confidence": 1.0,
      "uuid": "e1a05c98-d051-4091-8654-3bf45ff3ecbf",
      "name": "Azobenzene",
      "url": "https://haz-map.com/Agents/3789",
      "category": "agents"
    },
    {
      "type": "name_match",
      "text": "chrysoidine",
      "confidence": 1.0,
      "uuid": "4f84c570-b206-4aa2-9d5a-5490f54f461a",
      "name": "Chrysoidine",
      "url": "https://haz-map.com/Agents/4111",
      "category": "agents"
    },
    {
      "type": "name_match",
      "text": "chrysoidine free base",
      "confidence": 1.0,
      "uuid": "10d7fc97-cdad-45d8-a7ef-9b5e2850adb8",
      "name": "Chrysoidine Free Base",
      "url": "https://haz-map.com/Agents/20437",
      "category": "agents"
    }
  ],
  "all_links": [
    {
      "text": "Search PubMed",
      "url": "https://www.ncbi.nlm.nih.gov/pubmed?term=Chrysoidine+Free+Base%20AND%20human%5Bmh%5D%20AND%20%28Occupational%20Diseases%20%5Bmh%5D%20OR%20Occupational%20Exposure%20%5Bmh%5D%29%20%20AND%20%28tox%5Bsb%5D%29&cmd=search"
    },
    {
      "text": "Textiles (Printing, Dyeing, or Finishing)",
      "url": "https://haz-map.com/Processes/235"
    }
  ]
}