{
  "metadata": {
    "scraped_from": "https://haz-map.com/Agents/10539",
    "entity_name": "1,2-Benzisothiazole",
    "category": "agents",
    "uuid": "10f02470-befc-41fd-b551-604853d2d624",
    "scraped_at": "2025-07-23T20:48:58.717931"
  },
  "parsed_at": "2025-07-24T00:54:46.667618",
  "title": "1,2-Benzisothiazole",
  "sections": {
    "general": {
      "agent_name": {
        "original_name": "Agent Name",
        "value": "1,2-Benzisothiazole",
        "links": [],
        "cross_references": [
          {
            "type": "name_match",
            "text": "1,2-benzisothiazole",
            "confidence": 1.0,
            "uuid": "10f02470-befc-41fd-b551-604853d2d624",
            "name": "1,2-Benzisothiazole",
            "url": "https://haz-map.com/Agents/10539",
            "category": "agents"
          },
          {
            "type": "name_match",
            "text": "isothiazole",
            "confidence": 1.0,
            "uuid": "ca4c085b-d1d8-44fe-be35-3f89412460fb",
            "name": "Isothiazole",
            "url": "https://haz-map.com/Agents/14997",
            "category": "agents"
          },
          {
            "type": "name_match",
            "text": "thiazole",
            "confidence": 1.0,
            "uuid": "239903f2-a226-4a4b-bc83-285f21b9610c",
            "name": "Thiazole",
            "url": "https://haz-map.com/Agents/17380",
            "category": "agents"
          }
        ]
      },
      "cas_number": {
        "original_name": "CAS Number",
        "value": "272-16-2",
        "links": [],
        "cross_references": []
      },
      "formula": {
        "original_name": "Formula",
        "value": "C7-H5-N-S",
        "links": [],
        "cross_references": []
      },
      "major_category": {
        "original_name": "Major Category",
        "value": "Nitrogen Compounds",
        "links": [],
        "cross_references": [
          {
            "type": "name_match",
            "text": "nitrogen",
            "confidence": 1.0,
            "uuid": "db5e90a9-06d2-45b9-8b81-f345a89b0bc0",
            "name": "Nitrogen",
            "url": "https://haz-map.com/Agents/1072",
            "category": "agents"
          }
        ]
      },
      "category": {
        "original_name": "Category",
        "value": "Thiazoles",
        "links": [],
        "cross_references": [
          {
            "type": "name_match",
            "text": "thiazole",
            "confidence": 1.0,
            "uuid": "239903f2-a226-4a4b-bc83-285f21b9610c",
            "name": "Thiazole",
            "url": "https://haz-map.com/Agents/17380",
            "category": "agents"
          }
        ]
      },
      "description": {
        "original_name": "Description",
        "value": "Melting point = 38 deg C; [ChemIDplus]",
        "links": [],
        "cross_references": []
      },
      "comments": {
        "original_name": "Comments",
        "value": "See \"Benzothiazole.\"",
        "links": [],
        "cross_references": [
          {
            "type": "name_match",
            "text": "benzothiazole",
            "confidence": 1.0,
            "uuid": "6c7cc5de-c267-4997-9bab-ec67f286b5bb",
            "name": "Benzothiazole",
            "url": "https://haz-map.com/Agents/3866",
            "category": "agents"
          },
          {
            "type": "name_match",
            "text": "thiazole",
            "confidence": 1.0,
            "uuid": "239903f2-a226-4a4b-bc83-285f21b9610c",
            "name": "Thiazole",
            "url": "https://haz-map.com/Agents/17380",
            "category": "agents"
          }
        ]
      },
      "biomedical_references": {
        "original_name": "Biomedical References",
        "value": "Search PubMed",
        "links": [
          {
            "text": "Search PubMed",
            "url": "https://www.ncbi.nlm.nih.gov/pubmed?term=1%2c2-Benzisothiazole%20AND%20human%5Bmh%5D%20AND%20%28Occupational%20Diseases%20%5Bmh%5D%20OR%20Occupational%20Exposure%20%5Bmh%5D%29%20%20AND%20%28tox%5Bsb%5D%29&cmd=search"
          }
        ],
        "cross_references": []
      }
    },
    "diseases_processes_and_activities_linked_to_this_agent": {
      "other_information": {
        "original_name": "Other Information",
        "value": "No other related information on this agent was found.",
        "links": [],
        "cross_references": []
      }
    }
  },
  "cross_references": [
    {
      "type": "name_match",
      "text": "nitrogen",
      "confidence": 1.0,
      "uuid": "db5e90a9-06d2-45b9-8b81-f345a89b0bc0",
      "name": "Nitrogen",
      "url": "https://haz-map.com/Agents/1072",
      "category": "agents"
    },
    {
      "type": "name_match",
      "text": "benzothiazole",
      "confidence": 1.0,
      "uuid": "6c7cc5de-c267-4997-9bab-ec67f286b5bb",
      "name": "Benzothiazole",
      "url": "https://haz-map.com/Agents/3866",
      "category": "agents"
    },
    {
      "type": "name_match",
      "text": "1,2-benzisothiazole",
      "confidence": 1.0,
      "uuid": "10f02470-befc-41fd-b551-604853d2d624",
      "name": "1,2-Benzisothiazole",
      "url": "https://haz-map.com/Agents/10539",
      "category": "agents"
    },
    {
      "type": "name_match",
      "text": "isothiazole",
      "confidence": 1.0,
      "uuid": "ca4c085b-d1d8-44fe-be35-3f89412460fb",
      "name": "Isothiazole",
      "url": "https://haz-map.com/Agents/14997",
      "category": "agents"
    },
    {
      "type": "name_match",
      "text": "thiazole",
      "confidence": 1.0,
      "uuid": "239903f2-a226-4a4b-bc83-285f21b9610c",
      "name": "Thiazole",
      "url": "https://haz-map.com/Agents/17380",
      "category": "agents"
    }
  ],
  "all_links": [
    {
      "text": "Search PubMed",
      "url": "https://www.ncbi.nlm.nih.gov/pubmed?term=1%2c2-Benzisothiazole%20AND%20human%5Bmh%5D%20AND%20%28Occupational%20Diseases%20%5Bmh%5D%20OR%20Occupational%20Exposure%20%5Bmh%5D%29%20%20AND%20%28tox%5Bsb%5D%29&cmd=search"
    }
  ]
}