{
  "metadata": {
    "scraped_from": "https://haz-map.com/Agents/3108",
    "entity_name": "2-Ethylhexaldehyde",
    "category": "agents",
    "uuid": "111ba042-69f1-4809-9cc8-5a8429bd021d",
    "scraped_at": "2025-07-23T19:24:10.082854"
  },
  "parsed_at": "2025-07-24T00:55:16.917880",
  "title": "2-Ethylhexaldehyde",
  "sections": {
    "general": {
      "agent_name": {
        "original_name": "Agent Name",
        "value": "2-Ethylhexaldehyde",
        "links": [],
        "cross_references": [
          {
            "type": "name_match",
            "text": "2-ethylhexaldehyde",
            "confidence": 1.0,
            "uuid": "111ba042-69f1-4809-9cc8-5a8429bd021d",
            "name": "2-Ethylhexaldehyde",
            "url": "https://haz-map.com/Agents/3108",
            "category": "agents"
          },
          {
            "type": "name_match",
            "text": "hexaldehyde",
            "confidence": 1.0,
            "uuid": "29fccd92-f185-42cc-ae6f-d7e604a8e409",
            "name": "Hexaldehyde",
            "url": "https://haz-map.com/Agents/5521",
            "category": "agents"
          }
        ]
      },
      "cas_number": {
        "original_name": "CAS Number",
        "value": "123-05-7",
        "links": [],
        "cross_references": []
      },
      "formula": {
        "original_name": "Formula",
        "value": "C8-H16-O",
        "links": [],
        "cross_references": []
      },
      "major_category": {
        "original_name": "Major Category",
        "value": "Other Classes",
        "links": [],
        "cross_references": []
      },
      "synonyms": {
        "original_name": "Synonyms",
        "value": "2-Ethylcaproaldehyde; 2-Ethylhexanal; 2-Ethylhexylaldehyde; 3-Formylheptane; Butyl ethyl acetaldehyde; Butylethylacetaldehyde; Ethylbutylacetaldehyde; Ethylhexaldehyde; Hexanal, 2-ethyl-; Octyl aldehyde; alpha-Ethylcaproaldehyde; beta-Propyl-alpha-ethylacrolein; [ChemIDplus] UN1191",
        "links": [],
        "cross_references": [
          {
            "type": "name_match",
            "text": "acetaldehyde",
            "confidence": 1.0,
            "uuid": "fe4656a6-c05e-430a-bdd9-e053a298707a",
            "name": "Acetaldehyde",
            "url": "https://haz-map.com/Agents/94",
            "category": "agents"
          },
          {
            "type": "name_match",
            "text": "acrolein",
            "confidence": 1.0,
            "uuid": "a2d0c6a0-4ba7-42a1-bdb2-5ab0f9eaf94e",
            "name": "Acrolein",
            "url": "https://haz-map.com/Agents/95",
            "category": "agents"
          },
          {
            "type": "name_match",
            "text": "acetal",
            "confidence": 1.0,
            "uuid": "1ee09b5b-04fd-47c0-ab34-a2d9db740bcb",
            "name": "Acetal",
            "url": "https://haz-map.com/Agents/3381",
            "category": "agents"
          },
          {
            "type": "name_match",
            "text": "hexaldehyde",
            "confidence": 1.0,
            "uuid": "29fccd92-f185-42cc-ae6f-d7e604a8e409",
            "name": "Hexaldehyde",
            "url": "https://haz-map.com/Agents/5521",
            "category": "agents"
          }
        ]
      },
      "category": {
        "original_name": "Category",
        "value": "Aldehydes",
        "links": [],
        "cross_references": [
          {
            "type": "name_match",
            "text": "aldehydes",
            "confidence": 1.0,
            "uuid": "60ff52e0-7c53-4dd0-99cf-f775cfcfed59",
            "name": "ALDEHYDES",
            "url": "https://haz-map.com/Agents/719",
            "category": "agents"
          }
        ]
      },
      "description": {
        "original_name": "Description",
        "value": "Colorless liquid; [ICSC]",
        "links": [],
        "cross_references": []
      },
      "sourcesuses": {
        "original_name": "Sources/Uses",
        "value": "Used as a disinfectant and chemical intermediate for perfumes and other chemicals; [HSDB]",
        "links": [],
        "cross_references": [
          {
            "type": "name_match",
            "text": "mica",
            "confidence": 1.0,
            "uuid": "433f26f1-c399-4596-b179-ce3843cfd465",
            "name": "Mica",
            "url": "https://haz-map.com/Agents/621",
            "category": "agents"
          }
        ]
      },
      "comments": {
        "original_name": "Comments",
        "value": "A skin, eye, and respiratory tract irritant; Flammable; Explosive mixtures with air may form above 46 deg C; [ICSC] An irritant; [MSDSonline]",
        "links": [],
        "cross_references": []
      },
      "biomedical_references": {
        "original_name": "Biomedical References",
        "value": "Search PubMed",
        "links": [
          {
            "text": "Search PubMed",
            "url": "https://www.ncbi.nlm.nih.gov/pubmed?term=2-Ethylhexaldehyde%20AND%20human%5Bmh%5D%20AND%20%28Occupational%20Diseases%20%5Bmh%5D%20OR%20Occupational%20Exposure%20%5Bmh%5D%29%20%20AND%20%28tox%5Bsb%5D%29&cmd=search"
          }
        ],
        "cross_references": []
      }
    },
    "exposure_assessment": {
      "vapor_pressure": {
        "original_name": "Vapor Pressure",
        "value": "1.8 mm Hg",
        "links": [],
        "cross_references": []
      },
      "lethal_concentration": {
        "original_name": "Lethal Concentration",
        "value": "LCLo (rat) = 4,000 ppm/4h",
        "links": [],
        "cross_references": []
      },
      "explanatory_notes": {
        "original_name": "Explanatory Notes",
        "value": "Flash point = 46 deg C; [ICSC] The Guide in the Emergency Response Guidebook is for \"Ethylhexaldehydes.\" VP from ChemIDplus;",
        "links": [],
        "cross_references": [
          {
            "type": "name_match",
            "text": "aldehydes",
            "confidence": 1.0,
            "uuid": "60ff52e0-7c53-4dd0-99cf-f775cfcfed59",
            "name": "ALDEHYDES",
            "url": "https://haz-map.com/Agents/719",
            "category": "agents"
          },
          {
            "type": "name_match",
            "text": "ash",
            "confidence": 1.0,
            "uuid": "68b360f1-5ad0-4337-bea0-d7adca2961b5",
            "name": "Ash",
            "url": "https://haz-map.com/Agents/965",
            "category": "agents"
          },
          {
            "type": "name_match",
            "text": "hexaldehyde",
            "confidence": 1.0,
            "uuid": "29fccd92-f185-42cc-ae6f-d7e604a8e409",
            "name": "Hexaldehyde",
            "url": "https://haz-map.com/Agents/5521",
            "category": "agents"
          }
        ]
      },
      "nfpa": {
        "original_name": "NFPA",
        "value": "high ambient temp required",
        "links": [],
        "cross_references": []
      }
    },
    "diseases_processes_and_activities_linked_to_this_agent": {
      "processes": {
        "original_name": "Processes",
        "value": "Industrial Processes with risk of exposure: Using Disinfectants or Biocides",
        "links": [
          {
            "text": "Using Disinfectants or Biocides",
            "url": "https://haz-map.com/Processes/167"
          }
        ],
        "cross_references": [
          {
            "type": "url_match",
            "text": "Using Disinfectants or Biocides",
            "url": "https://haz-map.com/Processes/167",
            "confidence": 1.0,
            "uuid": "7accb745-ad60-4ef8-9039-8ac4febb8fd8",
            "name": "Using Disinfectants or Biocides",
            "category": "processes"
          }
        ]
      }
    }
  },
  "cross_references": [
    {
      "type": "url_match",
      "text": "Using Disinfectants or Biocides",
      "url": "https://haz-map.com/Processes/167",
      "confidence": 1.0,
      "uuid": "7accb745-ad60-4ef8-9039-8ac4febb8fd8",
      "name": "Using Disinfectants or Biocides",
      "category": "processes"
    },
    {
      "type": "name_match",
      "text": "acetaldehyde",
      "confidence": 1.0,
      "uuid": "fe4656a6-c05e-430a-bdd9-e053a298707a",
      "name": "Acetaldehyde",
      "url": "https://haz-map.com/Agents/94",
      "category": "agents"
    },
    {
      "type": "name_match",
      "text": "acrolein",
      "confidence": 1.0,
      "uuid": "a2d0c6a0-4ba7-42a1-bdb2-5ab0f9eaf94e",
      "name": "Acrolein",
      "url": "https://haz-map.com/Agents/95",
      "category": "agents"
    },
    {
      "type": "name_match",
      "text": "mica",
      "confidence": 1.0,
      "uuid": "433f26f1-c399-4596-b179-ce3843cfd465",
      "name": "Mica",
      "url": "https://haz-map.com/Agents/621",
      "category": "agents"
    },
    {
      "type": "name_match",
      "text": "aldehydes",
      "confidence": 1.0,
      "uuid": "60ff52e0-7c53-4dd0-99cf-f775cfcfed59",
      "name": "ALDEHYDES",
      "url": "https://haz-map.com/Agents/719",
      "category": "agents"
    },
    {
      "type": "name_match",
      "text": "ash",
      "confidence": 1.0,
      "uuid": "68b360f1-5ad0-4337-bea0-d7adca2961b5",
      "name": "Ash",
      "url": "https://haz-map.com/Agents/965",
      "category": "agents"
    },
    {
      "type": "name_match",
      "text": "2-ethylhexaldehyde",
      "confidence": 1.0,
      "uuid": "111ba042-69f1-4809-9cc8-5a8429bd021d",
      "name": "2-Ethylhexaldehyde",
      "url": "https://haz-map.com/Agents/3108",
      "category": "agents"
    },
    {
      "type": "name_match",
      "text": "acetal",
      "confidence": 1.0,
      "uuid": "1ee09b5b-04fd-47c0-ab34-a2d9db740bcb",
      "name": "Acetal",
      "url": "https://haz-map.com/Agents/3381",
      "category": "agents"
    },
    {
      "type": "name_match",
      "text": "hexaldehyde",
      "confidence": 1.0,
      "uuid": "29fccd92-f185-42cc-ae6f-d7e604a8e409",
      "name": "Hexaldehyde",
      "url": "https://haz-map.com/Agents/5521",
      "category": "agents"
    }
  ],
  "all_links": [
    {
      "text": "Search PubMed",
      "url": "https://www.ncbi.nlm.nih.gov/pubmed?term=2-Ethylhexaldehyde%20AND%20human%5Bmh%5D%20AND%20%28Occupational%20Diseases%20%5Bmh%5D%20OR%20Occupational%20Exposure%20%5Bmh%5D%29%20%20AND%20%28tox%5Bsb%5D%29&cmd=search"
    },
    {
      "text": "Using Disinfectants or Biocides",
      "url": "https://haz-map.com/Processes/167"
    }
  ]
}