{
  "metadata": {
    "scraped_from": "https://haz-map.com/Agents/3378",
    "entity_name": "Acephate",
    "category": "agents",
    "uuid": "112ef585-1e53-445a-860e-2e13da9f9f48",
    "scraped_at": "2025-07-23T19:28:22.306077"
  },
  "parsed_at": "2025-07-24T01:15:02.046476",
  "title": "Acephate",
  "sections": {
    "general": {
      "agent_name": {
        "original_name": "Agent Name",
        "value": "Acephate",
        "links": [],
        "cross_references": [
          {
            "type": "name_match",
            "text": "acephate",
            "confidence": 1.0,
            "uuid": "112ef585-1e53-445a-860e-2e13da9f9f48",
            "name": "Acephate",
            "url": "https://haz-map.com/Agents/3378",
            "category": "agents"
          }
        ]
      },
      "cas_number": {
        "original_name": "CAS Number",
        "value": "30560-19-1",
        "links": [],
        "cross_references": []
      },
      "formula": {
        "original_name": "Formula",
        "value": "C4-H10-N-O3-P-S",
        "links": [],
        "cross_references": []
      },
      "major_category": {
        "original_name": "Major Category",
        "value": "Pesticides",
        "links": [],
        "cross_references": []
      },
      "synonyms": {
        "original_name": "Synonyms",
        "value": "75 SP; Acephat; Acephat [German]; Acephate, technical; Acetamidophos; Acetylphosphoramidothioic acid O,S-dimethyl ester; Chevron Orthene; Chevron RE 12,420; ENT 27822; N-(Methoxy(methylthio)phosphinoyl)acetamide; O,S-Dimethyl acetylphosphoramidothioate; O,S-Dimethylacetylphosphoroamidothioate; Orthene; Orthene-755; Ortho 124120; Ortran; Ortril; RE 12420; Phosphoramidothioic acid, N-acetyl-, O,S-dimethyl ester; Phosphoramidothioic acid, acetyl-, O,S-dimethyl ester; [ChemIDplus]",
        "links": [],
        "cross_references": [
          {
            "type": "name_match",
            "text": "acephate",
            "confidence": 1.0,
            "uuid": "112ef585-1e53-445a-860e-2e13da9f9f48",
            "name": "Acephate",
            "url": "https://haz-map.com/Agents/3378",
            "category": "agents"
          },
          {
            "type": "name_match",
            "text": "acetamide",
            "confidence": 1.0,
            "uuid": "dd8ffc77-2f5f-4c87-8995-3206d6c9affc",
            "name": "Acetamide",
            "url": "https://haz-map.com/Agents/3385",
            "category": "agents"
          }
        ]
      },
      "category": {
        "original_name": "Category",
        "value": "Organophosphate Insecticides",
        "links": [],
        "cross_references": []
      },
      "description": {
        "original_name": "Description",
        "value": "Colorless to white solid; [HSDB] Colorless crystalline solid with a stench; [MSDSonline]",
        "links": [],
        "cross_references": [
          {
            "type": "fuzzy_match",
            "text": "crystalline",
            "matched_name": "Silica, crystalline",
            "confidence": 0.7061403508771931,
            "uuid": "f920e8a2-46df-41b7-af8d-0368a777251e",
            "category": "agents",
            "url": "https://haz-map.com/Agents/427"
          }
        ]
      },
      "sourcesuses": {
        "original_name": "Sources/Uses",
        "value": "Used as a contact and systemic insecticide for field, fruit, and vegetable crops, forestry, food handling, ornamentals, and household applications; Also used for control of parasites in farm animals; [HSDB] Used in industrial, commercial, and other public and non-agricultural areas; [Reference #1]",
        "links": [],
        "cross_references": []
      },
      "comments": {
        "original_name": "Comments",
        "value": "May cause cholinesterase inhibition; [ICSC] At doses non-toxic maternally, embryonic development was not adversely effected in mice; High dose studies of mice caused dose-dependent rise of abnormalities in sperm; No human data available; [REPROTOX] Methamidophos (CAS# 10265-92-6) is an environmental degradate; \"Laboratory data indicate that acephate and its degradate may pose chronic risk to mammals by affecting the reproductive capacity of mammals (i.e., by reducing the viability of pups and body weight); however, there are no field data to corroborate this.\" [Reference #1] “The average of two baseline respective cholinesterase activity determinations three days apart, with no exposures to enzyme inhibiting pesticides for at least 30 days, is recommended for each worker prior to exposure to cholinesterase inhibitors because of large inter-individual differences in published baseline values. To be established at least once a year. Removal from workplace exposures is recommended until the cholinesterase activity returns to within 20% of baseline.” [TLVs and BEIs] See \"Methamidophos.\"",
        "links": [],
        "cross_references": [
          {
            "type": "name_match",
            "text": "methamidophos",
            "confidence": 1.0,
            "uuid": "080639fe-c531-4543-a36d-bf29e72d6f7d",
            "name": "Methamidophos",
            "url": "https://haz-map.com/Agents/1139",
            "category": "agents"
          },
          {
            "type": "name_match",
            "text": "iron",
            "confidence": 1.0,
            "uuid": "a6101f16-ec31-4d6c-af41-cbdbda5b1c7c",
            "name": "Iron",
            "url": "https://haz-map.com/Agents/1993",
            "category": "agents"
          },
          {
            "type": "name_match",
            "text": "ht",
            "confidence": 1.0,
            "uuid": "764df367-8d53-4a11-81a2-31ccfe122a8d",
            "name": "HT",
            "url": "https://haz-map.com/Agents/2168",
            "category": "agents"
          },
          {
            "type": "name_match",
            "text": "acephate",
            "confidence": 1.0,
            "uuid": "112ef585-1e53-445a-860e-2e13da9f9f48",
            "name": "Acephate",
            "url": "https://haz-map.com/Agents/3378",
            "category": "agents"
          },
          {
            "type": "name_match",
            "text": "choline",
            "confidence": 1.0,
            "uuid": "a21a71e9-9d67-4563-9da2-98c4dcb1b766",
            "name": "Choline",
            "url": "https://haz-map.com/Agents/12978",
            "category": "agents"
          }
        ]
      },
      "restricted": {
        "original_name": "Restricted",
        "value": "Banned in the EU for use as a biocide and agricultural insecticide; [eChemPortal: ESIS]",
        "links": [],
        "cross_references": []
      },
      "reference_link_1": {
        "original_name": "Reference Link #1",
        "value": "EPA Pesticide Chemical Search",
        "links": [
          {
            "text": "EPA Pesticide Chemical Search",
            "url": "https://iaspub.epa.gov/apex/pesticides/f?p=CHEMICALSEARCH:1:"
          }
        ],
        "cross_references": [
          {
            "type": "name_match",
            "text": "mica",
            "confidence": 1.0,
            "uuid": "433f26f1-c399-4596-b179-ce3843cfd465",
            "name": "Mica",
            "url": "https://haz-map.com/Agents/621",
            "category": "agents"
          }
        ]
      },
      "biomedical_references": {
        "original_name": "Biomedical References",
        "value": "Search PubMed",
        "links": [
          {
            "text": "Search PubMed",
            "url": "https://www.ncbi.nlm.nih.gov/pubmed?term=Acephate%20AND%20human%5Bmh%5D%20AND%20%28Occupational%20Diseases%20%5Bmh%5D%20OR%20Occupational%20Exposure%20%5Bmh%5D%29%20%20AND%20%28tox%5Bsb%5D%29&cmd=search"
          }
        ],
        "cross_references": []
      }
    },
    "exposure_assessment": {
      "bei": {
        "original_name": "BEI",
        "value": "Acetylcholinesterase activity in red blood cells = 70% of individual's baseline; Butylcholinesterase activity in serum or plasma = 60% of individual's baseline; Sample at end of shift; [TLVs and BEIs]",
        "links": [],
        "cross_references": [
          {
            "type": "name_match",
            "text": "choline",
            "confidence": 1.0,
            "uuid": "a21a71e9-9d67-4563-9da2-98c4dcb1b766",
            "name": "Choline",
            "url": "https://haz-map.com/Agents/12978",
            "category": "agents"
          }
        ]
      },
      "vapor_pressure": {
        "original_name": "Vapor Pressure",
        "value": "1.7E-06 mm Hg",
        "links": [],
        "cross_references": []
      },
      "lethal_concentration": {
        "original_name": "Lethal Concentration",
        "value": "LCLo (mice) = 2,200 mg/m3/5h",
        "links": [],
        "cross_references": []
      }
    },
    "adverse_effects": {
      "other_poison": {
        "original_name": "Other Poison",
        "value": "Organophosphate",
        "links": [],
        "cross_references": []
      }
    },
    "diseases_processes_and_activities_linked_to_this_agent": {
      "diseases": {
        "original_name": "Diseases",
        "value": "Occupational diseases associated with exposure to this agent: Organophosphates & carbamates, acute poisoning",
        "links": [
          {
            "text": "Organophosphates & carbamates, acute poisoning",
            "url": "https://haz-map.com/Diseases/66"
          }
        ],
        "cross_references": [
          {
            "type": "url_match",
            "text": "Organophosphates & carbamates, acute poisoning",
            "url": "https://haz-map.com/Diseases/66",
            "confidence": 1.0,
            "uuid": "aea2cba9-fb36-463f-84d8-b819551bb327",
            "name": "Organophosphates & carbamates, acute poisoning",
            "category": "diseases"
          },
          {
            "type": "name_match",
            "text": "organophosphates",
            "confidence": 1.0,
            "uuid": "8d2d239c-20f9-4f02-9916-5e7667b9990c",
            "name": "ORGANOPHOSPHATES",
            "url": "https://haz-map.com/Agents/702",
            "category": "agents"
          }
        ]
      },
      "processes": {
        "original_name": "Processes",
        "value": "Industrial Processes with risk of exposure: Farming (Pesticides)",
        "links": [
          {
            "text": "Farming (Pesticides)",
            "url": "https://haz-map.com/Processes/218"
          }
        ],
        "cross_references": [
          {
            "type": "url_match",
            "text": "Farming (Pesticides)",
            "url": "https://haz-map.com/Processes/218",
            "confidence": 1.0,
            "uuid": "cf1e5815-c9bb-4917-82a5-391848170b7e",
            "name": "Farming (Pesticides)",
            "category": "processes"
          }
        ]
      }
    }
  },
  "cross_references": [
    {
      "type": "url_match",
      "text": "Organophosphates & carbamates, acute poisoning",
      "url": "https://haz-map.com/Diseases/66",
      "confidence": 1.0,
      "uuid": "aea2cba9-fb36-463f-84d8-b819551bb327",
      "name": "Organophosphates & carbamates, acute poisoning",
      "category": "diseases"
    },
    {
      "type": "url_match",
      "text": "Farming (Pesticides)",
      "url": "https://haz-map.com/Processes/218",
      "confidence": 1.0,
      "uuid": "cf1e5815-c9bb-4917-82a5-391848170b7e",
      "name": "Farming (Pesticides)",
      "category": "processes"
    },
    {
      "type": "name_match",
      "text": "mica",
      "confidence": 1.0,
      "uuid": "433f26f1-c399-4596-b179-ce3843cfd465",
      "name": "Mica",
      "url": "https://haz-map.com/Agents/621",
      "category": "agents"
    },
    {
      "type": "name_match",
      "text": "organophosphates",
      "confidence": 1.0,
      "uuid": "8d2d239c-20f9-4f02-9916-5e7667b9990c",
      "name": "ORGANOPHOSPHATES",
      "url": "https://haz-map.com/Agents/702",
      "category": "agents"
    },
    {
      "type": "name_match",
      "text": "methamidophos",
      "confidence": 1.0,
      "uuid": "080639fe-c531-4543-a36d-bf29e72d6f7d",
      "name": "Methamidophos",
      "url": "https://haz-map.com/Agents/1139",
      "category": "agents"
    },
    {
      "type": "name_match",
      "text": "iron",
      "confidence": 1.0,
      "uuid": "a6101f16-ec31-4d6c-af41-cbdbda5b1c7c",
      "name": "Iron",
      "url": "https://haz-map.com/Agents/1993",
      "category": "agents"
    },
    {
      "type": "name_match",
      "text": "ht",
      "confidence": 1.0,
      "uuid": "764df367-8d53-4a11-81a2-31ccfe122a8d",
      "name": "HT",
      "url": "https://haz-map.com/Agents/2168",
      "category": "agents"
    },
    {
      "type": "name_match",
      "text": "acephate",
      "confidence": 1.0,
      "uuid": "112ef585-1e53-445a-860e-2e13da9f9f48",
      "name": "Acephate",
      "url": "https://haz-map.com/Agents/3378",
      "category": "agents"
    },
    {
      "type": "name_match",
      "text": "acetamide",
      "confidence": 1.0,
      "uuid": "dd8ffc77-2f5f-4c87-8995-3206d6c9affc",
      "name": "Acetamide",
      "url": "https://haz-map.com/Agents/3385",
      "category": "agents"
    },
    {
      "type": "name_match",
      "text": "choline",
      "confidence": 1.0,
      "uuid": "a21a71e9-9d67-4563-9da2-98c4dcb1b766",
      "name": "Choline",
      "url": "https://haz-map.com/Agents/12978",
      "category": "agents"
    },
    {
      "type": "fuzzy_match",
      "text": "crystalline",
      "matched_name": "Silica, crystalline",
      "confidence": 0.7061403508771931,
      "uuid": "f920e8a2-46df-41b7-af8d-0368a777251e",
      "category": "agents",
      "url": "https://haz-map.com/Agents/427"
    }
  ],
  "all_links": [
    {
      "text": "EPA Pesticide Chemical Search",
      "url": "https://iaspub.epa.gov/apex/pesticides/f?p=CHEMICALSEARCH:1:"
    },
    {
      "text": "Search PubMed",
      "url": "https://www.ncbi.nlm.nih.gov/pubmed?term=Acephate%20AND%20human%5Bmh%5D%20AND%20%28Occupational%20Diseases%20%5Bmh%5D%20OR%20Occupational%20Exposure%20%5Bmh%5D%29%20%20AND%20%28tox%5Bsb%5D%29&cmd=search"
    },
    {
      "text": "Organophosphates & carbamates, acute poisoning",
      "url": "https://haz-map.com/Diseases/66"
    },
    {
      "text": "Farming (Pesticides)",
      "url": "https://haz-map.com/Processes/218"
    }
  ]
}