{
  "metadata": {
    "scraped_from": "https://haz-map.com/Agents/7247",
    "entity_name": "Sulfaquinoxaline",
    "category": "agents",
    "uuid": "11412338-a4aa-43dc-b33a-42f0902cdad1",
    "scraped_at": "2025-07-23T20:10:47.025368"
  },
  "parsed_at": "2025-07-24T00:58:57.074304",
  "title": "Sulfaquinoxaline",
  "sections": {
    "general": {
      "agent_name": {
        "original_name": "Agent Name",
        "value": "Sulfaquinoxaline",
        "links": [],
        "cross_references": [
          {
            "type": "name_match",
            "text": "sulfaquinoxaline",
            "confidence": 1.0,
            "uuid": "11412338-a4aa-43dc-b33a-42f0902cdad1",
            "name": "Sulfaquinoxaline",
            "url": "https://haz-map.com/Agents/7247",
            "category": "agents"
          }
        ]
      },
      "cas_number": {
        "original_name": "CAS Number",
        "value": "59-40-5",
        "links": [],
        "cross_references": []
      },
      "formula": {
        "original_name": "Formula",
        "value": "C14-H12-N4-O2-S",
        "links": [],
        "cross_references": []
      },
      "major_category": {
        "original_name": "Major Category",
        "value": "Nitrogen Compounds",
        "links": [],
        "cross_references": [
          {
            "type": "name_match",
            "text": "nitrogen",
            "confidence": 1.0,
            "uuid": "db5e90a9-06d2-45b9-8b81-f345a89b0bc0",
            "name": "Nitrogen",
            "url": "https://haz-map.com/Agents/1072",
            "category": "agents"
          }
        ]
      },
      "synonyms": {
        "original_name": "Synonyms",
        "value": "2-(p-Sulfanilamido)quinoxaline; 2-Sulfanilamidobenzopyrazine; 2-Sulfanilamidoquinoxaline; 2-p-Aminobenzenesulfonamidoquinoxaline; 2-p-Aminobenzenesulphonamidoquinoxaline; 4-Amino-N-2-quinoxalinylbenzenesulfonamide; Anti-K; Avicocid; Compound 3-120; Italquina; Kokozigal; N(sup 1)-(2-Quinoxalinyl)sulfanilamide; N-(2-Quinoxalinyl)sulfanilamide; SQ 40; SQX; Sulfa-Q 20; Sulfabenzpyrazine; Sulfacox; Sulfaline; Sulfaquinoxalina [INN-Spanish]; Sulfaquinoxalinum [INN-Latin]; Sulphaquinoxaline; Sulquin; Ursokoxaline; [ChemIDplus]",
        "links": [],
        "cross_references": [
          {
            "type": "name_match",
            "text": "benzene",
            "confidence": 1.0,
            "uuid": "b05124de-5f34-4c14-8f04-ccb20c3780d9",
            "name": "Benzene",
            "url": "https://haz-map.com/Agents/5",
            "category": "agents"
          },
          {
            "type": "name_match",
            "text": "sulfanilamide",
            "confidence": 1.0,
            "uuid": "22436b90-4532-46bf-94d1-02091420d8c1",
            "name": "Sulfanilamide",
            "url": "https://haz-map.com/Agents/1297",
            "category": "agents"
          },
          {
            "type": "name_match",
            "text": "pyrazine",
            "confidence": 1.0,
            "uuid": "de296522-8691-4497-9f6f-9a448cfb6a83",
            "name": "Pyrazine",
            "url": "https://haz-map.com/Agents/17010",
            "category": "agents"
          },
          {
            "type": "name_match",
            "text": "benzenesulfonamide",
            "confidence": 1.0,
            "uuid": "66d8b92e-3d51-4461-ac5b-4ff3501d45e5",
            "name": "Benzenesulfonamide",
            "url": "https://haz-map.com/Agents/20287",
            "category": "agents"
          }
        ]
      },
      "category": {
        "original_name": "Category",
        "value": "Other Aromatics (Nitrogen)",
        "links": [],
        "cross_references": [
          {
            "type": "name_match",
            "text": "nitrogen",
            "confidence": 1.0,
            "uuid": "db5e90a9-06d2-45b9-8b81-f345a89b0bc0",
            "name": "Nitrogen",
            "url": "https://haz-map.com/Agents/1072",
            "category": "agents"
          }
        ]
      },
      "description": {
        "original_name": "Description",
        "value": "Solid; [Merck Index]",
        "links": [],
        "cross_references": []
      },
      "sourcesuses": {
        "original_name": "Sources/Uses",
        "value": "Used for treatment of coccidiosis and other bacterial and protozoal infections in animals; Used formerly in the US in combination with warfarin for controlling rats and mice (kills vitamin K-producing bacteria in the digestive tract); [HSDB]",
        "links": [],
        "cross_references": [
          {
            "type": "name_match",
            "text": "warfarin",
            "confidence": 1.0,
            "uuid": "53672f20-d5e2-4d2b-a15a-3c933026cc64",
            "name": "Warfarin",
            "url": "https://haz-map.com/Agents/673",
            "category": "agents"
          }
        ]
      },
      "comments": {
        "original_name": "Comments",
        "value": "A flock of chickens treated with 0.05% in feed for 2-3 days, removed 2 days, and treated again for 2-3 days had 47% mortality with hemorrhages, bone marrow pallor, and septicemia; Emergency treatment: \"Sulfonamides\"; Sulfonamides are used as antibiotics; They can cause hypersensitivity reactions including erythema multiforme and liver injury; Methemoglobinemia and renal failure may occur after toxic ingestions; [HSDB] Causes changes in renal tubules in 26-week, intermittent, oral study of rats (9100 mg/kg); Causes hemorrhage in 14 day intermittent study of dogs (1400 mg/kg); [RTECS] May cause irritation; May cause skin and respiratory sensitization; [Aldrich MSDS]",
        "links": [],
        "cross_references": [
          {
            "type": "name_match",
            "text": "tali",
            "confidence": 1.0,
            "uuid": "8c3a0f99-2143-4122-b539-ec5cc49596b0",
            "name": "Tali",
            "url": "https://haz-map.com/Agents/1128",
            "category": "agents"
          },
          {
            "type": "name_match",
            "text": "flock",
            "confidence": 1.0,
            "uuid": "16530d01-1e45-48e7-a09e-6cf6b9ed33b7",
            "name": "Flock",
            "url": "https://haz-map.com/Agents/1852",
            "category": "agents"
          },
          {
            "type": "name_match",
            "text": "methemoglobin",
            "confidence": 1.0,
            "uuid": "afb7ebf5-d2a3-4e60-8d2e-3a19456344ee",
            "name": "Methemoglobin",
            "url": "https://haz-map.com/Agents/15467",
            "category": "agents"
          },
          {
            "type": "fuzzy_match",
            "text": "methemoglobinemia",
            "matched_name": "Methemoglobinemia, acute",
            "confidence": 0.7208333333333333,
            "uuid": "473a44bd-cf11-4710-a769-e8e2b25ba317",
            "category": "diseases",
            "url": "https://haz-map.com/Diseases/210"
          }
        ]
      },
      "restricted": {
        "original_name": "Restricted",
        "value": "Not registered for use in the US; [HSDB]",
        "links": [],
        "cross_references": []
      },
      "biomedical_references": {
        "original_name": "Biomedical References",
        "value": "Search PubMed",
        "links": [
          {
            "text": "Search PubMed",
            "url": "https://www.ncbi.nlm.nih.gov/pubmed?term=Sulfaquinoxaline%20AND%20human%5Bmh%5D%20AND%20%28Occupational%20Diseases%20%5Bmh%5D%20OR%20Occupational%20Exposure%20%5Bmh%5D%29%20%20AND%20%28tox%5Bsb%5D%29&cmd=search"
          }
        ],
        "cross_references": []
      }
    },
    "exposure_assessment": {
      "vapor_pressure": {
        "original_name": "Vapor Pressure",
        "value": "3E-10 mm Hg",
        "links": [],
        "cross_references": []
      }
    },
    "adverse_effects": {
      "methemoglobinemia": {
        "original_name": "Methemoglobinemia",
        "value": "MetHgb is secondary toxic effect",
        "links": [],
        "cross_references": []
      },
      "hepatotoxin": {
        "original_name": "Hepatotoxin",
        "value": "Hepatoxic (a) from occupational exposure (secondary effect) or (b) in animal studies or in humans after ingestion",
        "links": [],
        "cross_references": []
      }
    },
    "diseases_processes_and_activities_linked_to_this_agent": {
      "processes": {
        "original_name": "Processes",
        "value": "Industrial Processes with risk of exposure: Farming (Pesticides)",
        "links": [
          {
            "text": "Farming (Pesticides)",
            "url": "https://haz-map.com/Processes/218"
          }
        ],
        "cross_references": [
          {
            "type": "url_match",
            "text": "Farming (Pesticides)",
            "url": "https://haz-map.com/Processes/218",
            "confidence": 1.0,
            "uuid": "cf1e5815-c9bb-4917-82a5-391848170b7e",
            "name": "Farming (Pesticides)",
            "category": "processes"
          }
        ]
      }
    }
  },
  "cross_references": [
    {
      "type": "url_match",
      "text": "Farming (Pesticides)",
      "url": "https://haz-map.com/Processes/218",
      "confidence": 1.0,
      "uuid": "cf1e5815-c9bb-4917-82a5-391848170b7e",
      "name": "Farming (Pesticides)",
      "category": "processes"
    },
    {
      "type": "name_match",
      "text": "benzene",
      "confidence": 1.0,
      "uuid": "b05124de-5f34-4c14-8f04-ccb20c3780d9",
      "name": "Benzene",
      "url": "https://haz-map.com/Agents/5",
      "category": "agents"
    },
    {
      "type": "name_match",
      "text": "warfarin",
      "confidence": 1.0,
      "uuid": "53672f20-d5e2-4d2b-a15a-3c933026cc64",
      "name": "Warfarin",
      "url": "https://haz-map.com/Agents/673",
      "category": "agents"
    },
    {
      "type": "name_match",
      "text": "nitrogen",
      "confidence": 1.0,
      "uuid": "db5e90a9-06d2-45b9-8b81-f345a89b0bc0",
      "name": "Nitrogen",
      "url": "https://haz-map.com/Agents/1072",
      "category": "agents"
    },
    {
      "type": "name_match",
      "text": "tali",
      "confidence": 1.0,
      "uuid": "8c3a0f99-2143-4122-b539-ec5cc49596b0",
      "name": "Tali",
      "url": "https://haz-map.com/Agents/1128",
      "category": "agents"
    },
    {
      "type": "name_match",
      "text": "sulfanilamide",
      "confidence": 1.0,
      "uuid": "22436b90-4532-46bf-94d1-02091420d8c1",
      "name": "Sulfanilamide",
      "url": "https://haz-map.com/Agents/1297",
      "category": "agents"
    },
    {
      "type": "name_match",
      "text": "flock",
      "confidence": 1.0,
      "uuid": "16530d01-1e45-48e7-a09e-6cf6b9ed33b7",
      "name": "Flock",
      "url": "https://haz-map.com/Agents/1852",
      "category": "agents"
    },
    {
      "type": "name_match",
      "text": "sulfaquinoxaline",
      "confidence": 1.0,
      "uuid": "11412338-a4aa-43dc-b33a-42f0902cdad1",
      "name": "Sulfaquinoxaline",
      "url": "https://haz-map.com/Agents/7247",
      "category": "agents"
    },
    {
      "type": "name_match",
      "text": "methemoglobin",
      "confidence": 1.0,
      "uuid": "afb7ebf5-d2a3-4e60-8d2e-3a19456344ee",
      "name": "Methemoglobin",
      "url": "https://haz-map.com/Agents/15467",
      "category": "agents"
    },
    {
      "type": "name_match",
      "text": "pyrazine",
      "confidence": 1.0,
      "uuid": "de296522-8691-4497-9f6f-9a448cfb6a83",
      "name": "Pyrazine",
      "url": "https://haz-map.com/Agents/17010",
      "category": "agents"
    },
    {
      "type": "name_match",
      "text": "benzenesulfonamide",
      "confidence": 1.0,
      "uuid": "66d8b92e-3d51-4461-ac5b-4ff3501d45e5",
      "name": "Benzenesulfonamide",
      "url": "https://haz-map.com/Agents/20287",
      "category": "agents"
    },
    {
      "type": "fuzzy_match",
      "text": "methemoglobinemia",
      "matched_name": "Methemoglobinemia, acute",
      "confidence": 0.7208333333333333,
      "uuid": "473a44bd-cf11-4710-a769-e8e2b25ba317",
      "category": "diseases",
      "url": "https://haz-map.com/Diseases/210"
    }
  ],
  "all_links": [
    {
      "text": "Search PubMed",
      "url": "https://www.ncbi.nlm.nih.gov/pubmed?term=Sulfaquinoxaline%20AND%20human%5Bmh%5D%20AND%20%28Occupational%20Diseases%20%5Bmh%5D%20OR%20Occupational%20Exposure%20%5Bmh%5D%29%20%20AND%20%28tox%5Bsb%5D%29&cmd=search"
    },
    {
      "text": "Farming (Pesticides)",
      "url": "https://haz-map.com/Processes/218"
    }
  ]
}