{
  "metadata": {
    "scraped_from": "https://haz-map.com/Agents/13558",
    "entity_name": "Cysteine",
    "category": "agents",
    "uuid": "1172412c-8165-4312-af39-1107dc30e4f4",
    "scraped_at": "2025-07-23T21:15:51.613451"
  },
  "parsed_at": "2025-07-24T01:03:03.133581",
  "title": "Cysteine",
  "sections": {
    "general": {
      "agent_name": {
        "original_name": "Agent Name",
        "value": "Cysteine",
        "links": [],
        "cross_references": [
          {
            "type": "name_match",
            "text": "cysteine",
            "confidence": 1.0,
            "uuid": "1172412c-8165-4312-af39-1107dc30e4f4",
            "name": "Cysteine",
            "url": "https://haz-map.com/Agents/13558",
            "category": "agents"
          }
        ]
      },
      "cas_number": {
        "original_name": "CAS Number",
        "value": "52-90-4",
        "links": [],
        "cross_references": []
      },
      "formula": {
        "original_name": "Formula",
        "value": "C3-H7-N-O2-S",
        "links": [],
        "cross_references": []
      },
      "major_category": {
        "original_name": "Major Category",
        "value": "Biological Agents",
        "links": [],
        "cross_references": []
      },
      "synonyms": {
        "original_name": "Synonyms",
        "value": "(R)-2-Amino-3-mercaptopropanoic acid; (R)-2-Amino-3-mercaptopropionic acid; (R)-Cysteine; 2-Amino-3-mercaptopropanoic acid, (R)-; Cisteina [Spanish]; Cisteinum [Latin]; Cystein; Cysteinum [INN-Latin]; Half cystine; Half-cystine; L-(+)-Cysteine; L-Alanine, 3-mercapto-; Propanoic acid, 2-amino-3-mercapto-, (R)-; Thioserine; alpha-Amino-beta-mercaptopropanoic acid, L-; alpha-Amino-beta-mercaptopropionic acid, L-; alpha-Amino-beta-thiolpropionic acid, L-; beta-Mercaptoalanine; beta-Mercaptoalanine, L-; L-Cysteine; Cysteine, L-; L-2-Amino-3-mercaptopropanoic acid; [ChemIDplus] Cys; C; [Merck Index]",
        "links": [],
        "cross_references": [
          {
            "type": "name_match",
            "text": "propionic acid",
            "confidence": 1.0,
            "uuid": "519c4d0a-ac6f-4f79-a08f-47ebc278e0b4",
            "name": "Propionic acid",
            "url": "https://haz-map.com/Agents/609",
            "category": "agents"
          },
          {
            "type": "name_match",
            "text": "3-mercaptopropionic acid",
            "confidence": 1.0,
            "uuid": "8eb83119-e852-4fc8-a5cc-c4b5f06e7684",
            "name": "3-Mercaptopropionic acid",
            "url": "https://haz-map.com/Agents/3467",
            "category": "agents"
          },
          {
            "type": "name_match",
            "text": "alanine",
            "confidence": 1.0,
            "uuid": "0829012c-76c4-4cb5-91ac-cacb73278dc5",
            "name": "Alanine",
            "url": "https://haz-map.com/Agents/11406",
            "category": "agents"
          },
          {
            "type": "name_match",
            "text": "cysteine",
            "confidence": 1.0,
            "uuid": "1172412c-8165-4312-af39-1107dc30e4f4",
            "name": "Cysteine",
            "url": "https://haz-map.com/Agents/13558",
            "category": "agents"
          },
          {
            "type": "name_match",
            "text": "cystine",
            "confidence": 1.0,
            "uuid": "69e79aa0-86e2-4d31-8767-2f397d0385c7",
            "name": "Cystine",
            "url": "https://haz-map.com/Agents/13561",
            "category": "agents"
          }
        ]
      },
      "category": {
        "original_name": "Category",
        "value": "Amino Acids and Derivatives",
        "links": [],
        "cross_references": []
      },
      "description": {
        "original_name": "Description",
        "value": "Colorless or white solid; [HSDB] Colorless crystalline solid; [Sigma-Aldrich MSDS]",
        "links": [],
        "cross_references": [
          {
            "type": "fuzzy_match",
            "text": "crystalline",
            "matched_name": "Silica, crystalline",
            "confidence": 0.7061403508771931,
            "uuid": "f920e8a2-46df-41b7-af8d-0368a777251e",
            "category": "agents",
            "url": "https://haz-map.com/Agents/427"
          }
        ]
      },
      "sourcesuses": {
        "original_name": "Sources/Uses",
        "value": "Cysteine is a non-essential amino acid that has been used as a dough conditioner and veterinary detoxicant; [Merck Index] Used as a flavoring agent, dough strengthener, nutritional supplement, and flour treating agent for foods; [FDA] Used for biochemical and nutritional research and as a medication; [HSDB]",
        "links": [],
        "cross_references": [
          {
            "type": "name_match",
            "text": "mica",
            "confidence": 1.0,
            "uuid": "433f26f1-c399-4596-b179-ce3843cfd465",
            "name": "Mica",
            "url": "https://haz-map.com/Agents/621",
            "category": "agents"
          },
          {
            "type": "name_match",
            "text": "cysteine",
            "confidence": 1.0,
            "uuid": "1172412c-8165-4312-af39-1107dc30e4f4",
            "name": "Cysteine",
            "url": "https://haz-map.com/Agents/13558",
            "category": "agents"
          }
        ]
      },
      "comments": {
        "original_name": "Comments",
        "value": "Safe when used as a flavoring agent in food; [JECFA] May cause irritation; Harmful by ingestion; [Sigma-Aldrich MSDS]",
        "links": [],
        "cross_references": []
      },
      "biomedical_references": {
        "original_name": "Biomedical References",
        "value": "Search PubMed",
        "links": [
          {
            "text": "Search PubMed",
            "url": "https://www.ncbi.nlm.nih.gov/pubmed?term=Cysteine%20AND%20human%5Bmh%5D%20AND%20%28Occupational%20Diseases%20%5Bmh%5D%20OR%20Occupational%20Exposure%20%5Bmh%5D%29%20%20AND%20%28tox%5Bsb%5D%29&cmd=search"
          }
        ],
        "cross_references": []
      }
    },
    "exposure_assessment": {
      "vapor_pressure": {
        "original_name": "Vapor Pressure",
        "value": "2.07E-06 mm Hg",
        "links": [],
        "cross_references": []
      }
    },
    "diseases_processes_and_activities_linked_to_this_agent": {
      "other_information": {
        "original_name": "Other Information",
        "value": "No other related information on this agent was found.",
        "links": [],
        "cross_references": []
      }
    }
  },
  "cross_references": [
    {
      "type": "name_match",
      "text": "propionic acid",
      "confidence": 1.0,
      "uuid": "519c4d0a-ac6f-4f79-a08f-47ebc278e0b4",
      "name": "Propionic acid",
      "url": "https://haz-map.com/Agents/609",
      "category": "agents"
    },
    {
      "type": "name_match",
      "text": "mica",
      "confidence": 1.0,
      "uuid": "433f26f1-c399-4596-b179-ce3843cfd465",
      "name": "Mica",
      "url": "https://haz-map.com/Agents/621",
      "category": "agents"
    },
    {
      "type": "name_match",
      "text": "3-mercaptopropionic acid",
      "confidence": 1.0,
      "uuid": "8eb83119-e852-4fc8-a5cc-c4b5f06e7684",
      "name": "3-Mercaptopropionic acid",
      "url": "https://haz-map.com/Agents/3467",
      "category": "agents"
    },
    {
      "type": "name_match",
      "text": "alanine",
      "confidence": 1.0,
      "uuid": "0829012c-76c4-4cb5-91ac-cacb73278dc5",
      "name": "Alanine",
      "url": "https://haz-map.com/Agents/11406",
      "category": "agents"
    },
    {
      "type": "name_match",
      "text": "cysteine",
      "confidence": 1.0,
      "uuid": "1172412c-8165-4312-af39-1107dc30e4f4",
      "name": "Cysteine",
      "url": "https://haz-map.com/Agents/13558",
      "category": "agents"
    },
    {
      "type": "name_match",
      "text": "cystine",
      "confidence": 1.0,
      "uuid": "69e79aa0-86e2-4d31-8767-2f397d0385c7",
      "name": "Cystine",
      "url": "https://haz-map.com/Agents/13561",
      "category": "agents"
    },
    {
      "type": "fuzzy_match",
      "text": "crystalline",
      "matched_name": "Silica, crystalline",
      "confidence": 0.7061403508771931,
      "uuid": "f920e8a2-46df-41b7-af8d-0368a777251e",
      "category": "agents",
      "url": "https://haz-map.com/Agents/427"
    }
  ],
  "all_links": [
    {
      "text": "Search PubMed",
      "url": "https://www.ncbi.nlm.nih.gov/pubmed?term=Cysteine%20AND%20human%5Bmh%5D%20AND%20%28Occupational%20Diseases%20%5Bmh%5D%20OR%20Occupational%20Exposure%20%5Bmh%5D%29%20%20AND%20%28tox%5Bsb%5D%29&cmd=search"
    }
  ]
}