{
  "metadata": {
    "scraped_from": "https://haz-map.com/Agents/13523",
    "entity_name": "1,1-Dimethylcyclopropane",
    "category": "agents",
    "uuid": "11741e1f-5697-431c-966f-4201a70182c5",
    "scraped_at": "2025-07-23T21:15:27.113920"
  },
  "parsed_at": "2025-07-24T01:07:59.464540",
  "title": "1,1-Dimethylcyclopropane",
  "sections": {
    "general": {
      "agent_name": {
        "original_name": "Agent Name",
        "value": "1,1-Dimethylcyclopropane",
        "links": [],
        "cross_references": [
          {
            "type": "name_match",
            "text": "propane",
            "confidence": 1.0,
            "uuid": "563a611b-46ea-4bdc-b77b-17d8f7646283",
            "name": "Propane",
            "url": "https://haz-map.com/Agents/607",
            "category": "agents"
          },
          {
            "type": "name_match",
            "text": "cyclopropane",
            "confidence": 1.0,
            "uuid": "eff680c8-2b85-4f0d-9c04-449434d56b54",
            "name": "Cyclopropane",
            "url": "https://haz-map.com/Agents/4611",
            "category": "agents"
          },
          {
            "type": "name_match",
            "text": "1,1-dimethylcyclopropane",
            "confidence": 1.0,
            "uuid": "11741e1f-5697-431c-966f-4201a70182c5",
            "name": "1,1-Dimethylcyclopropane",
            "url": "https://haz-map.com/Agents/13523",
            "category": "agents"
          },
          {
            "type": "name_match",
            "text": "ethylcyclopropane",
            "confidence": 1.0,
            "uuid": "3829e96b-c048-428e-a2ff-537a69ad5f8f",
            "name": "Ethylcyclopropane",
            "url": "https://haz-map.com/Agents/13535",
            "category": "agents"
          }
        ]
      },
      "cas_number": {
        "original_name": "CAS Number",
        "value": "1630-94-0",
        "links": [],
        "cross_references": []
      },
      "formula": {
        "original_name": "Formula",
        "value": "C5-H10",
        "links": [],
        "cross_references": []
      },
      "major_category": {
        "original_name": "Major Category",
        "value": "Solvents",
        "links": [],
        "cross_references": []
      },
      "synonyms": {
        "original_name": "Synonyms",
        "value": "Cyclopropane, 1,1-dimethyl-; [ChemIDplus]",
        "links": [],
        "cross_references": [
          {
            "type": "name_match",
            "text": "propane",
            "confidence": 1.0,
            "uuid": "563a611b-46ea-4bdc-b77b-17d8f7646283",
            "name": "Propane",
            "url": "https://haz-map.com/Agents/607",
            "category": "agents"
          },
          {
            "type": "name_match",
            "text": "cyclopropane",
            "confidence": 1.0,
            "uuid": "eff680c8-2b85-4f0d-9c04-449434d56b54",
            "name": "Cyclopropane",
            "url": "https://haz-map.com/Agents/4611",
            "category": "agents"
          }
        ]
      },
      "category": {
        "original_name": "Category",
        "value": "Aliphatics, Saturated (<C12)",
        "links": [],
        "cross_references": []
      },
      "description": {
        "original_name": "Description",
        "value": "Boiling point = 20.6 deg C; [ChemIDplus]",
        "links": [],
        "cross_references": []
      },
      "comments": {
        "original_name": "Comments",
        "value": "Overexposure may cause skin and eye irritation; May have anesthetic effects (drowsiness, dizziness, and headache); [ChemSampCo MSDS] See \"Ethylcyclopropane.\"",
        "links": [],
        "cross_references": [
          {
            "type": "name_match",
            "text": "dizziness",
            "confidence": 1.0,
            "uuid": "4b0e6043-b228-49de-996c-b42ec8b3780e",
            "name": "dizziness",
            "url": "https://haz-map.com/Findings/16",
            "category": "findings"
          },
          {
            "type": "name_match",
            "text": "headache",
            "confidence": 1.0,
            "uuid": "a474a38d-66ac-44da-92de-de1c781a30e7",
            "name": "headache",
            "url": "https://haz-map.com/Findings/17",
            "category": "findings"
          },
          {
            "type": "name_match",
            "text": "propane",
            "confidence": 1.0,
            "uuid": "563a611b-46ea-4bdc-b77b-17d8f7646283",
            "name": "Propane",
            "url": "https://haz-map.com/Agents/607",
            "category": "agents"
          },
          {
            "type": "name_match",
            "text": "cyclopropane",
            "confidence": 1.0,
            "uuid": "eff680c8-2b85-4f0d-9c04-449434d56b54",
            "name": "Cyclopropane",
            "url": "https://haz-map.com/Agents/4611",
            "category": "agents"
          },
          {
            "type": "name_match",
            "text": "ethylcyclopropane",
            "confidence": 1.0,
            "uuid": "3829e96b-c048-428e-a2ff-537a69ad5f8f",
            "name": "Ethylcyclopropane",
            "url": "https://haz-map.com/Agents/13535",
            "category": "agents"
          }
        ]
      },
      "biomedical_references": {
        "original_name": "Biomedical References",
        "value": "Search PubMed",
        "links": [
          {
            "text": "Search PubMed",
            "url": "https://www.ncbi.nlm.nih.gov/pubmed?term=1%2c1-Dimethylcyclopropane%20AND%20human%5Bmh%5D%20AND%20%28Occupational%20Diseases%20%5Bmh%5D%20OR%20Occupational%20Exposure%20%5Bmh%5D%29%20%20AND%20%28tox%5Bsb%5D%29&cmd=search"
          }
        ],
        "cross_references": []
      }
    },
    "adverse_effects": {
      "neurotoxin": {
        "original_name": "Neurotoxin",
        "value": "Acute solvent syndrome",
        "links": [],
        "cross_references": []
      }
    },
    "diseases_processes_and_activities_linked_to_this_agent": {
      "diseases": {
        "original_name": "Diseases",
        "value": "Occupational diseases associated with exposure to this agent: Solvents, acute toxic effect",
        "links": [
          {
            "text": "Solvents, acute toxic effect",
            "url": "https://haz-map.com/Diseases/326"
          }
        ],
        "cross_references": [
          {
            "type": "url_match",
            "text": "Solvents, acute toxic effect",
            "url": "https://haz-map.com/Diseases/326",
            "confidence": 1.0,
            "uuid": "581e90e3-9d0c-45f0-aa6c-3468c28da129",
            "name": "Solvents, acute toxic effect",
            "category": "diseases"
          }
        ]
      }
    }
  },
  "cross_references": [
    {
      "type": "url_match",
      "text": "Solvents, acute toxic effect",
      "url": "https://haz-map.com/Diseases/326",
      "confidence": 1.0,
      "uuid": "581e90e3-9d0c-45f0-aa6c-3468c28da129",
      "name": "Solvents, acute toxic effect",
      "category": "diseases"
    },
    {
      "type": "name_match",
      "text": "dizziness",
      "confidence": 1.0,
      "uuid": "4b0e6043-b228-49de-996c-b42ec8b3780e",
      "name": "dizziness",
      "url": "https://haz-map.com/Findings/16",
      "category": "findings"
    },
    {
      "type": "name_match",
      "text": "headache",
      "confidence": 1.0,
      "uuid": "a474a38d-66ac-44da-92de-de1c781a30e7",
      "name": "headache",
      "url": "https://haz-map.com/Findings/17",
      "category": "findings"
    },
    {
      "type": "name_match",
      "text": "propane",
      "confidence": 1.0,
      "uuid": "563a611b-46ea-4bdc-b77b-17d8f7646283",
      "name": "Propane",
      "url": "https://haz-map.com/Agents/607",
      "category": "agents"
    },
    {
      "type": "name_match",
      "text": "cyclopropane",
      "confidence": 1.0,
      "uuid": "eff680c8-2b85-4f0d-9c04-449434d56b54",
      "name": "Cyclopropane",
      "url": "https://haz-map.com/Agents/4611",
      "category": "agents"
    },
    {
      "type": "name_match",
      "text": "1,1-dimethylcyclopropane",
      "confidence": 1.0,
      "uuid": "11741e1f-5697-431c-966f-4201a70182c5",
      "name": "1,1-Dimethylcyclopropane",
      "url": "https://haz-map.com/Agents/13523",
      "category": "agents"
    },
    {
      "type": "name_match",
      "text": "ethylcyclopropane",
      "confidence": 1.0,
      "uuid": "3829e96b-c048-428e-a2ff-537a69ad5f8f",
      "name": "Ethylcyclopropane",
      "url": "https://haz-map.com/Agents/13535",
      "category": "agents"
    }
  ],
  "all_links": [
    {
      "text": "Search PubMed",
      "url": "https://www.ncbi.nlm.nih.gov/pubmed?term=1%2c1-Dimethylcyclopropane%20AND%20human%5Bmh%5D%20AND%20%28Occupational%20Diseases%20%5Bmh%5D%20OR%20Occupational%20Exposure%20%5Bmh%5D%29%20%20AND%20%28tox%5Bsb%5D%29&cmd=search"
    },
    {
      "text": "Solvents, acute toxic effect",
      "url": "https://haz-map.com/Diseases/326"
    }
  ]
}