{
  "metadata": {
    "scraped_from": "https://haz-map.com/Agents/2755",
    "entity_name": "1,2-Dichloropropene",
    "category": "agents",
    "uuid": "1197282e-ef63-4d06-a88c-780d707c831e",
    "scraped_at": "2025-07-23T19:18:31.806323"
  },
  "parsed_at": "2025-07-24T01:08:52.829885",
  "title": "1,2-Dichloropropene",
  "sections": {
    "general": {
      "agent_name": {
        "original_name": "Agent Name",
        "value": "1,2-Dichloropropene",
        "links": [],
        "cross_references": [
          {
            "type": "name_match",
            "text": "1,2-dichloropropene",
            "confidence": 1.0,
            "uuid": "1197282e-ef63-4d06-a88c-780d707c831e",
            "name": "1,2-Dichloropropene",
            "url": "https://haz-map.com/Agents/2755",
            "category": "agents"
          }
        ]
      },
      "cas_number": {
        "original_name": "CAS Number",
        "value": "563-54-2",
        "links": [],
        "cross_references": []
      },
      "formula": {
        "original_name": "Formula",
        "value": "C3-H4-Cl2",
        "links": [],
        "cross_references": []
      },
      "major_category": {
        "original_name": "Major Category",
        "value": "Solvents",
        "links": [],
        "cross_references": []
      },
      "synonyms": {
        "original_name": "Synonyms",
        "value": "1,2-Dichloropropylene; 1-Propene, 1,2-dichloro-; Dichlor; Dichlorpropen-gemisch [German]; PDC; Propene, 1,2-dichloro-; [ChemIDplus]",
        "links": [],
        "cross_references": [
          {
            "type": "name_match",
            "text": "propylene",
            "confidence": 1.0,
            "uuid": "78ac73a1-0029-4a50-b283-561134c72041",
            "name": "Propylene",
            "url": "https://haz-map.com/Agents/1078",
            "category": "agents"
          },
          {
            "type": "name_match",
            "text": "dichlorprop",
            "confidence": 1.0,
            "uuid": "d9858432-6225-4c2b-a891-a807d173034a",
            "name": "Dichlorprop",
            "url": "https://haz-map.com/Agents/4788",
            "category": "agents"
          }
        ]
      },
      "category": {
        "original_name": "Category",
        "value": "Chlorinated Aliphatics",
        "links": [],
        "cross_references": [
          {
            "type": "name_match",
            "text": "chlorin",
            "confidence": 1.0,
            "uuid": "4a566fec-ec7e-42b0-9f14-ec586335e694",
            "name": "Chlorin",
            "url": "https://haz-map.com/Agents/20422",
            "category": "agents"
          }
        ]
      },
      "description": {
        "original_name": "Description",
        "value": "Liquid; [HSDB]",
        "links": [],
        "cross_references": []
      },
      "sourcesuses": {
        "original_name": "Sources/Uses",
        "value": "Used in a mixture as a soil fumigant for control of nematodes affecting roots of plants; [HSDB] 1,3-Dichloropropene is used as a pesticide; 2,3-Dichloropropene is used to make other chemicals; No uses were found for the other isomers (1,1-, 1,2-, and 3,3-); [Reference #1]",
        "links": [],
        "cross_references": [
          {
            "type": "name_match",
            "text": "1,3-dichloropropene",
            "confidence": 1.0,
            "uuid": "e140b45a-f881-4030-863e-0370336b43d7",
            "name": "1,3-Dichloropropene",
            "url": "https://haz-map.com/Agents/404",
            "category": "agents"
          },
          {
            "type": "name_match",
            "text": "mica",
            "confidence": 1.0,
            "uuid": "433f26f1-c399-4596-b179-ce3843cfd465",
            "name": "Mica",
            "url": "https://haz-map.com/Agents/621",
            "category": "agents"
          }
        ]
      },
      "comments": {
        "original_name": "Comments",
        "value": "A skin, eye, and respiratory mucosa irritant; Inhalation of high concentrations can cause CNS depression and lacrimation; May cause kidney and liver injury; [HSDB] There is little information available about the isomers other than 1,3-Dichloropropene. [Reference #1] See \"1,3-Dichloropropene.\" See \"Dichloropropene, all isomers.\"",
        "links": [],
        "cross_references": [
          {
            "type": "name_match",
            "text": "lacrimation",
            "confidence": 1.0,
            "uuid": "392ff8e7-90fa-4d6d-8f67-3e49d053ffac",
            "name": "lacrimation",
            "url": "https://haz-map.com/Findings/199",
            "category": "findings"
          },
          {
            "type": "name_match",
            "text": "1,3-dichloropropene",
            "confidence": 1.0,
            "uuid": "e140b45a-f881-4030-863e-0370336b43d7",
            "name": "1,3-Dichloropropene",
            "url": "https://haz-map.com/Agents/404",
            "category": "agents"
          },
          {
            "type": "name_match",
            "text": "dichloropropene, all isomers",
            "confidence": 1.0,
            "uuid": "e4769837-cc80-4958-984b-985c33810056",
            "name": "Dichloropropene, all isomers",
            "url": "https://haz-map.com/Agents/4790",
            "category": "agents"
          }
        ]
      },
      "reference_link_1": {
        "original_name": "Reference Link #1",
        "value": "ATSDR - ToxFAQs: Dichloropropenes",
        "links": [
          {
            "text": "ATSDR - ToxFAQs: Dichloropropenes",
            "url": "http://www.atsdr.cdc.gov/toxfaqs/tf.asp?id=835&tid=163"
          }
        ],
        "cross_references": []
      },
      "biomedical_references": {
        "original_name": "Biomedical References",
        "value": "Search PubMed",
        "links": [
          {
            "text": "Search PubMed",
            "url": "https://www.ncbi.nlm.nih.gov/pubmed?term=1%2c2-Dichloropropene%20AND%20human%5Bmh%5D%20AND%20%28Occupational%20Diseases%20%5Bmh%5D%20OR%20Occupational%20Exposure%20%5Bmh%5D%29%20%20AND%20%28tox%5Bsb%5D%29&cmd=search"
          }
        ],
        "cross_references": []
      }
    },
    "exposure_assessment": {
      "vapor_pressure": {
        "original_name": "Vapor Pressure",
        "value": "90.8 mm Hg",
        "links": [],
        "cross_references": []
      },
      "explanatory_notes": {
        "original_name": "Explanatory Notes",
        "value": "VP from ChemIDplus;",
        "links": [],
        "cross_references": []
      }
    },
    "adverse_effects": {
      "lachrymator": {
        "original_name": "Lachrymator",
        "value": "Yes",
        "links": [],
        "cross_references": []
      },
      "neurotoxin": {
        "original_name": "Neurotoxin",
        "value": "Acute solvent syndrome",
        "links": [],
        "cross_references": []
      },
      "hepatotoxin": {
        "original_name": "Hepatotoxin",
        "value": "Hepatoxic (a) from occupational exposure (secondary effect) or (b) in animal studies or in humans after ingestion",
        "links": [],
        "cross_references": []
      },
      "nephrotoxin": {
        "original_name": "Nephrotoxin",
        "value": "Yes",
        "links": [],
        "cross_references": []
      }
    },
    "diseases_processes_and_activities_linked_to_this_agent": {
      "diseases": {
        "original_name": "Diseases",
        "value": "Occupational diseases associated with exposure to this agent: Solvents, acute toxic effect",
        "links": [
          {
            "text": "Solvents, acute toxic effect",
            "url": "https://haz-map.com/Diseases/326"
          }
        ],
        "cross_references": [
          {
            "type": "url_match",
            "text": "Solvents, acute toxic effect",
            "url": "https://haz-map.com/Diseases/326",
            "confidence": 1.0,
            "uuid": "581e90e3-9d0c-45f0-aa6c-3468c28da129",
            "name": "Solvents, acute toxic effect",
            "category": "diseases"
          }
        ]
      },
      "processes": {
        "original_name": "Processes",
        "value": "Industrial Processes with risk of exposure: Farming (Pesticides)",
        "links": [
          {
            "text": "Farming (Pesticides)",
            "url": "https://haz-map.com/Processes/218"
          }
        ],
        "cross_references": [
          {
            "type": "url_match",
            "text": "Farming (Pesticides)",
            "url": "https://haz-map.com/Processes/218",
            "confidence": 1.0,
            "uuid": "cf1e5815-c9bb-4917-82a5-391848170b7e",
            "name": "Farming (Pesticides)",
            "category": "processes"
          }
        ]
      }
    }
  },
  "cross_references": [
    {
      "type": "url_match",
      "text": "Solvents, acute toxic effect",
      "url": "https://haz-map.com/Diseases/326",
      "confidence": 1.0,
      "uuid": "581e90e3-9d0c-45f0-aa6c-3468c28da129",
      "name": "Solvents, acute toxic effect",
      "category": "diseases"
    },
    {
      "type": "url_match",
      "text": "Farming (Pesticides)",
      "url": "https://haz-map.com/Processes/218",
      "confidence": 1.0,
      "uuid": "cf1e5815-c9bb-4917-82a5-391848170b7e",
      "name": "Farming (Pesticides)",
      "category": "processes"
    },
    {
      "type": "name_match",
      "text": "lacrimation",
      "confidence": 1.0,
      "uuid": "392ff8e7-90fa-4d6d-8f67-3e49d053ffac",
      "name": "lacrimation",
      "url": "https://haz-map.com/Findings/199",
      "category": "findings"
    },
    {
      "type": "name_match",
      "text": "1,3-dichloropropene",
      "confidence": 1.0,
      "uuid": "e140b45a-f881-4030-863e-0370336b43d7",
      "name": "1,3-Dichloropropene",
      "url": "https://haz-map.com/Agents/404",
      "category": "agents"
    },
    {
      "type": "name_match",
      "text": "mica",
      "confidence": 1.0,
      "uuid": "433f26f1-c399-4596-b179-ce3843cfd465",
      "name": "Mica",
      "url": "https://haz-map.com/Agents/621",
      "category": "agents"
    },
    {
      "type": "name_match",
      "text": "propylene",
      "confidence": 1.0,
      "uuid": "78ac73a1-0029-4a50-b283-561134c72041",
      "name": "Propylene",
      "url": "https://haz-map.com/Agents/1078",
      "category": "agents"
    },
    {
      "type": "name_match",
      "text": "1,2-dichloropropene",
      "confidence": 1.0,
      "uuid": "1197282e-ef63-4d06-a88c-780d707c831e",
      "name": "1,2-Dichloropropene",
      "url": "https://haz-map.com/Agents/2755",
      "category": "agents"
    },
    {
      "type": "name_match",
      "text": "dichlorprop",
      "confidence": 1.0,
      "uuid": "d9858432-6225-4c2b-a891-a807d173034a",
      "name": "Dichlorprop",
      "url": "https://haz-map.com/Agents/4788",
      "category": "agents"
    },
    {
      "type": "name_match",
      "text": "dichloropropene, all isomers",
      "confidence": 1.0,
      "uuid": "e4769837-cc80-4958-984b-985c33810056",
      "name": "Dichloropropene, all isomers",
      "url": "https://haz-map.com/Agents/4790",
      "category": "agents"
    },
    {
      "type": "name_match",
      "text": "chlorin",
      "confidence": 1.0,
      "uuid": "4a566fec-ec7e-42b0-9f14-ec586335e694",
      "name": "Chlorin",
      "url": "https://haz-map.com/Agents/20422",
      "category": "agents"
    }
  ],
  "all_links": [
    {
      "text": "ATSDR - ToxFAQs: Dichloropropenes",
      "url": "http://www.atsdr.cdc.gov/toxfaqs/tf.asp?id=835&tid=163"
    },
    {
      "text": "Search PubMed",
      "url": "https://www.ncbi.nlm.nih.gov/pubmed?term=1%2c2-Dichloropropene%20AND%20human%5Bmh%5D%20AND%20%28Occupational%20Diseases%20%5Bmh%5D%20OR%20Occupational%20Exposure%20%5Bmh%5D%29%20%20AND%20%28tox%5Bsb%5D%29&cmd=search"
    },
    {
      "text": "Solvents, acute toxic effect",
      "url": "https://haz-map.com/Diseases/326"
    },
    {
      "text": "Farming (Pesticides)",
      "url": "https://haz-map.com/Processes/218"
    }
  ]
}