{
  "metadata": {
    "scraped_from": "https://haz-map.com/Agents/19260",
    "entity_name": "1,3-Indandione",
    "category": "agents",
    "uuid": "11f3f730-a7f0-4fbe-b7e1-443b9dfaf6c9",
    "scraped_at": "2025-07-23T22:02:30.047190"
  },
  "parsed_at": "2025-07-24T01:06:51.487446",
  "title": "1,3-Indandione",
  "sections": {
    "general": {
      "agent_name": {
        "original_name": "Agent Name",
        "value": "1,3-Indandione",
        "links": [],
        "cross_references": [
          {
            "type": "name_match",
            "text": "1,3-indandione",
            "confidence": 1.0,
            "uuid": "11f3f730-a7f0-4fbe-b7e1-443b9dfaf6c9",
            "name": "1,3-Indandione",
            "url": "https://haz-map.com/Agents/19260",
            "category": "agents"
          },
          {
            "type": "name_match",
            "text": "indan",
            "confidence": 1.0,
            "uuid": "ebba867b-a993-436a-85fb-f7d1183da941",
            "name": "Indan",
            "url": "https://haz-map.com/Agents/19450",
            "category": "agents"
          }
        ]
      },
      "cas_number": {
        "original_name": "CAS Number",
        "value": "606-23-5",
        "links": [],
        "cross_references": []
      },
      "formula": {
        "original_name": "Formula",
        "value": "C9-H6-O2",
        "links": [],
        "cross_references": []
      },
      "major_category": {
        "original_name": "Major Category",
        "value": "Other Classes",
        "links": [],
        "cross_references": []
      },
      "synonyms": {
        "original_name": "Synonyms",
        "value": "1,3-Diketohydrindene; 1,3-Indandion; 1H-Indene-1,3(2H)-dione; Indan-1,3-dione; [ChemIDplus] 1,3-Dioxoindan; [Sigma-Aldrich MSDS]",
        "links": [],
        "cross_references": [
          {
            "type": "name_match",
            "text": "indene",
            "confidence": 1.0,
            "uuid": "abe76b78-2986-4d49-b6e5-d1ce49774b99",
            "name": "Indene",
            "url": "https://haz-map.com/Agents/520",
            "category": "agents"
          },
          {
            "type": "name_match",
            "text": "indan",
            "confidence": 1.0,
            "uuid": "ebba867b-a993-436a-85fb-f7d1183da941",
            "name": "Indan",
            "url": "https://haz-map.com/Agents/19450",
            "category": "agents"
          }
        ]
      },
      "category": {
        "original_name": "Category",
        "value": "Other Organic Compounds",
        "links": [],
        "cross_references": [
          {
            "type": "fuzzy_match",
            "text": "organic compounds",
            "matched_name": "Tin, organic compounds",
            "confidence": 0.8196969696969697,
            "uuid": "e027d413-8869-4308-9eb2-27d768b011ea",
            "category": "agents",
            "url": "https://haz-map.com/Agents/656"
          }
        ]
      },
      "description": {
        "original_name": "Description",
        "value": "Solid; [Sigma-Aldrich MSDS]",
        "links": [],
        "cross_references": []
      },
      "comments": {
        "original_name": "Comments",
        "value": "Intraperitoneal LDLo (mouse) = 100 mg/kg; [RTECS] May cause irritation; [Sigma-Aldrich MSDS] See \"Ninhydrin.\" See \"C.I. Solvent Yellow 33\" and \"Valone.\"",
        "links": [],
        "cross_references": [
          {
            "type": "name_match",
            "text": "ninhydrin",
            "confidence": 1.0,
            "uuid": "036e928e-560a-4eb5-b725-f79816b06a83",
            "name": "Ninhydrin",
            "url": "https://haz-map.com/Agents/1218",
            "category": "agents"
          },
          {
            "type": "name_match",
            "text": "valone",
            "confidence": 1.0,
            "uuid": "b3023c8f-a993-4965-9218-64e9676bfb15",
            "name": "Valone",
            "url": "https://haz-map.com/Agents/7698",
            "category": "agents"
          },
          {
            "type": "name_match",
            "text": "c.i. solvent yellow 33",
            "confidence": 1.0,
            "uuid": "92b0b0f0-96e2-4b89-9d30-f9b5719e704c",
            "name": "C.I. Solvent Yellow 33",
            "url": "https://haz-map.com/Agents/10298",
            "category": "agents"
          }
        ]
      },
      "biomedical_references": {
        "original_name": "Biomedical References",
        "value": "Search PubMed",
        "links": [
          {
            "text": "Search PubMed",
            "url": "https://www.ncbi.nlm.nih.gov/pubmed?term=1%2c3-Indandione%20AND%20human%5Bmh%5D%20AND%20%28Occupational%20Diseases%20%5Bmh%5D%20OR%20Occupational%20Exposure%20%5Bmh%5D%29%20%20AND%20%28tox%5Bsb%5D%29&cmd=search"
          }
        ],
        "cross_references": []
      }
    },
    "exposure_assessment": {
      "vapor_pressure": {
        "original_name": "Vapor Pressure",
        "value": "0.00172 mm Hg",
        "links": [],
        "cross_references": []
      }
    },
    "diseases_processes_and_activities_linked_to_this_agent": {
      "other_information": {
        "original_name": "Other Information",
        "value": "No other related information on this agent was found.",
        "links": [],
        "cross_references": []
      }
    }
  },
  "cross_references": [
    {
      "type": "name_match",
      "text": "indene",
      "confidence": 1.0,
      "uuid": "abe76b78-2986-4d49-b6e5-d1ce49774b99",
      "name": "Indene",
      "url": "https://haz-map.com/Agents/520",
      "category": "agents"
    },
    {
      "type": "name_match",
      "text": "ninhydrin",
      "confidence": 1.0,
      "uuid": "036e928e-560a-4eb5-b725-f79816b06a83",
      "name": "Ninhydrin",
      "url": "https://haz-map.com/Agents/1218",
      "category": "agents"
    },
    {
      "type": "name_match",
      "text": "valone",
      "confidence": 1.0,
      "uuid": "b3023c8f-a993-4965-9218-64e9676bfb15",
      "name": "Valone",
      "url": "https://haz-map.com/Agents/7698",
      "category": "agents"
    },
    {
      "type": "name_match",
      "text": "c.i. solvent yellow 33",
      "confidence": 1.0,
      "uuid": "92b0b0f0-96e2-4b89-9d30-f9b5719e704c",
      "name": "C.I. Solvent Yellow 33",
      "url": "https://haz-map.com/Agents/10298",
      "category": "agents"
    },
    {
      "type": "name_match",
      "text": "1,3-indandione",
      "confidence": 1.0,
      "uuid": "11f3f730-a7f0-4fbe-b7e1-443b9dfaf6c9",
      "name": "1,3-Indandione",
      "url": "https://haz-map.com/Agents/19260",
      "category": "agents"
    },
    {
      "type": "name_match",
      "text": "indan",
      "confidence": 1.0,
      "uuid": "ebba867b-a993-436a-85fb-f7d1183da941",
      "name": "Indan",
      "url": "https://haz-map.com/Agents/19450",
      "category": "agents"
    },
    {
      "type": "fuzzy_match",
      "text": "organic compounds",
      "matched_name": "Tin, organic compounds",
      "confidence": 0.8196969696969697,
      "uuid": "e027d413-8869-4308-9eb2-27d768b011ea",
      "category": "agents",
      "url": "https://haz-map.com/Agents/656"
    }
  ],
  "all_links": [
    {
      "text": "Search PubMed",
      "url": "https://www.ncbi.nlm.nih.gov/pubmed?term=1%2c3-Indandione%20AND%20human%5Bmh%5D%20AND%20%28Occupational%20Diseases%20%5Bmh%5D%20OR%20Occupational%20Exposure%20%5Bmh%5D%29%20%20AND%20%28tox%5Bsb%5D%29&cmd=search"
    }
  ]
}