{
  "metadata": {
    "scraped_from": "https://haz-map.com/Agents/3161",
    "entity_name": "2-Pinanol",
    "category": "agents",
    "uuid": "121ed42f-139d-4c86-b6c2-bc18a633423b",
    "scraped_at": "2025-07-23T19:24:59.556540"
  },
  "parsed_at": "2025-07-24T01:15:12.709176",
  "title": "2-Pinanol",
  "sections": {
    "general": {
      "agent_name": {
        "original_name": "Agent Name",
        "value": "2-Pinanol",
        "links": [],
        "cross_references": [
          {
            "type": "name_match",
            "text": "2-pinanol",
            "confidence": 1.0,
            "uuid": "121ed42f-139d-4c86-b6c2-bc18a633423b",
            "name": "2-Pinanol",
            "url": "https://haz-map.com/Agents/3161",
            "category": "agents"
          }
        ]
      },
      "cas_number": {
        "original_name": "CAS Number",
        "value": "473-54-1",
        "links": [],
        "cross_references": []
      },
      "formula": {
        "original_name": "Formula",
        "value": "C10-H18-O",
        "links": [],
        "cross_references": []
      },
      "major_category": {
        "original_name": "Major Category",
        "value": "Other Classes",
        "links": [],
        "cross_references": []
      },
      "synonyms": {
        "original_name": "Synonyms",
        "value": "Bicyclo(3.1.1)heptan-2-ol, 2,6,6-trimethyl-; Pinanol; 2,6,6-Trimethylbicyclo(3.1.1)heptane-2-ol; [ChemIDplus] UN1325",
        "links": [],
        "cross_references": []
      },
      "category": {
        "original_name": "Category",
        "value": "Alcohols and Polyols, Other",
        "links": [],
        "cross_references": []
      },
      "description": {
        "original_name": "Description",
        "value": "Nearly white solid; mp = 22-24 deg C; Camphor-type odor; [MSDSonline]",
        "links": [],
        "cross_references": []
      },
      "sourcesuses": {
        "original_name": "Sources/Uses",
        "value": "Used as a fragrance and flavoring agent; [HSDB]",
        "links": [],
        "cross_references": []
      },
      "comments": {
        "original_name": "Comments",
        "value": "Emergency treatment: \"Turpentine oil\"; [HSDB] A skin irritant; [MSDSonline] See \"Turpentine.\" See \"TERPENES.\"",
        "links": [],
        "cross_references": [
          {
            "type": "name_match",
            "text": "turpentine",
            "confidence": 1.0,
            "uuid": "b7d51e8a-db01-4cbb-b033-17f7c355d353",
            "name": "Turpentine",
            "url": "https://haz-map.com/Agents/640",
            "category": "agents"
          },
          {
            "type": "name_match",
            "text": "terpenes",
            "confidence": 1.0,
            "uuid": "0a11dd9e-f81d-477b-b44c-85ca49ab02f4",
            "name": "TERPENES",
            "url": "https://haz-map.com/Agents/817",
            "category": "agents"
          }
        ]
      },
      "biomedical_references": {
        "original_name": "Biomedical References",
        "value": "Search PubMed",
        "links": [
          {
            "text": "Search PubMed",
            "url": "https://www.ncbi.nlm.nih.gov/pubmed?term=2-Pinanol%20AND%20human%5Bmh%5D%20AND%20%28Occupational%20Diseases%20%5Bmh%5D%20OR%20Occupational%20Exposure%20%5Bmh%5D%29%20%20AND%20%28tox%5Bsb%5D%29&cmd=search"
          }
        ],
        "cross_references": []
      }
    },
    "exposure_assessment": {
      "vapor_pressure": {
        "original_name": "Vapor Pressure",
        "value": "0.07 mm Hg",
        "links": [],
        "cross_references": []
      },
      "explanatory_notes": {
        "original_name": "Explanatory Notes",
        "value": "The Guide in the Emergency Response Guidebook is for \"Flammable solid, organic, n.o.s.\" VP from ChemIDplus;",
        "links": [],
        "cross_references": []
      }
    },
    "diseases_processes_and_activities_linked_to_this_agent": {
      "other_information": {
        "original_name": "Other Information",
        "value": "No other related information on this agent was found.",
        "links": [],
        "cross_references": []
      }
    }
  },
  "cross_references": [
    {
      "type": "name_match",
      "text": "turpentine",
      "confidence": 1.0,
      "uuid": "b7d51e8a-db01-4cbb-b033-17f7c355d353",
      "name": "Turpentine",
      "url": "https://haz-map.com/Agents/640",
      "category": "agents"
    },
    {
      "type": "name_match",
      "text": "terpenes",
      "confidence": 1.0,
      "uuid": "0a11dd9e-f81d-477b-b44c-85ca49ab02f4",
      "name": "TERPENES",
      "url": "https://haz-map.com/Agents/817",
      "category": "agents"
    },
    {
      "type": "name_match",
      "text": "2-pinanol",
      "confidence": 1.0,
      "uuid": "121ed42f-139d-4c86-b6c2-bc18a633423b",
      "name": "2-Pinanol",
      "url": "https://haz-map.com/Agents/3161",
      "category": "agents"
    }
  ],
  "all_links": [
    {
      "text": "Search PubMed",
      "url": "https://www.ncbi.nlm.nih.gov/pubmed?term=2-Pinanol%20AND%20human%5Bmh%5D%20AND%20%28Occupational%20Diseases%20%5Bmh%5D%20OR%20Occupational%20Exposure%20%5Bmh%5D%29%20%20AND%20%28tox%5Bsb%5D%29&cmd=search"
    }
  ]
}