{
  "metadata": {
    "scraped_from": "https://haz-map.com/Agents/10577",
    "entity_name": "1,4,5,8-Tetrahydronaphthalene",
    "category": "agents",
    "uuid": "12879615-4bfc-42cc-a3fe-be0b1e5e149f",
    "scraped_at": "2025-07-23T20:49:36.851563"
  },
  "parsed_at": "2025-07-24T01:10:56.498195",
  "title": "1,4,5,8-Tetrahydronaphthalene",
  "sections": {
    "general": {
      "agent_name": {
        "original_name": "Agent Name",
        "value": "1,4,5,8-Tetrahydronaphthalene",
        "links": [],
        "cross_references": [
          {
            "type": "name_match",
            "text": "naphthalene",
            "confidence": 1.0,
            "uuid": "433cf489-5423-4297-a38e-6e755a9d458e",
            "name": "Naphthalene",
            "url": "https://haz-map.com/Agents/46",
            "category": "agents"
          },
          {
            "type": "name_match",
            "text": "ht",
            "confidence": 1.0,
            "uuid": "764df367-8d53-4a11-81a2-31ccfe122a8d",
            "name": "HT",
            "url": "https://haz-map.com/Agents/2168",
            "category": "agents"
          },
          {
            "type": "name_match",
            "text": "1,4,5,8-tetrahydronaphthalene",
            "confidence": 1.0,
            "uuid": "12879615-4bfc-42cc-a3fe-be0b1e5e149f",
            "name": "1,4,5,8-Tetrahydronaphthalene",
            "url": "https://haz-map.com/Agents/10577",
            "category": "agents"
          }
        ]
      },
      "cas_number": {
        "original_name": "CAS Number",
        "value": "493-04-9",
        "links": [],
        "cross_references": []
      },
      "formula": {
        "original_name": "Formula",
        "value": "C10-H12",
        "links": [],
        "cross_references": []
      },
      "major_category": {
        "original_name": "Major Category",
        "value": "Other Classes",
        "links": [],
        "cross_references": []
      },
      "synonyms": {
        "original_name": "Synonyms",
        "value": "Isotetralin; [Aldrich MSDS]",
        "links": [],
        "cross_references": []
      },
      "category": {
        "original_name": "Category",
        "value": "Aliphatics, Unsaturated",
        "links": [],
        "cross_references": []
      },
      "description": {
        "original_name": "Description",
        "value": "Melting point = 54-57 deg C; [Aldrich MSDS]",
        "links": [],
        "cross_references": []
      },
      "comments": {
        "original_name": "Comments",
        "value": "May cause irritation; [Aldrich MSDS] See \"1,2,3,4-Tetrahydronaphthalene.\"",
        "links": [],
        "cross_references": [
          {
            "type": "name_match",
            "text": "naphthalene",
            "confidence": 1.0,
            "uuid": "433cf489-5423-4297-a38e-6e755a9d458e",
            "name": "Naphthalene",
            "url": "https://haz-map.com/Agents/46",
            "category": "agents"
          },
          {
            "type": "name_match",
            "text": "1,2,3,4-tetrahydronaphthalene",
            "confidence": 1.0,
            "uuid": "82743438-9f9c-4f69-aa7d-4ef4285b61b5",
            "name": "1,2,3,4-Tetrahydronaphthalene",
            "url": "https://haz-map.com/Agents/1022",
            "category": "agents"
          },
          {
            "type": "name_match",
            "text": "ht",
            "confidence": 1.0,
            "uuid": "764df367-8d53-4a11-81a2-31ccfe122a8d",
            "name": "HT",
            "url": "https://haz-map.com/Agents/2168",
            "category": "agents"
          }
        ]
      },
      "biomedical_references": {
        "original_name": "Biomedical References",
        "value": "Search PubMed",
        "links": [
          {
            "text": "Search PubMed",
            "url": "https://www.ncbi.nlm.nih.gov/pubmed?term=1%2c4%2c5%2c8-Tetrahydronaphthalene%20AND%20human%5Bmh%5D%20AND%20%28Occupational%20Diseases%20%5Bmh%5D%20OR%20Occupational%20Exposure%20%5Bmh%5D%29%20%20AND%20%28tox%5Bsb%5D%29&cmd=search"
          }
        ],
        "cross_references": []
      }
    },
    "diseases_processes_and_activities_linked_to_this_agent": {
      "other_information": {
        "original_name": "Other Information",
        "value": "No other related information on this agent was found.",
        "links": [],
        "cross_references": []
      }
    }
  },
  "cross_references": [
    {
      "type": "name_match",
      "text": "naphthalene",
      "confidence": 1.0,
      "uuid": "433cf489-5423-4297-a38e-6e755a9d458e",
      "name": "Naphthalene",
      "url": "https://haz-map.com/Agents/46",
      "category": "agents"
    },
    {
      "type": "name_match",
      "text": "1,2,3,4-tetrahydronaphthalene",
      "confidence": 1.0,
      "uuid": "82743438-9f9c-4f69-aa7d-4ef4285b61b5",
      "name": "1,2,3,4-Tetrahydronaphthalene",
      "url": "https://haz-map.com/Agents/1022",
      "category": "agents"
    },
    {
      "type": "name_match",
      "text": "ht",
      "confidence": 1.0,
      "uuid": "764df367-8d53-4a11-81a2-31ccfe122a8d",
      "name": "HT",
      "url": "https://haz-map.com/Agents/2168",
      "category": "agents"
    },
    {
      "type": "name_match",
      "text": "1,4,5,8-tetrahydronaphthalene",
      "confidence": 1.0,
      "uuid": "12879615-4bfc-42cc-a3fe-be0b1e5e149f",
      "name": "1,4,5,8-Tetrahydronaphthalene",
      "url": "https://haz-map.com/Agents/10577",
      "category": "agents"
    }
  ],
  "all_links": [
    {
      "text": "Search PubMed",
      "url": "https://www.ncbi.nlm.nih.gov/pubmed?term=1%2c4%2c5%2c8-Tetrahydronaphthalene%20AND%20human%5Bmh%5D%20AND%20%28Occupational%20Diseases%20%5Bmh%5D%20OR%20Occupational%20Exposure%20%5Bmh%5D%29%20%20AND%20%28tox%5Bsb%5D%29&cmd=search"
    }
  ]
}