{
  "metadata": {
    "scraped_from": "https://haz-map.com/Agents/12136",
    "entity_name": "Benzenamine, N-phenyl-, reaction products with 2,4,4-trimethylpentene",
    "category": "agents",
    "uuid": "13115951-6e02-470d-b625-103b30cda066",
    "scraped_at": "2025-07-23T21:05:40.191163"
  },
  "parsed_at": "2025-07-24T00:56:35.461993",
  "title": "Benzenamine, N-phenyl-, reaction products with 2,4,4-trimethylpentene",
  "sections": {
    "general": {
      "agent_name": {
        "original_name": "Agent Name",
        "value": "Benzenamine, N-phenyl-, reaction products with 2,4,4-trimethylpentene",
        "links": [],
        "cross_references": [
          {
            "type": "name_match",
            "text": "pentene",
            "confidence": 1.0,
            "uuid": "8a79e71e-e90a-4993-a702-7b2bacae6310",
            "name": "Pentene",
            "url": "https://haz-map.com/Agents/6584",
            "category": "agents"
          },
          {
            "type": "name_match",
            "text": "benzenamine, n-phenyl-, reaction products with 2,4,4-trimethylpentene",
            "confidence": 1.0,
            "uuid": "13115951-6e02-470d-b625-103b30cda066",
            "name": "Benzenamine, N-phenyl-, reaction products with 2,4,4-trimethylpentene",
            "url": "https://haz-map.com/Agents/12136",
            "category": "agents"
          }
        ]
      },
      "cas_number": {
        "original_name": "CAS Number",
        "value": "68411-46-1",
        "links": [],
        "cross_references": []
      },
      "formula": {
        "original_name": "Formula",
        "value": "Unspecified",
        "links": [],
        "cross_references": []
      },
      "major_category": {
        "original_name": "Major Category",
        "value": "Other Classes",
        "links": [],
        "cross_references": []
      },
      "synonyms": {
        "original_name": "Synonyms",
        "value": "Diphenylamine, diisobutylene reaction product; N-Phenylbenzenamine, 2,4,4-trimethyl-1-pentene, and 2,4,4-trimethyl-2-pentene reaction product; N-Phenylbenzenamine, reaction product with diisobutylene; N-Phenylbenzeneamine, 2,4,4-trimethyl-1-pentene, and 2,4,4-trimethyl-2-pentene reaction product; [ChemIDplus] Vanlube 848; Naugalube 640; [EPA ChAMP: Submissions - Robust Summaries] AGERLITE STALITE S; [R.T. Vanderbilt MSDS]",
        "links": [],
        "cross_references": [
          {
            "type": "name_match",
            "text": "benzene",
            "confidence": 1.0,
            "uuid": "b05124de-5f34-4c14-8f04-ccb20c3780d9",
            "name": "Benzene",
            "url": "https://haz-map.com/Agents/5",
            "category": "agents"
          },
          {
            "type": "name_match",
            "text": "diphenylamine",
            "confidence": 1.0,
            "uuid": "3f92d416-f15a-456f-86a5-60c536b4229b",
            "name": "Diphenylamine",
            "url": "https://haz-map.com/Agents/471",
            "category": "agents"
          },
          {
            "type": "name_match",
            "text": "tali",
            "confidence": 1.0,
            "uuid": "8c3a0f99-2143-4122-b539-ec5cc49596b0",
            "name": "Tali",
            "url": "https://haz-map.com/Agents/1128",
            "category": "agents"
          },
          {
            "type": "name_match",
            "text": "1-pentene",
            "confidence": 1.0,
            "uuid": "fb5ff9a7-52d9-4c0c-a462-090f2c7e657f",
            "name": "1-Pentene",
            "url": "https://haz-map.com/Agents/2918",
            "category": "agents"
          },
          {
            "type": "name_match",
            "text": "diisobutylene",
            "confidence": 1.0,
            "uuid": "35268f21-00a2-4642-bda5-a7e3a9392af3",
            "name": "Diisobutylene",
            "url": "https://haz-map.com/Agents/2976",
            "category": "agents"
          },
          {
            "type": "name_match",
            "text": "2,4,4-trimethyl-2-pentene",
            "confidence": 1.0,
            "uuid": "5ccf3e12-4774-40ac-8ee0-41953d66fa96",
            "name": "2,4,4-Trimethyl-2-pentene",
            "url": "https://haz-map.com/Agents/2977",
            "category": "agents"
          },
          {
            "type": "name_match",
            "text": "isobutylene",
            "confidence": 1.0,
            "uuid": "6a2033c7-081c-4035-b361-f4b2f5e0d7fb",
            "name": "Isobutylene",
            "url": "https://haz-map.com/Agents/5678",
            "category": "agents"
          },
          {
            "type": "name_match",
            "text": "pentene",
            "confidence": 1.0,
            "uuid": "8a79e71e-e90a-4993-a702-7b2bacae6310",
            "name": "Pentene",
            "url": "https://haz-map.com/Agents/6584",
            "category": "agents"
          },
          {
            "type": "fuzzy_match",
            "text": "4-trimethyl-2-pentene",
            "matched_name": "3,4,4-Trimethyl-2-pentene",
            "confidence": 0.8533333333333333,
            "uuid": "184f22fe-ac6d-4a80-a411-83009f8f342c",
            "category": "agents",
            "url": "https://haz-map.com/Agents/3189"
          }
        ]
      },
      "category": {
        "original_name": "Category",
        "value": "Other Organic Compounds",
        "links": [],
        "cross_references": [
          {
            "type": "fuzzy_match",
            "text": "organic compounds",
            "matched_name": "Tin, organic compounds",
            "confidence": 0.8196969696969697,
            "uuid": "e027d413-8869-4308-9eb2-27d768b011ea",
            "category": "agents",
            "url": "https://haz-map.com/Agents/656"
          }
        ]
      },
      "description": {
        "original_name": "Description",
        "value": "Liquid; [EPA ChAMP: Submissions - Robust Summaries] Brown powder with a mild amine odor; [R.T. Vanderbilt MSDS]",
        "links": [],
        "cross_references": []
      },
      "sourcesuses": {
        "original_name": "Sources/Uses",
        "value": "Substituted Diphenylamines: Used as stabilizers, lubricants, and reactants with applications including greases, fuel additives, anti-degradants in rubber, foamed polymers, and high-temperature fluids; [EPA ChAMP: Hazard Characterization] Used as an antioxidant; [R.T. Vanderbilt MSDS]",
        "links": [],
        "cross_references": [
          {
            "type": "name_match",
            "text": "diphenylamine",
            "confidence": 1.0,
            "uuid": "3f92d416-f15a-456f-86a5-60c536b4229b",
            "name": "Diphenylamine",
            "url": "https://haz-map.com/Agents/471",
            "category": "agents"
          },
          {
            "type": "name_match",
            "text": "grease",
            "confidence": 1.0,
            "uuid": "bf476c67-9302-4215-a263-a67d337ab9ef",
            "name": "Grease",
            "url": "https://haz-map.com/Agents/21033",
            "category": "agents"
          }
        ]
      },
      "comments": {
        "original_name": "Comments",
        "value": "Contains 3-5% diphenylamine (CAS# 122-39-4) as an impurity; Not a skin sensitizer in guinea pig maximization test; [EPA ChAMP: Submissions - Robust Summaries] See \"Diphenylamine\" and \"Diisobutylene.\"",
        "links": [],
        "cross_references": [
          {
            "type": "name_match",
            "text": "diphenylamine",
            "confidence": 1.0,
            "uuid": "3f92d416-f15a-456f-86a5-60c536b4229b",
            "name": "Diphenylamine",
            "url": "https://haz-map.com/Agents/471",
            "category": "agents"
          },
          {
            "type": "name_match",
            "text": "diisobutylene",
            "confidence": 1.0,
            "uuid": "35268f21-00a2-4642-bda5-a7e3a9392af3",
            "name": "Diisobutylene",
            "url": "https://haz-map.com/Agents/2976",
            "category": "agents"
          },
          {
            "type": "name_match",
            "text": "isobutylene",
            "confidence": 1.0,
            "uuid": "6a2033c7-081c-4035-b361-f4b2f5e0d7fb",
            "name": "Isobutylene",
            "url": "https://haz-map.com/Agents/5678",
            "category": "agents"
          }
        ]
      },
      "biomedical_references": {
        "original_name": "Biomedical References",
        "value": "Search PubMed",
        "links": [
          {
            "text": "Search PubMed",
            "url": "https://www.ncbi.nlm.nih.gov/pubmed?term=Benzenamine%2c+N-phenyl-%2c+reaction+products+with+2%2c4%2c4-trimethylpentene%20AND%20human%5Bmh%5D%20AND%20%28Occupational%20Diseases%20%5Bmh%5D%20OR%20Occupational%20Exposure%20%5Bmh%5D%29%20%20AND%20%28tox%5Bsb%5D%29&cmd=search"
          }
        ],
        "cross_references": []
      }
    },
    "exposure_assessment": {
      "vapor_pressure": {
        "original_name": "Vapor Pressure",
        "value": "2E-05 mm Hg",
        "links": [],
        "cross_references": []
      }
    },
    "diseases_processes_and_activities_linked_to_this_agent": {
      "other_information": {
        "original_name": "Other Information",
        "value": "No other related information on this agent was found.",
        "links": [],
        "cross_references": []
      }
    }
  },
  "cross_references": [
    {
      "type": "name_match",
      "text": "benzene",
      "confidence": 1.0,
      "uuid": "b05124de-5f34-4c14-8f04-ccb20c3780d9",
      "name": "Benzene",
      "url": "https://haz-map.com/Agents/5",
      "category": "agents"
    },
    {
      "type": "name_match",
      "text": "diphenylamine",
      "confidence": 1.0,
      "uuid": "3f92d416-f15a-456f-86a5-60c536b4229b",
      "name": "Diphenylamine",
      "url": "https://haz-map.com/Agents/471",
      "category": "agents"
    },
    {
      "type": "name_match",
      "text": "tali",
      "confidence": 1.0,
      "uuid": "8c3a0f99-2143-4122-b539-ec5cc49596b0",
      "name": "Tali",
      "url": "https://haz-map.com/Agents/1128",
      "category": "agents"
    },
    {
      "type": "name_match",
      "text": "1-pentene",
      "confidence": 1.0,
      "uuid": "fb5ff9a7-52d9-4c0c-a462-090f2c7e657f",
      "name": "1-Pentene",
      "url": "https://haz-map.com/Agents/2918",
      "category": "agents"
    },
    {
      "type": "name_match",
      "text": "diisobutylene",
      "confidence": 1.0,
      "uuid": "35268f21-00a2-4642-bda5-a7e3a9392af3",
      "name": "Diisobutylene",
      "url": "https://haz-map.com/Agents/2976",
      "category": "agents"
    },
    {
      "type": "name_match",
      "text": "2,4,4-trimethyl-2-pentene",
      "confidence": 1.0,
      "uuid": "5ccf3e12-4774-40ac-8ee0-41953d66fa96",
      "name": "2,4,4-Trimethyl-2-pentene",
      "url": "https://haz-map.com/Agents/2977",
      "category": "agents"
    },
    {
      "type": "name_match",
      "text": "isobutylene",
      "confidence": 1.0,
      "uuid": "6a2033c7-081c-4035-b361-f4b2f5e0d7fb",
      "name": "Isobutylene",
      "url": "https://haz-map.com/Agents/5678",
      "category": "agents"
    },
    {
      "type": "name_match",
      "text": "pentene",
      "confidence": 1.0,
      "uuid": "8a79e71e-e90a-4993-a702-7b2bacae6310",
      "name": "Pentene",
      "url": "https://haz-map.com/Agents/6584",
      "category": "agents"
    },
    {
      "type": "name_match",
      "text": "benzenamine, n-phenyl-, reaction products with 2,4,4-trimethylpentene",
      "confidence": 1.0,
      "uuid": "13115951-6e02-470d-b625-103b30cda066",
      "name": "Benzenamine, N-phenyl-, reaction products with 2,4,4-trimethylpentene",
      "url": "https://haz-map.com/Agents/12136",
      "category": "agents"
    },
    {
      "type": "name_match",
      "text": "grease",
      "confidence": 1.0,
      "uuid": "bf476c67-9302-4215-a263-a67d337ab9ef",
      "name": "Grease",
      "url": "https://haz-map.com/Agents/21033",
      "category": "agents"
    },
    {
      "type": "fuzzy_match",
      "text": "4-trimethyl-2-pentene",
      "matched_name": "3,4,4-Trimethyl-2-pentene",
      "confidence": 0.8533333333333333,
      "uuid": "184f22fe-ac6d-4a80-a411-83009f8f342c",
      "category": "agents",
      "url": "https://haz-map.com/Agents/3189"
    },
    {
      "type": "fuzzy_match",
      "text": "organic compounds",
      "matched_name": "Tin, organic compounds",
      "confidence": 0.8196969696969697,
      "uuid": "e027d413-8869-4308-9eb2-27d768b011ea",
      "category": "agents",
      "url": "https://haz-map.com/Agents/656"
    }
  ],
  "all_links": [
    {
      "text": "Search PubMed",
      "url": "https://www.ncbi.nlm.nih.gov/pubmed?term=Benzenamine%2c+N-phenyl-%2c+reaction+products+with+2%2c4%2c4-trimethylpentene%20AND%20human%5Bmh%5D%20AND%20%28Occupational%20Diseases%20%5Bmh%5D%20OR%20Occupational%20Exposure%20%5Bmh%5D%29%20%20AND%20%28tox%5Bsb%5D%29&cmd=search"
    }
  ]
}