{
  "metadata": {
    "scraped_from": "https://haz-map.com/Agents/14191",
    "entity_name": "Ethyl cinnamate",
    "category": "agents",
    "uuid": "1316fadc-a29d-4b7b-9d19-9738762aa1d9",
    "scraped_at": "2025-07-23T21:21:11.814736"
  },
  "parsed_at": "2025-07-24T00:54:54.084449",
  "title": "Ethyl cinnamate",
  "sections": {
    "general": {
      "agent_name": {
        "original_name": "Agent Name",
        "value": "Ethyl cinnamate",
        "links": [],
        "cross_references": [
          {
            "type": "name_match",
            "text": "ethyl cinnamate",
            "confidence": 1.0,
            "uuid": "1316fadc-a29d-4b7b-9d19-9738762aa1d9",
            "name": "Ethyl cinnamate",
            "url": "https://haz-map.com/Agents/14191",
            "category": "agents"
          }
        ]
      },
      "cas_number": {
        "original_name": "CAS Number",
        "value": "103-36-6",
        "links": [],
        "cross_references": []
      },
      "formula": {
        "original_name": "Formula",
        "value": "C11-H12-O2",
        "links": [],
        "cross_references": []
      },
      "major_category": {
        "original_name": "Major Category",
        "value": "Other Classes",
        "links": [],
        "cross_references": []
      },
      "synonyms": {
        "original_name": "Synonyms",
        "value": "3-Phenyl-2-propenoic acid, ethyl ester; 2-Propenoic acid, 3-phenyl-, ethyl ester; Cinnamic acid ethyl ester; Ethyl 3-phenyl-2-propenoate; Ethyl 3-phenylacrylate; Ethyl 3-phenylpropenoate; Ethyl benzylideneacetate; Ethyl beta-phenylacrylate; Ethyl cinnamate (natural); Ethylcinnamate; Ethylcinnamoate; Cinnamic acid, ethyl ester; [ChemIDplus] Ethyl phenylacrylate; [JECFA]",
        "links": [],
        "cross_references": [
          {
            "type": "name_match",
            "text": "cinnamic acid",
            "confidence": 1.0,
            "uuid": "36c7cc13-9a22-4833-a693-400904298b8e",
            "name": "Cinnamic acid",
            "url": "https://haz-map.com/Agents/13034",
            "category": "agents"
          },
          {
            "type": "name_match",
            "text": "ethyl cinnamate",
            "confidence": 1.0,
            "uuid": "1316fadc-a29d-4b7b-9d19-9738762aa1d9",
            "name": "Ethyl cinnamate",
            "url": "https://haz-map.com/Agents/14191",
            "category": "agents"
          }
        ]
      },
      "category": {
        "original_name": "Category",
        "value": "Esters, Other",
        "links": [],
        "cross_references": []
      },
      "description": {
        "original_name": "Description",
        "value": "Nearly colorless oily liquid with a fruity, balsamic odor like cinnamon; mp = 6-10 deg C; [Merck Index] Colorless liquid; [Alfa Aesar MSDS]",
        "links": [],
        "cross_references": [
          {
            "type": "name_match",
            "text": "cinnamon",
            "confidence": 1.0,
            "uuid": "98b53a47-9754-495d-8d14-483673064927",
            "name": "Cinnamon",
            "url": "https://haz-map.com/Agents/970",
            "category": "agents"
          }
        ]
      },
      "sourcesuses": {
        "original_name": "Sources/Uses",
        "value": "Used as a fragrance and flavoring agent; [Merck Index] \"A pine weevil antifeedant.\" [ChemIDplus]",
        "links": [],
        "cross_references": []
      },
      "comments": {
        "original_name": "Comments",
        "value": "Causes somnolence and changes in motor activity in acute inhalation studies of mice; Causes blood changes and effects on enzymes in 17-week intermittent oral studies of rats; [RTECS] Safe when used as a flavoring agent in food; [JECFA] May cause irritation; [Alfa Aesar MSDS]",
        "links": [],
        "cross_references": [
          {
            "type": "name_match",
            "text": "enzymes",
            "confidence": 1.0,
            "uuid": "fe84a5f3-127f-4a3f-bd93-9a905dddee93",
            "name": "ENZYMES",
            "url": "https://haz-map.com/Agents/741",
            "category": "agents"
          }
        ]
      },
      "biomedical_references": {
        "original_name": "Biomedical References",
        "value": "Search PubMed",
        "links": [
          {
            "text": "Search PubMed",
            "url": "https://www.ncbi.nlm.nih.gov/pubmed?term=Ethyl+cinnamate%20AND%20human%5Bmh%5D%20AND%20%28Occupational%20Diseases%20%5Bmh%5D%20OR%20Occupational%20Exposure%20%5Bmh%5D%29%20%20AND%20%28tox%5Bsb%5D%29&cmd=search"
          }
        ],
        "cross_references": []
      }
    },
    "exposure_assessment": {
      "vapor_pressure": {
        "original_name": "Vapor Pressure",
        "value": "0.00327 mm Hg",
        "links": [],
        "cross_references": []
      },
      "explanatory_notes": {
        "original_name": "Explanatory Notes",
        "value": "VP from ChemIDplus;",
        "links": [],
        "cross_references": []
      }
    },
    "diseases_processes_and_activities_linked_to_this_agent": {
      "other_information": {
        "original_name": "Other Information",
        "value": "No other related information on this agent was found.",
        "links": [],
        "cross_references": []
      }
    }
  },
  "cross_references": [
    {
      "type": "name_match",
      "text": "enzymes",
      "confidence": 1.0,
      "uuid": "fe84a5f3-127f-4a3f-bd93-9a905dddee93",
      "name": "ENZYMES",
      "url": "https://haz-map.com/Agents/741",
      "category": "agents"
    },
    {
      "type": "name_match",
      "text": "cinnamon",
      "confidence": 1.0,
      "uuid": "98b53a47-9754-495d-8d14-483673064927",
      "name": "Cinnamon",
      "url": "https://haz-map.com/Agents/970",
      "category": "agents"
    },
    {
      "type": "name_match",
      "text": "cinnamic acid",
      "confidence": 1.0,
      "uuid": "36c7cc13-9a22-4833-a693-400904298b8e",
      "name": "Cinnamic acid",
      "url": "https://haz-map.com/Agents/13034",
      "category": "agents"
    },
    {
      "type": "name_match",
      "text": "ethyl cinnamate",
      "confidence": 1.0,
      "uuid": "1316fadc-a29d-4b7b-9d19-9738762aa1d9",
      "name": "Ethyl cinnamate",
      "url": "https://haz-map.com/Agents/14191",
      "category": "agents"
    }
  ],
  "all_links": [
    {
      "text": "Search PubMed",
      "url": "https://www.ncbi.nlm.nih.gov/pubmed?term=Ethyl+cinnamate%20AND%20human%5Bmh%5D%20AND%20%28Occupational%20Diseases%20%5Bmh%5D%20OR%20Occupational%20Exposure%20%5Bmh%5D%29%20%20AND%20%28tox%5Bsb%5D%29&cmd=search"
    }
  ]
}