{
  "metadata": {
    "scraped_from": "https://haz-map.com/Agents/10522",
    "entity_name": "1-Propene, 1,1,2-trichloro-",
    "category": "agents",
    "uuid": "13c3f168-b2dd-49c4-b54e-9282b8e54e8c",
    "scraped_at": "2025-07-23T20:48:39.611719"
  },
  "parsed_at": "2025-07-24T01:07:07.332701",
  "title": "1-Propene, 1,1,2-trichloro-",
  "sections": {
    "general": {
      "agent_name": {
        "original_name": "Agent Name",
        "value": "1-Propene, 1,1,2-trichloro-",
        "links": [],
        "cross_references": [
          {
            "type": "name_match",
            "text": "1-propene, 1,1,2-trichloro-",
            "confidence": 1.0,
            "uuid": "13c3f168-b2dd-49c4-b54e-9282b8e54e8c",
            "name": "1-Propene, 1,1,2-trichloro-",
            "url": "https://haz-map.com/Agents/10522",
            "category": "agents"
          }
        ]
      },
      "cas_number": {
        "original_name": "CAS Number",
        "value": "21400-25-9",
        "links": [],
        "cross_references": []
      },
      "formula": {
        "original_name": "Formula",
        "value": "C3-H3-Cl3",
        "links": [],
        "cross_references": []
      },
      "major_category": {
        "original_name": "Major Category",
        "value": "Other Classes",
        "links": [],
        "cross_references": []
      },
      "synonyms": {
        "original_name": "Synonyms",
        "value": "1,1,2-Trichloropropene; 1,1,2-Trichloropropene-1; [ChemIDplus]",
        "links": [],
        "cross_references": []
      },
      "category": {
        "original_name": "Category",
        "value": "Halogenated Aliphatics, Unsaturated",
        "links": [],
        "cross_references": []
      },
      "comments": {
        "original_name": "Comments",
        "value": "Causes ptosis, ataxia, and pulmonary emboli in inhalation lethal-concentration studies of rats; [RTECS] See \"1,2,3-Trichloropropene.\"",
        "links": [],
        "cross_references": [
          {
            "type": "name_match",
            "text": "1,2,3-trichloropropene",
            "confidence": 1.0,
            "uuid": "57ea50e1-eecc-41b9-850b-059914a4262c",
            "name": "1,2,3-Trichloropropene",
            "url": "https://haz-map.com/Agents/2727",
            "category": "agents"
          }
        ]
      },
      "biomedical_references": {
        "original_name": "Biomedical References",
        "value": "Search PubMed",
        "links": [
          {
            "text": "Search PubMed",
            "url": "https://www.ncbi.nlm.nih.gov/pubmed?term=1-Propene%2c+1%2c1%2c2-trichloro-%20AND%20human%5Bmh%5D%20AND%20%28Occupational%20Diseases%20%5Bmh%5D%20OR%20Occupational%20Exposure%20%5Bmh%5D%29%20%20AND%20%28tox%5Bsb%5D%29&cmd=search"
          }
        ],
        "cross_references": []
      }
    },
    "exposure_assessment": {
      "vapor_pressure": {
        "original_name": "Vapor Pressure",
        "value": "39.1 mm Hg",
        "links": [],
        "cross_references": []
      },
      "lethal_concentration": {
        "original_name": "Lethal Concentration",
        "value": "LCLo (rat) = 3,500 ppm/6hr",
        "links": [],
        "cross_references": []
      },
      "explanatory_notes": {
        "original_name": "Explanatory Notes",
        "value": "VP from ChemIDplus;",
        "links": [],
        "cross_references": []
      }
    },
    "adverse_effects": {
      "neurotoxin": {
        "original_name": "Neurotoxin",
        "value": "Acute solvent syndrome",
        "links": [],
        "cross_references": []
      }
    },
    "diseases_processes_and_activities_linked_to_this_agent": {
      "diseases": {
        "original_name": "Diseases",
        "value": "Occupational diseases associated with exposure to this agent: Solvents, acute toxic effect",
        "links": [
          {
            "text": "Solvents, acute toxic effect",
            "url": "https://haz-map.com/Diseases/326"
          }
        ],
        "cross_references": [
          {
            "type": "url_match",
            "text": "Solvents, acute toxic effect",
            "url": "https://haz-map.com/Diseases/326",
            "confidence": 1.0,
            "uuid": "581e90e3-9d0c-45f0-aa6c-3468c28da129",
            "name": "Solvents, acute toxic effect",
            "category": "diseases"
          }
        ]
      }
    }
  },
  "cross_references": [
    {
      "type": "url_match",
      "text": "Solvents, acute toxic effect",
      "url": "https://haz-map.com/Diseases/326",
      "confidence": 1.0,
      "uuid": "581e90e3-9d0c-45f0-aa6c-3468c28da129",
      "name": "Solvents, acute toxic effect",
      "category": "diseases"
    },
    {
      "type": "name_match",
      "text": "1,2,3-trichloropropene",
      "confidence": 1.0,
      "uuid": "57ea50e1-eecc-41b9-850b-059914a4262c",
      "name": "1,2,3-Trichloropropene",
      "url": "https://haz-map.com/Agents/2727",
      "category": "agents"
    },
    {
      "type": "name_match",
      "text": "1-propene, 1,1,2-trichloro-",
      "confidence": 1.0,
      "uuid": "13c3f168-b2dd-49c4-b54e-9282b8e54e8c",
      "name": "1-Propene, 1,1,2-trichloro-",
      "url": "https://haz-map.com/Agents/10522",
      "category": "agents"
    }
  ],
  "all_links": [
    {
      "text": "Search PubMed",
      "url": "https://www.ncbi.nlm.nih.gov/pubmed?term=1-Propene%2c+1%2c1%2c2-trichloro-%20AND%20human%5Bmh%5D%20AND%20%28Occupational%20Diseases%20%5Bmh%5D%20OR%20Occupational%20Exposure%20%5Bmh%5D%29%20%20AND%20%28tox%5Bsb%5D%29&cmd=search"
    },
    {
      "text": "Solvents, acute toxic effect",
      "url": "https://haz-map.com/Diseases/326"
    }
  ]
}