{
  "metadata": {
    "scraped_from": "https://haz-map.com/Agents/2025",
    "entity_name": "Citric acid",
    "category": "agents",
    "uuid": "13f2d590-365a-4d84-9496-41fb4b91c714",
    "scraped_at": "2025-07-23T19:08:44.436077"
  },
  "parsed_at": "2025-07-24T00:53:42.330922",
  "title": "Citric acid",
  "sections": {
    "general": {
      "agent_name": {
        "original_name": "Agent Name",
        "value": "Citric acid",
        "links": [],
        "cross_references": [
          {
            "type": "name_match",
            "text": "citric acid",
            "confidence": 1.0,
            "uuid": "13f2d590-365a-4d84-9496-41fb4b91c714",
            "name": "Citric acid",
            "url": "https://haz-map.com/Agents/2025",
            "category": "agents"
          }
        ]
      },
      "cas_number": {
        "original_name": "CAS Number",
        "value": "77-92-9",
        "links": [],
        "cross_references": []
      },
      "formula": {
        "original_name": "Formula",
        "value": "C6-H8-O7",
        "links": [],
        "cross_references": []
      },
      "major_category": {
        "original_name": "Major Category",
        "value": "Other Classes",
        "links": [],
        "cross_references": []
      },
      "synonyms": {
        "original_name": "Synonyms",
        "value": "1,2,3-Propanetricarboxylic acid, 2-hydroxy-; 2-Hydroxy-1,2,3-propanetricarboxylic acid; 2-Hydroxypropanetricarboxylic acid; 2-Hydroxytricarballylic acid; 3-Carboxy-3-hydroxypentane-1,5-dioic acid; Aciletten; Anhydrous citric acid; Chemfill; Citretten; Citric acid; Citric acid, anhydrous; Citro; F 0001 (polycarboxylic acid); Hydrocerol A; Kyselina 2-hydroxy-1,2,3-propantrikarbonova [Czech]; Kyselina citronova [Czech]; [ChemIDplus]",
        "links": [],
        "cross_references": [
          {
            "type": "name_match",
            "text": "propane",
            "confidence": 1.0,
            "uuid": "563a611b-46ea-4bdc-b77b-17d8f7646283",
            "name": "Propane",
            "url": "https://haz-map.com/Agents/607",
            "category": "agents"
          },
          {
            "type": "name_match",
            "text": "citric acid",
            "confidence": 1.0,
            "uuid": "13f2d590-365a-4d84-9496-41fb4b91c714",
            "name": "Citric acid",
            "url": "https://haz-map.com/Agents/2025",
            "category": "agents"
          },
          {
            "type": "name_match",
            "text": "tricarballylic acid",
            "confidence": 1.0,
            "uuid": "bb11ca90-15ac-4bda-bd94-037dea36c56c",
            "name": "Tricarballylic acid",
            "url": "https://haz-map.com/Agents/19892",
            "category": "agents"
          }
        ]
      },
      "category": {
        "original_name": "Category",
        "value": "Organic Acids",
        "links": [],
        "cross_references": []
      },
      "description": {
        "original_name": "Description",
        "value": "Colorless and odorless crystals , it has an acid taste; [CAMEO] Deliquescent; [CHEMINFO]",
        "links": [],
        "cross_references": []
      },
      "sourcesuses": {
        "original_name": "Sources/Uses",
        "value": "\"A Compound from citrus fruits that is an intermediate in the tricarboxylic acid (Krebs) cycle. It is used as an acidifying agent in foods, beverages, and pharmaceuticals. Citrate chelates calcium ions and prevents blood clotting. It is also used as an anticoagulant for stored whole blood and red cells and also for blood specimens. (Dorland, 28th ed)\" [ChemIDplus]",
        "links": [],
        "cross_references": [
          {
            "type": "name_match",
            "text": "pharmaceuticals",
            "confidence": 1.0,
            "uuid": "713c3c30-b67e-4a2f-a90f-b32f8a306332",
            "name": "PHARMACEUTICALS",
            "url": "https://haz-map.com/Agents/1000",
            "category": "agents"
          },
          {
            "type": "name_match",
            "text": "calcium",
            "confidence": 1.0,
            "uuid": "1e5baf77-7a7a-476b-84c6-5b1ea504c5fc",
            "name": "Calcium",
            "url": "https://haz-map.com/Agents/1994",
            "category": "agents"
          }
        ]
      },
      "comments": {
        "original_name": "Comments",
        "value": "An irritant to the throat and eyes; [CAMEO] Concentrated solutions can cause severe eye damage and blindness; Animals fed 1.2% citric acid for 90 weeks showed no adverse effects except erosion of tooth enamel. [CHEMINFO]",
        "links": [],
        "cross_references": [
          {
            "type": "name_match",
            "text": "citric acid",
            "confidence": 1.0,
            "uuid": "13f2d590-365a-4d84-9496-41fb4b91c714",
            "name": "Citric acid",
            "url": "https://haz-map.com/Agents/2025",
            "category": "agents"
          }
        ]
      },
      "reference_link_1": {
        "original_name": "Reference Link #1",
        "value": "EPA Pesticide Chemical Search",
        "links": [
          {
            "text": "EPA Pesticide Chemical Search",
            "url": "https://iaspub.epa.gov/apex/pesticides/f?p=CHEMICALSEARCH:1:"
          }
        ],
        "cross_references": [
          {
            "type": "name_match",
            "text": "mica",
            "confidence": 1.0,
            "uuid": "433f26f1-c399-4596-b179-ce3843cfd465",
            "name": "Mica",
            "url": "https://haz-map.com/Agents/621",
            "category": "agents"
          }
        ]
      },
      "biomedical_references": {
        "original_name": "Biomedical References",
        "value": "Search PubMed",
        "links": [
          {
            "text": "Search PubMed",
            "url": "https://www.ncbi.nlm.nih.gov/pubmed?term=Citric+acid%20AND%20human%5Bmh%5D%20AND%20%28Occupational%20Diseases%20%5Bmh%5D%20OR%20Occupational%20Exposure%20%5Bmh%5D%29%20%20AND%20%28tox%5Bsb%5D%29&cmd=search"
          }
        ],
        "cross_references": []
      }
    },
    "exposure_assessment": {
      "mak": {
        "original_name": "MAK",
        "value": "2 mg/m3, inhalable fraction",
        "links": [],
        "cross_references": []
      },
      "vapor_pressure": {
        "original_name": "Vapor Pressure",
        "value": "3.7E-09 mm Hg",
        "links": [],
        "cross_references": []
      },
      "explanatory_notes": {
        "original_name": "Explanatory Notes",
        "value": "mp = 307.0 deg F (anhydrous); [CAMEO]",
        "links": [],
        "cross_references": []
      }
    },
    "adverse_effects": {
      "dermatotoxin": {
        "original_name": "Dermatotoxin",
        "value": "Skin burns",
        "links": [],
        "cross_references": [
          {
            "type": "name_match",
            "text": "burn",
            "confidence": 1.0,
            "uuid": "63665de5-6376-4918-8dbf-4c10c4d63837",
            "name": "burn",
            "url": "https://haz-map.com/Findings/204",
            "category": "findings"
          }
        ]
      }
    },
    "diseases_processes_and_activities_linked_to_this_agent": {
      "other_information": {
        "original_name": "Other Information",
        "value": "No other related information on this agent was found.",
        "links": [],
        "cross_references": []
      }
    }
  },
  "cross_references": [
    {
      "type": "name_match",
      "text": "burn",
      "confidence": 1.0,
      "uuid": "63665de5-6376-4918-8dbf-4c10c4d63837",
      "name": "burn",
      "url": "https://haz-map.com/Findings/204",
      "category": "findings"
    },
    {
      "type": "name_match",
      "text": "propane",
      "confidence": 1.0,
      "uuid": "563a611b-46ea-4bdc-b77b-17d8f7646283",
      "name": "Propane",
      "url": "https://haz-map.com/Agents/607",
      "category": "agents"
    },
    {
      "type": "name_match",
      "text": "mica",
      "confidence": 1.0,
      "uuid": "433f26f1-c399-4596-b179-ce3843cfd465",
      "name": "Mica",
      "url": "https://haz-map.com/Agents/621",
      "category": "agents"
    },
    {
      "type": "name_match",
      "text": "pharmaceuticals",
      "confidence": 1.0,
      "uuid": "713c3c30-b67e-4a2f-a90f-b32f8a306332",
      "name": "PHARMACEUTICALS",
      "url": "https://haz-map.com/Agents/1000",
      "category": "agents"
    },
    {
      "type": "name_match",
      "text": "calcium",
      "confidence": 1.0,
      "uuid": "1e5baf77-7a7a-476b-84c6-5b1ea504c5fc",
      "name": "Calcium",
      "url": "https://haz-map.com/Agents/1994",
      "category": "agents"
    },
    {
      "type": "name_match",
      "text": "citric acid",
      "confidence": 1.0,
      "uuid": "13f2d590-365a-4d84-9496-41fb4b91c714",
      "name": "Citric acid",
      "url": "https://haz-map.com/Agents/2025",
      "category": "agents"
    },
    {
      "type": "name_match",
      "text": "tricarballylic acid",
      "confidence": 1.0,
      "uuid": "bb11ca90-15ac-4bda-bd94-037dea36c56c",
      "name": "Tricarballylic acid",
      "url": "https://haz-map.com/Agents/19892",
      "category": "agents"
    }
  ],
  "all_links": [
    {
      "text": "EPA Pesticide Chemical Search",
      "url": "https://iaspub.epa.gov/apex/pesticides/f?p=CHEMICALSEARCH:1:"
    },
    {
      "text": "Search PubMed",
      "url": "https://www.ncbi.nlm.nih.gov/pubmed?term=Citric+acid%20AND%20human%5Bmh%5D%20AND%20%28Occupational%20Diseases%20%5Bmh%5D%20OR%20Occupational%20Exposure%20%5Bmh%5D%29%20%20AND%20%28tox%5Bsb%5D%29&cmd=search"
    }
  ]
}