{
  "metadata": {
    "scraped_from": "https://haz-map.com/Agents/21364",
    "entity_name": "N-Phenyl diethanolamine",
    "category": "agents",
    "uuid": "14e02192-ff4c-4197-87e6-22169576f485",
    "scraped_at": "2025-07-23T22:42:37.855063"
  },
  "parsed_at": "2025-07-24T00:59:32.651732",
  "title": "N-Phenyl diethanolamine",
  "sections": {
    "general": {
      "agent_name": {
        "original_name": "Agent Name",
        "value": "N-Phenyl diethanolamine",
        "links": [],
        "cross_references": [
          {
            "type": "name_match",
            "text": "ethanolamine",
            "confidence": 1.0,
            "uuid": "16354994-9346-496d-9e19-23d8a4473ab4",
            "name": "Ethanolamine",
            "url": "https://haz-map.com/Agents/288",
            "category": "agents"
          },
          {
            "type": "name_match",
            "text": "diethanolamine",
            "confidence": 1.0,
            "uuid": "588b3cdf-df43-41d8-8417-60aaa610fb49",
            "name": "Diethanolamine",
            "url": "https://haz-map.com/Agents/454",
            "category": "agents"
          },
          {
            "type": "name_match",
            "text": "n-phenyl diethanolamine",
            "confidence": 1.0,
            "uuid": "14e02192-ff4c-4197-87e6-22169576f485",
            "name": "N-Phenyl diethanolamine",
            "url": "https://haz-map.com/Agents/21364",
            "category": "agents"
          }
        ]
      },
      "cas_number": {
        "original_name": "CAS Number",
        "value": "120-07-0",
        "links": [],
        "cross_references": []
      },
      "formula": {
        "original_name": "Formula",
        "value": "C10-H15-N-O2",
        "links": [],
        "cross_references": []
      },
      "major_category": {
        "original_name": "Major Category",
        "value": "Nitrogen Compounds",
        "links": [],
        "cross_references": [
          {
            "type": "name_match",
            "text": "nitrogen",
            "confidence": 1.0,
            "uuid": "db5e90a9-06d2-45b9-8b81-f345a89b0bc0",
            "name": "Nitrogen",
            "url": "https://haz-map.com/Agents/1072",
            "category": "agents"
          }
        ]
      },
      "synonyms": {
        "original_name": "Synonyms",
        "value": "(Bis(2-hydroxyethyl)amino)benzene; 2,2'-(Phenylamino)diethanol; 2,2'-(Phenylimino)diethanol; Diethanolaminobenzene; Diethanolaniline; Diethanolphenylamine; Dihydroxyethylaniline; Emery 5703; N,N-Bis(2-hydroxyethyl)aniline; N,N-Bis(beta-hydroxyethyl)aniline; N,N-Di(2-hydroxyethyl)aniline; N,N-Di(beta-hydroxyethyl)aniline; N,N-Diethanolaniline; N,N-Dioxyethylaniline; N-Phenyl-N,N-diethanolamine; N-Phenyldiethanolamine; Phenyl diethanolamine; Phenylbis(2-hydroxyethyl)amine; Phenyldiethanolamine; 2,2'-Phenyliminodiethanol; Ethanol, 2,2'-(phenylimino)bis-; Ethanol, 2,2'-(phenylimino)di-; [ChemIDplus]",
        "links": [],
        "cross_references": [
          {
            "type": "name_match",
            "text": "benzene",
            "confidence": 1.0,
            "uuid": "b05124de-5f34-4c14-8f04-ccb20c3780d9",
            "name": "Benzene",
            "url": "https://haz-map.com/Agents/5",
            "category": "agents"
          },
          {
            "type": "name_match",
            "text": "ethanolamine",
            "confidence": 1.0,
            "uuid": "16354994-9346-496d-9e19-23d8a4473ab4",
            "name": "Ethanolamine",
            "url": "https://haz-map.com/Agents/288",
            "category": "agents"
          },
          {
            "type": "name_match",
            "text": "aniline",
            "confidence": 1.0,
            "uuid": "e4932692-8d9c-4a98-8c5c-81e55b12aedf",
            "name": "Aniline",
            "url": "https://haz-map.com/Agents/296",
            "category": "agents"
          },
          {
            "type": "name_match",
            "text": "diethanolamine",
            "confidence": 1.0,
            "uuid": "588b3cdf-df43-41d8-8417-60aaa610fb49",
            "name": "Diethanolamine",
            "url": "https://haz-map.com/Agents/454",
            "category": "agents"
          },
          {
            "type": "name_match",
            "text": "emery",
            "confidence": 1.0,
            "uuid": "9c489b3c-513f-41aa-b898-a2242b92d2b4",
            "name": "Emery",
            "url": "https://haz-map.com/Agents/478",
            "category": "agents"
          }
        ]
      },
      "category": {
        "original_name": "Category",
        "value": "Ethanolamines",
        "links": [],
        "cross_references": [
          {
            "type": "name_match",
            "text": "ethanolamine",
            "confidence": 1.0,
            "uuid": "16354994-9346-496d-9e19-23d8a4473ab4",
            "name": "Ethanolamine",
            "url": "https://haz-map.com/Agents/288",
            "category": "agents"
          }
        ]
      },
      "description": {
        "original_name": "Description",
        "value": "White or light brown solid with an amine-like odor; [Alfa Aesar MSDS]",
        "links": [],
        "cross_references": [
          {
            "type": "name_match",
            "text": "ht",
            "confidence": 1.0,
            "uuid": "764df367-8d53-4a11-81a2-31ccfe122a8d",
            "name": "HT",
            "url": "https://haz-map.com/Agents/2168",
            "category": "agents"
          }
        ]
      },
      "comments": {
        "original_name": "Comments",
        "value": "A mild skin and severe eye irritant; Causes convulsions, muscle weakness, cyanosis, and respiratory depression in oral lethal-dose studies of mice; Causes pigmented or nucleated red blood cells and changes in erythrocyte count in 30-day intermittent oral studies of rats; [RTECS] A severe eye irritant that may cause serious injury; Prolonged or repeated exposure may cause organ injury; [Alfa Aesar MSDS]",
        "links": [],
        "cross_references": [
          {
            "type": "name_match",
            "text": "convulsion",
            "confidence": 1.0,
            "uuid": "af2c36f8-707a-48e3-a62b-1aa07adc9b72",
            "name": "convulsion",
            "url": "https://haz-map.com/Findings/14",
            "category": "findings"
          },
          {
            "type": "name_match",
            "text": "weakness",
            "confidence": 1.0,
            "uuid": "44bfccd5-0f7a-48f7-b4eb-de9a6ef23064",
            "name": "weakness",
            "url": "https://haz-map.com/Findings/83",
            "category": "findings"
          }
        ]
      },
      "biomedical_references": {
        "original_name": "Biomedical References",
        "value": "Search PubMed",
        "links": [
          {
            "text": "Search PubMed",
            "url": "https://www.ncbi.nlm.nih.gov/pubmed?term=N-Phenyl+diethanolamine%20AND%20human%5Bmh%5D%20AND%20%28Occupational%20Diseases%20%5Bmh%5D%20OR%20Occupational%20Exposure%20%5Bmh%5D%29%20%20AND%20%28tox%5Bsb%5D%29&cmd=search"
          }
        ],
        "cross_references": []
      }
    },
    "exposure_assessment": {
      "vapor_pressure": {
        "original_name": "Vapor Pressure",
        "value": "2.02E-06 mm Hg",
        "links": [],
        "cross_references": []
      }
    },
    "adverse_effects": {
      "neurotoxin": {
        "original_name": "Neurotoxin",
        "value": "Other CNS neurotoxin",
        "links": [],
        "cross_references": []
      }
    },
    "diseases_processes_and_activities_linked_to_this_agent": {
      "other_information": {
        "original_name": "Other Information",
        "value": "No other related information on this agent was found.",
        "links": [],
        "cross_references": []
      }
    }
  },
  "cross_references": [
    {
      "type": "name_match",
      "text": "convulsion",
      "confidence": 1.0,
      "uuid": "af2c36f8-707a-48e3-a62b-1aa07adc9b72",
      "name": "convulsion",
      "url": "https://haz-map.com/Findings/14",
      "category": "findings"
    },
    {
      "type": "name_match",
      "text": "weakness",
      "confidence": 1.0,
      "uuid": "44bfccd5-0f7a-48f7-b4eb-de9a6ef23064",
      "name": "weakness",
      "url": "https://haz-map.com/Findings/83",
      "category": "findings"
    },
    {
      "type": "name_match",
      "text": "benzene",
      "confidence": 1.0,
      "uuid": "b05124de-5f34-4c14-8f04-ccb20c3780d9",
      "name": "Benzene",
      "url": "https://haz-map.com/Agents/5",
      "category": "agents"
    },
    {
      "type": "name_match",
      "text": "ethanolamine",
      "confidence": 1.0,
      "uuid": "16354994-9346-496d-9e19-23d8a4473ab4",
      "name": "Ethanolamine",
      "url": "https://haz-map.com/Agents/288",
      "category": "agents"
    },
    {
      "type": "name_match",
      "text": "aniline",
      "confidence": 1.0,
      "uuid": "e4932692-8d9c-4a98-8c5c-81e55b12aedf",
      "name": "Aniline",
      "url": "https://haz-map.com/Agents/296",
      "category": "agents"
    },
    {
      "type": "name_match",
      "text": "diethanolamine",
      "confidence": 1.0,
      "uuid": "588b3cdf-df43-41d8-8417-60aaa610fb49",
      "name": "Diethanolamine",
      "url": "https://haz-map.com/Agents/454",
      "category": "agents"
    },
    {
      "type": "name_match",
      "text": "emery",
      "confidence": 1.0,
      "uuid": "9c489b3c-513f-41aa-b898-a2242b92d2b4",
      "name": "Emery",
      "url": "https://haz-map.com/Agents/478",
      "category": "agents"
    },
    {
      "type": "name_match",
      "text": "nitrogen",
      "confidence": 1.0,
      "uuid": "db5e90a9-06d2-45b9-8b81-f345a89b0bc0",
      "name": "Nitrogen",
      "url": "https://haz-map.com/Agents/1072",
      "category": "agents"
    },
    {
      "type": "name_match",
      "text": "ht",
      "confidence": 1.0,
      "uuid": "764df367-8d53-4a11-81a2-31ccfe122a8d",
      "name": "HT",
      "url": "https://haz-map.com/Agents/2168",
      "category": "agents"
    },
    {
      "type": "name_match",
      "text": "n-phenyl diethanolamine",
      "confidence": 1.0,
      "uuid": "14e02192-ff4c-4197-87e6-22169576f485",
      "name": "N-Phenyl diethanolamine",
      "url": "https://haz-map.com/Agents/21364",
      "category": "agents"
    }
  ],
  "all_links": [
    {
      "text": "Search PubMed",
      "url": "https://www.ncbi.nlm.nih.gov/pubmed?term=N-Phenyl+diethanolamine%20AND%20human%5Bmh%5D%20AND%20%28Occupational%20Diseases%20%5Bmh%5D%20OR%20Occupational%20Exposure%20%5Bmh%5D%29%20%20AND%20%28tox%5Bsb%5D%29&cmd=search"
    }
  ]
}