{
  "metadata": {
    "scraped_from": "https://haz-map.com/Agents/3563",
    "entity_name": "Alloxan",
    "category": "agents",
    "uuid": "156a029c-7a96-43de-b9ca-8defca5c6401",
    "scraped_at": "2025-07-23T19:30:51.818469"
  },
  "parsed_at": "2025-07-24T00:55:49.268790",
  "title": "Alloxan",
  "sections": {
    "general": {
      "agent_name": {
        "original_name": "Agent Name",
        "value": "Alloxan",
        "links": [],
        "cross_references": [
          {
            "type": "name_match",
            "text": "alloxan",
            "confidence": 1.0,
            "uuid": "156a029c-7a96-43de-b9ca-8defca5c6401",
            "name": "Alloxan",
            "url": "https://haz-map.com/Agents/3563",
            "category": "agents"
          }
        ]
      },
      "cas_number": {
        "original_name": "CAS Number",
        "value": "50-71-5",
        "links": [],
        "cross_references": []
      },
      "formula": {
        "original_name": "Formula",
        "value": "C4-H2-N2-O4",
        "links": [],
        "cross_references": []
      },
      "major_category": {
        "original_name": "Major Category",
        "value": "Nitrogen Compounds",
        "links": [],
        "cross_references": [
          {
            "type": "name_match",
            "text": "nitrogen",
            "confidence": 1.0,
            "uuid": "db5e90a9-06d2-45b9-8b81-f345a89b0bc0",
            "name": "Nitrogen",
            "url": "https://haz-map.com/Agents/1072",
            "category": "agents"
          }
        ]
      },
      "synonyms": {
        "original_name": "Synonyms",
        "value": "2,4,5,6(1H,3H)-Pyrimidinetetrone; 2,4,5,6-Pyrimidintetron [Czech]; 2,4,5,6-Tetraoxohexahydropyrimidine; Alloxan 7169; Alloxane; Barbituric acid, 5-oxo-; Mesoxalylcarbamide; Mesoxalylurea; Urea, mesoxalyl-; [ChemIDplus]",
        "links": [],
        "cross_references": [
          {
            "type": "name_match",
            "text": "urea",
            "confidence": 1.0,
            "uuid": "a92a6129-bddd-4f79-9a78-136812ae610f",
            "name": "Urea",
            "url": "https://haz-map.com/Agents/2078",
            "category": "agents"
          },
          {
            "type": "name_match",
            "text": "alloxan",
            "confidence": 1.0,
            "uuid": "156a029c-7a96-43de-b9ca-8defca5c6401",
            "name": "Alloxan",
            "url": "https://haz-map.com/Agents/3563",
            "category": "agents"
          },
          {
            "type": "name_match",
            "text": "pyrimidine",
            "confidence": 1.0,
            "uuid": "8c810e75-fc30-4402-838c-43fcd0d46a84",
            "name": "Pyrimidine",
            "url": "https://haz-map.com/Agents/9521",
            "category": "agents"
          },
          {
            "type": "name_match",
            "text": "barbituric acid",
            "confidence": 1.0,
            "uuid": "53c8dd9b-909c-4dfe-a1d5-f44f9aada31e",
            "name": "Barbituric acid",
            "url": "https://haz-map.com/Agents/12026",
            "category": "agents"
          },
          {
            "type": "name_match",
            "text": "uric acid",
            "confidence": 1.0,
            "uuid": "bd67e9b1-899e-4f1c-95f0-d25380f3c966",
            "name": "Uric acid",
            "url": "https://haz-map.com/Agents/18587",
            "category": "agents"
          }
        ]
      },
      "category": {
        "original_name": "Category",
        "value": "Pyrimidines",
        "links": [],
        "cross_references": [
          {
            "type": "name_match",
            "text": "pyrimidine",
            "confidence": 1.0,
            "uuid": "8c810e75-fc30-4402-838c-43fcd0d46a84",
            "name": "Pyrimidine",
            "url": "https://haz-map.com/Agents/9521",
            "category": "agents"
          }
        ]
      },
      "description": {
        "original_name": "Description",
        "value": "Solid; [Merck Index] Tetrahydrate: White solid; [Reidel-de Haen MSDS]",
        "links": [],
        "cross_references": []
      },
      "sourcesuses": {
        "original_name": "Sources/Uses",
        "value": "Used in organic synthesis and to induce diabetes in experimental animals; [Merck Index] Used in cosmetics; [Hawley]",
        "links": [],
        "cross_references": []
      },
      "comments": {
        "original_name": "Comments",
        "value": "Intraperitoneal injection in pregnant rats at day of fertilization causes rare incidence of hyperglycemia and low frequency of malformations at 80 to 100 mg/kg, where doses of 110 to 150 mg/kg cause severe hyperglycemia and maternal or embryonic death; Selectively cytotoxic to pancreatic islet B-cells (human B-cells are resistant to concentrations highly toxic in mice and rats); Emergency treatment: \"Vacor\"; Vacor destroys pancreatic beta cells; In human poisoning cases after ingestion, Vacor caused orthostatic hypotension, autonomic dysfunction, encephalopathy, peripheral neuropathy, hyperglycemia, and ketoacidosis; Systemic poisoning not reported after inhalation or skin absorption; A dose as low as 19 grams of Vacor may be fatal; [HSDB] Causes diabetes mellitus, effects on fertility, and other changes to retina, blood, brain, and liver in toxic-dose studies of rats (intraperitoneal and intravenous routes); [RTECS] Tetrahydrate: An eye irritant; [Reidel-de Haen MSDS] See \"Pyriminil.\"",
        "links": [],
        "cross_references": [
          {
            "type": "name_match",
            "text": "neuropathy",
            "confidence": 1.0,
            "uuid": "8708368f-f68b-4a51-b1ea-01982070ed28",
            "name": "neuropathy",
            "url": "https://haz-map.com/Findings/85",
            "category": "findings"
          },
          {
            "type": "name_match",
            "text": "pyriminil",
            "confidence": 1.0,
            "uuid": "cb4d76c5-de24-4ce9-99cb-3696e3d2c75c",
            "name": "Pyriminil",
            "url": "https://haz-map.com/Agents/6918",
            "category": "agents"
          }
        ]
      },
      "biomedical_references": {
        "original_name": "Biomedical References",
        "value": "Search PubMed",
        "links": [
          {
            "text": "Search PubMed",
            "url": "https://www.ncbi.nlm.nih.gov/pubmed?term=Alloxan%20AND%20human%5Bmh%5D%20AND%20%28Occupational%20Diseases%20%5Bmh%5D%20OR%20Occupational%20Exposure%20%5Bmh%5D%29%20%20AND%20%28tox%5Bsb%5D%29&cmd=search"
          }
        ],
        "cross_references": []
      }
    },
    "exposure_assessment": {
      "vapor_pressure": {
        "original_name": "Vapor Pressure",
        "value": "2.14E-10 mm Hg",
        "links": [],
        "cross_references": []
      }
    },
    "diseases_processes_and_activities_linked_to_this_agent": {
      "other_information": {
        "original_name": "Other Information",
        "value": "No other related information on this agent was found.",
        "links": [],
        "cross_references": []
      }
    }
  },
  "cross_references": [
    {
      "type": "name_match",
      "text": "neuropathy",
      "confidence": 1.0,
      "uuid": "8708368f-f68b-4a51-b1ea-01982070ed28",
      "name": "neuropathy",
      "url": "https://haz-map.com/Findings/85",
      "category": "findings"
    },
    {
      "type": "name_match",
      "text": "nitrogen",
      "confidence": 1.0,
      "uuid": "db5e90a9-06d2-45b9-8b81-f345a89b0bc0",
      "name": "Nitrogen",
      "url": "https://haz-map.com/Agents/1072",
      "category": "agents"
    },
    {
      "type": "name_match",
      "text": "urea",
      "confidence": 1.0,
      "uuid": "a92a6129-bddd-4f79-9a78-136812ae610f",
      "name": "Urea",
      "url": "https://haz-map.com/Agents/2078",
      "category": "agents"
    },
    {
      "type": "name_match",
      "text": "alloxan",
      "confidence": 1.0,
      "uuid": "156a029c-7a96-43de-b9ca-8defca5c6401",
      "name": "Alloxan",
      "url": "https://haz-map.com/Agents/3563",
      "category": "agents"
    },
    {
      "type": "name_match",
      "text": "pyriminil",
      "confidence": 1.0,
      "uuid": "cb4d76c5-de24-4ce9-99cb-3696e3d2c75c",
      "name": "Pyriminil",
      "url": "https://haz-map.com/Agents/6918",
      "category": "agents"
    },
    {
      "type": "name_match",
      "text": "pyrimidine",
      "confidence": 1.0,
      "uuid": "8c810e75-fc30-4402-838c-43fcd0d46a84",
      "name": "Pyrimidine",
      "url": "https://haz-map.com/Agents/9521",
      "category": "agents"
    },
    {
      "type": "name_match",
      "text": "barbituric acid",
      "confidence": 1.0,
      "uuid": "53c8dd9b-909c-4dfe-a1d5-f44f9aada31e",
      "name": "Barbituric acid",
      "url": "https://haz-map.com/Agents/12026",
      "category": "agents"
    },
    {
      "type": "name_match",
      "text": "uric acid",
      "confidence": 1.0,
      "uuid": "bd67e9b1-899e-4f1c-95f0-d25380f3c966",
      "name": "Uric acid",
      "url": "https://haz-map.com/Agents/18587",
      "category": "agents"
    }
  ],
  "all_links": [
    {
      "text": "Search PubMed",
      "url": "https://www.ncbi.nlm.nih.gov/pubmed?term=Alloxan%20AND%20human%5Bmh%5D%20AND%20%28Occupational%20Diseases%20%5Bmh%5D%20OR%20Occupational%20Exposure%20%5Bmh%5D%29%20%20AND%20%28tox%5Bsb%5D%29&cmd=search"
    }
  ]
}