{
  "metadata": {
    "scraped_from": "https://haz-map.com/Agents/2929",
    "entity_name": "1-Undecene",
    "category": "agents",
    "uuid": "1584868d-3769-4f88-a02c-4a75387e095a",
    "scraped_at": "2025-07-23T19:21:11.194190"
  },
  "parsed_at": "2025-07-24T00:55:05.306621",
  "title": "1-Undecene",
  "sections": {
    "general": {
      "agent_name": {
        "original_name": "Agent Name",
        "value": "1-Undecene",
        "links": [],
        "cross_references": [
          {
            "type": "name_match",
            "text": "1-undecene",
            "confidence": 1.0,
            "uuid": "1584868d-3769-4f88-a02c-4a75387e095a",
            "name": "1-Undecene",
            "url": "https://haz-map.com/Agents/2929",
            "category": "agents"
          },
          {
            "type": "name_match",
            "text": "decene",
            "confidence": 1.0,
            "uuid": "31094271-051d-41ab-9d14-1e1d404f5a06",
            "name": "Decene",
            "url": "https://haz-map.com/Agents/4666",
            "category": "agents"
          },
          {
            "type": "name_match",
            "text": "undecene",
            "confidence": 1.0,
            "uuid": "373172c6-1f68-444e-8cad-2bc3323cb085",
            "name": "Undecene",
            "url": "https://haz-map.com/Agents/7678",
            "category": "agents"
          }
        ]
      },
      "cas_number": {
        "original_name": "CAS Number",
        "value": "821-95-4",
        "links": [],
        "cross_references": []
      },
      "formula": {
        "original_name": "Formula",
        "value": "C11-H22",
        "links": [],
        "cross_references": []
      },
      "major_category": {
        "original_name": "Major Category",
        "value": "Other Classes",
        "links": [],
        "cross_references": []
      },
      "synonyms": {
        "original_name": "Synonyms",
        "value": "1-Hendecene; alpha-Nonylethylene; alpha-Undecene; alpha-Undecylene; n-1-Undecene; [ChemIDplus]",
        "links": [],
        "cross_references": [
          {
            "type": "name_match",
            "text": "ethylene",
            "confidence": 1.0,
            "uuid": "958eacc0-5135-4b62-bb93-6df972bf552f",
            "name": "Ethylene",
            "url": "https://haz-map.com/Agents/1076",
            "category": "agents"
          },
          {
            "type": "name_match",
            "text": "1-undecene",
            "confidence": 1.0,
            "uuid": "1584868d-3769-4f88-a02c-4a75387e095a",
            "name": "1-Undecene",
            "url": "https://haz-map.com/Agents/2929",
            "category": "agents"
          },
          {
            "type": "name_match",
            "text": "decene",
            "confidence": 1.0,
            "uuid": "31094271-051d-41ab-9d14-1e1d404f5a06",
            "name": "Decene",
            "url": "https://haz-map.com/Agents/4666",
            "category": "agents"
          },
          {
            "type": "name_match",
            "text": "undecene",
            "confidence": 1.0,
            "uuid": "373172c6-1f68-444e-8cad-2bc3323cb085",
            "name": "Undecene",
            "url": "https://haz-map.com/Agents/7678",
            "category": "agents"
          }
        ]
      },
      "category": {
        "original_name": "Category",
        "value": "Aliphatics, Unsaturated",
        "links": [],
        "cross_references": []
      },
      "description": {
        "original_name": "Description",
        "value": "Colorless liquid; [HSDB]",
        "links": [],
        "cross_references": []
      },
      "comments": {
        "original_name": "Comments",
        "value": "\"No inhalation hazard expected.\" [CHRIS] A skin and eye irritant; [HSDB] An irritant; [MSDSonline] See \"Undecene.\"",
        "links": [],
        "cross_references": [
          {
            "type": "name_match",
            "text": "decene",
            "confidence": 1.0,
            "uuid": "31094271-051d-41ab-9d14-1e1d404f5a06",
            "name": "Decene",
            "url": "https://haz-map.com/Agents/4666",
            "category": "agents"
          },
          {
            "type": "name_match",
            "text": "undecene",
            "confidence": 1.0,
            "uuid": "373172c6-1f68-444e-8cad-2bc3323cb085",
            "name": "Undecene",
            "url": "https://haz-map.com/Agents/7678",
            "category": "agents"
          }
        ]
      },
      "biomedical_references": {
        "original_name": "Biomedical References",
        "value": "Search PubMed",
        "links": [
          {
            "text": "Search PubMed",
            "url": "https://www.ncbi.nlm.nih.gov/pubmed?term=1-Undecene%20AND%20human%5Bmh%5D%20AND%20%28Occupational%20Diseases%20%5Bmh%5D%20OR%20Occupational%20Exposure%20%5Bmh%5D%29%20%20AND%20%28tox%5Bsb%5D%29&cmd=search"
          }
        ],
        "cross_references": []
      }
    },
    "exposure_assessment": {
      "vapor_pressure": {
        "original_name": "Vapor Pressure",
        "value": "0.493 mm Hg",
        "links": [],
        "cross_references": []
      },
      "explanatory_notes": {
        "original_name": "Explanatory Notes",
        "value": "Flash point = 71 deg C; [HSDB] VP from ChemIDplus;",
        "links": [],
        "cross_references": [
          {
            "type": "name_match",
            "text": "ash",
            "confidence": 1.0,
            "uuid": "68b360f1-5ad0-4337-bea0-d7adca2961b5",
            "name": "Ash",
            "url": "https://haz-map.com/Agents/965",
            "category": "agents"
          }
        ]
      }
    },
    "adverse_effects": {
      "neurotoxin": {
        "original_name": "Neurotoxin",
        "value": "Acute solvent syndrome",
        "links": [],
        "cross_references": []
      }
    },
    "diseases_processes_and_activities_linked_to_this_agent": {
      "diseases": {
        "original_name": "Diseases",
        "value": "Occupational diseases associated with exposure to this agent: Solvents, acute toxic effect",
        "links": [
          {
            "text": "Solvents, acute toxic effect",
            "url": "https://haz-map.com/Diseases/326"
          }
        ],
        "cross_references": [
          {
            "type": "url_match",
            "text": "Solvents, acute toxic effect",
            "url": "https://haz-map.com/Diseases/326",
            "confidence": 1.0,
            "uuid": "581e90e3-9d0c-45f0-aa6c-3468c28da129",
            "name": "Solvents, acute toxic effect",
            "category": "diseases"
          }
        ]
      }
    }
  },
  "cross_references": [
    {
      "type": "url_match",
      "text": "Solvents, acute toxic effect",
      "url": "https://haz-map.com/Diseases/326",
      "confidence": 1.0,
      "uuid": "581e90e3-9d0c-45f0-aa6c-3468c28da129",
      "name": "Solvents, acute toxic effect",
      "category": "diseases"
    },
    {
      "type": "name_match",
      "text": "ash",
      "confidence": 1.0,
      "uuid": "68b360f1-5ad0-4337-bea0-d7adca2961b5",
      "name": "Ash",
      "url": "https://haz-map.com/Agents/965",
      "category": "agents"
    },
    {
      "type": "name_match",
      "text": "ethylene",
      "confidence": 1.0,
      "uuid": "958eacc0-5135-4b62-bb93-6df972bf552f",
      "name": "Ethylene",
      "url": "https://haz-map.com/Agents/1076",
      "category": "agents"
    },
    {
      "type": "name_match",
      "text": "1-undecene",
      "confidence": 1.0,
      "uuid": "1584868d-3769-4f88-a02c-4a75387e095a",
      "name": "1-Undecene",
      "url": "https://haz-map.com/Agents/2929",
      "category": "agents"
    },
    {
      "type": "name_match",
      "text": "decene",
      "confidence": 1.0,
      "uuid": "31094271-051d-41ab-9d14-1e1d404f5a06",
      "name": "Decene",
      "url": "https://haz-map.com/Agents/4666",
      "category": "agents"
    },
    {
      "type": "name_match",
      "text": "undecene",
      "confidence": 1.0,
      "uuid": "373172c6-1f68-444e-8cad-2bc3323cb085",
      "name": "Undecene",
      "url": "https://haz-map.com/Agents/7678",
      "category": "agents"
    }
  ],
  "all_links": [
    {
      "text": "Search PubMed",
      "url": "https://www.ncbi.nlm.nih.gov/pubmed?term=1-Undecene%20AND%20human%5Bmh%5D%20AND%20%28Occupational%20Diseases%20%5Bmh%5D%20OR%20Occupational%20Exposure%20%5Bmh%5D%29%20%20AND%20%28tox%5Bsb%5D%29&cmd=search"
    },
    {
      "text": "Solvents, acute toxic effect",
      "url": "https://haz-map.com/Diseases/326"
    }
  ]
}