{
  "metadata": {
    "scraped_from": "https://haz-map.com/Agents/9750",
    "entity_name": "1,4-Dichloro-2-butyne",
    "category": "agents",
    "uuid": "15c99331-b032-44f9-bcf7-bf774bcc9ac1",
    "scraped_at": "2025-07-23T20:42:13.995377"
  },
  "parsed_at": "2025-07-24T01:01:01.427799",
  "title": "1,4-Dichloro-2-butyne",
  "sections": {
    "general": {
      "agent_name": {
        "original_name": "Agent Name",
        "value": "1,4-Dichloro-2-butyne",
        "links": [],
        "cross_references": [
          {
            "type": "name_match",
            "text": "2-butyne",
            "confidence": 1.0,
            "uuid": "d604893d-f414-428f-af44-ba926e496aa9",
            "name": "2-Butyne",
            "url": "https://haz-map.com/Agents/8620",
            "category": "agents"
          },
          {
            "type": "name_match",
            "text": "1,4-dichloro-2-butyne",
            "confidence": 1.0,
            "uuid": "15c99331-b032-44f9-bcf7-bf774bcc9ac1",
            "name": "1,4-Dichloro-2-butyne",
            "url": "https://haz-map.com/Agents/9750",
            "category": "agents"
          }
        ]
      },
      "cas_number": {
        "original_name": "CAS Number",
        "value": "821-10-3",
        "links": [],
        "cross_references": []
      },
      "formula": {
        "original_name": "Formula",
        "value": "C4-H4-Cl2",
        "links": [],
        "cross_references": []
      },
      "major_category": {
        "original_name": "Major Category",
        "value": "Other Classes",
        "links": [],
        "cross_references": []
      },
      "synonyms": {
        "original_name": "Synonyms",
        "value": "1,4-Dichlorobutyne; 1,4-Dichlorobut-2-yne; 2-Butyne, 1,4-dichloro-; [ChemIDplus]",
        "links": [],
        "cross_references": [
          {
            "type": "name_match",
            "text": "2-butyne",
            "confidence": 1.0,
            "uuid": "d604893d-f414-428f-af44-ba926e496aa9",
            "name": "2-Butyne",
            "url": "https://haz-map.com/Agents/8620",
            "category": "agents"
          }
        ]
      },
      "category": {
        "original_name": "Category",
        "value": "Halogenated Aliphatics, Unsaturated",
        "links": [],
        "cross_references": []
      },
      "description": {
        "original_name": "Description",
        "value": "Colorless or pale yellow liquid; [Alfa Aesar MSDS]",
        "links": [],
        "cross_references": []
      },
      "comments": {
        "original_name": "Comments",
        "value": "An irritant; Causes lachrymation; [Alfa Aesar MSDS] See \"Dichloroacetylene.\"",
        "links": [],
        "cross_references": [
          {
            "type": "name_match",
            "text": "acetylene",
            "confidence": 1.0,
            "uuid": "97b59022-d2fe-4fa2-a06d-8bb8f566165b",
            "name": "Acetylene",
            "url": "https://haz-map.com/Agents/19",
            "category": "agents"
          },
          {
            "type": "name_match",
            "text": "dichloroacetylene",
            "confidence": 1.0,
            "uuid": "ece5f56b-1825-4c39-88d7-fe06395f5618",
            "name": "Dichloroacetylene",
            "url": "https://haz-map.com/Agents/401",
            "category": "agents"
          }
        ]
      },
      "biomedical_references": {
        "original_name": "Biomedical References",
        "value": "Search PubMed",
        "links": [
          {
            "text": "Search PubMed",
            "url": "https://www.ncbi.nlm.nih.gov/pubmed?term=1%2c4-Dichloro-2-butyne%20AND%20human%5Bmh%5D%20AND%20%28Occupational%20Diseases%20%5Bmh%5D%20OR%20Occupational%20Exposure%20%5Bmh%5D%29%20%20AND%20%28tox%5Bsb%5D%29&cmd=search"
          }
        ],
        "cross_references": []
      }
    },
    "exposure_assessment": {
      "vapor_pressure": {
        "original_name": "Vapor Pressure",
        "value": "1.86 mm Hg",
        "links": [],
        "cross_references": []
      },
      "explanatory_notes": {
        "original_name": "Explanatory Notes",
        "value": "VP from ChemIDplus;",
        "links": [],
        "cross_references": []
      }
    },
    "adverse_effects": {
      "lachrymator": {
        "original_name": "Lachrymator",
        "value": "Yes",
        "links": [],
        "cross_references": []
      }
    },
    "diseases_processes_and_activities_linked_to_this_agent": {
      "other_information": {
        "original_name": "Other Information",
        "value": "No other related information on this agent was found.",
        "links": [],
        "cross_references": []
      }
    }
  },
  "cross_references": [
    {
      "type": "name_match",
      "text": "acetylene",
      "confidence": 1.0,
      "uuid": "97b59022-d2fe-4fa2-a06d-8bb8f566165b",
      "name": "Acetylene",
      "url": "https://haz-map.com/Agents/19",
      "category": "agents"
    },
    {
      "type": "name_match",
      "text": "dichloroacetylene",
      "confidence": 1.0,
      "uuid": "ece5f56b-1825-4c39-88d7-fe06395f5618",
      "name": "Dichloroacetylene",
      "url": "https://haz-map.com/Agents/401",
      "category": "agents"
    },
    {
      "type": "name_match",
      "text": "2-butyne",
      "confidence": 1.0,
      "uuid": "d604893d-f414-428f-af44-ba926e496aa9",
      "name": "2-Butyne",
      "url": "https://haz-map.com/Agents/8620",
      "category": "agents"
    },
    {
      "type": "name_match",
      "text": "1,4-dichloro-2-butyne",
      "confidence": 1.0,
      "uuid": "15c99331-b032-44f9-bcf7-bf774bcc9ac1",
      "name": "1,4-Dichloro-2-butyne",
      "url": "https://haz-map.com/Agents/9750",
      "category": "agents"
    }
  ],
  "all_links": [
    {
      "text": "Search PubMed",
      "url": "https://www.ncbi.nlm.nih.gov/pubmed?term=1%2c4-Dichloro-2-butyne%20AND%20human%5Bmh%5D%20AND%20%28Occupational%20Diseases%20%5Bmh%5D%20OR%20Occupational%20Exposure%20%5Bmh%5D%29%20%20AND%20%28tox%5Bsb%5D%29&cmd=search"
    }
  ]
}