{
  "metadata": {
    "scraped_from": "https://haz-map.com/Agents/21061",
    "entity_name": "Isonitrosoacetone",
    "category": "agents",
    "uuid": "16f6406b-4312-42ae-8c78-17be6497d9fb",
    "scraped_at": "2025-07-23T22:36:53.657808"
  },
  "parsed_at": "2025-07-24T00:54:01.153457",
  "title": "Isonitrosoacetone",
  "sections": {
    "general": {
      "agent_name": {
        "original_name": "Agent Name",
        "value": "Isonitrosoacetone",
        "links": [],
        "cross_references": [
          {
            "type": "name_match",
            "text": "acetone",
            "confidence": 1.0,
            "uuid": "31b7bdae-eb37-44cc-9c56-b6dfc1908d64",
            "name": "Acetone",
            "url": "https://haz-map.com/Agents/138",
            "category": "agents"
          },
          {
            "type": "name_match",
            "text": "isonitrosoacetone",
            "confidence": 1.0,
            "uuid": "16f6406b-4312-42ae-8c78-17be6497d9fb",
            "name": "Isonitrosoacetone",
            "url": "https://haz-map.com/Agents/21061",
            "category": "agents"
          }
        ]
      },
      "cas_number": {
        "original_name": "CAS Number",
        "value": "306-44-5",
        "links": [],
        "cross_references": []
      },
      "formula": {
        "original_name": "Formula",
        "value": "C3-H5-N-O2",
        "links": [],
        "cross_references": []
      },
      "major_category": {
        "original_name": "Major Category",
        "value": "Nitrogen Compounds",
        "links": [],
        "cross_references": [
          {
            "type": "name_match",
            "text": "nitrogen",
            "confidence": 1.0,
            "uuid": "db5e90a9-06d2-45b9-8b81-f345a89b0bc0",
            "name": "Nitrogen",
            "url": "https://haz-map.com/Agents/1072",
            "category": "agents"
          }
        ]
      },
      "synonyms": {
        "original_name": "Synonyms",
        "value": "2-Oxopropanal-1-oxime; 1,2-Propanedione, 1-oxime; 2-Propanone, 1-(hydroxyimino)-; 2-Propanone, 1-isonitroso-; 2-Propanone, isonitroso-; 3-Hydroxyiminoacetone; Acetone, (hydroxyimino)-; Acetone, 3-hydroxyimino-; Acetone, isonitroso-; Methylglyoxal aldoxime; MINA; Monoisonitrosoacetone; Monoizonitrozoacetone; Propanone 1-oxime; Pyruvaldehyde 1-oxime; Pyruvaldehydoxim [Czech]; Pyruvaldoxime; 2-Oxopropionaldehyde 1-oxime; Propanal, 2-oxo-, 1-oxime; Pyruvaldehyde, 1-oxime; [ChemIDplus]",
        "links": [],
        "cross_references": [
          {
            "type": "name_match",
            "text": "glyoxal",
            "confidence": 1.0,
            "uuid": "2b9e6427-9bb5-4761-a203-976d2bf6ac36",
            "name": "Glyoxal",
            "url": "https://haz-map.com/Agents/98",
            "category": "agents"
          },
          {
            "type": "name_match",
            "text": "propionaldehyde",
            "confidence": 1.0,
            "uuid": "bd19a1f0-19d2-4374-a727-484287733d4e",
            "name": "Propionaldehyde",
            "url": "https://haz-map.com/Agents/102",
            "category": "agents"
          },
          {
            "type": "name_match",
            "text": "acetone",
            "confidence": 1.0,
            "uuid": "31b7bdae-eb37-44cc-9c56-b6dfc1908d64",
            "name": "Acetone",
            "url": "https://haz-map.com/Agents/138",
            "category": "agents"
          },
          {
            "type": "name_match",
            "text": "propane",
            "confidence": 1.0,
            "uuid": "563a611b-46ea-4bdc-b77b-17d8f7646283",
            "name": "Propane",
            "url": "https://haz-map.com/Agents/607",
            "category": "agents"
          },
          {
            "type": "name_match",
            "text": "methylglyoxal",
            "confidence": 1.0,
            "uuid": "64afec5d-50f3-460b-8441-55bf57ebebca",
            "name": "Methylglyoxal",
            "url": "https://haz-map.com/Agents/6108",
            "category": "agents"
          },
          {
            "type": "name_match",
            "text": "isonitrosoacetone",
            "confidence": 1.0,
            "uuid": "16f6406b-4312-42ae-8c78-17be6497d9fb",
            "name": "Isonitrosoacetone",
            "url": "https://haz-map.com/Agents/21061",
            "category": "agents"
          }
        ]
      },
      "category": {
        "original_name": "Category",
        "value": "Oximes",
        "links": [],
        "cross_references": []
      },
      "description": {
        "original_name": "Description",
        "value": "Solid; [Merck Index]",
        "links": [],
        "cross_references": []
      },
      "comments": {
        "original_name": "Comments",
        "value": "Causes degenerative changes to brain, coma, and dyspnea in inhalation lethal-concentration studies of rats; Causes convulsions in oral lethal-dose studies of rats; [RTECS]",
        "links": [],
        "cross_references": [
          {
            "type": "name_match",
            "text": "convulsion",
            "confidence": 1.0,
            "uuid": "af2c36f8-707a-48e3-a62b-1aa07adc9b72",
            "name": "convulsion",
            "url": "https://haz-map.com/Findings/14",
            "category": "findings"
          }
        ]
      },
      "biomedical_references": {
        "original_name": "Biomedical References",
        "value": "Search PubMed",
        "links": [
          {
            "text": "Search PubMed",
            "url": "https://www.ncbi.nlm.nih.gov/pubmed?term=Isonitrosoacetone%20AND%20human%5Bmh%5D%20AND%20%28Occupational%20Diseases%20%5Bmh%5D%20OR%20Occupational%20Exposure%20%5Bmh%5D%29%20%20AND%20%28tox%5Bsb%5D%29&cmd=search"
          }
        ],
        "cross_references": []
      }
    },
    "exposure_assessment": {
      "vapor_pressure": {
        "original_name": "Vapor Pressure",
        "value": "0.201 mm Hg",
        "links": [],
        "cross_references": []
      },
      "lethal_concentration": {
        "original_name": "Lethal Concentration",
        "value": "LCLo (rat) = 3,600 mg/m3/2hr",
        "links": [],
        "cross_references": []
      }
    },
    "adverse_effects": {
      "neurotoxin": {
        "original_name": "Neurotoxin",
        "value": "Other CNS neurotoxin",
        "links": [],
        "cross_references": []
      }
    },
    "diseases_processes_and_activities_linked_to_this_agent": {
      "other_information": {
        "original_name": "Other Information",
        "value": "No other related information on this agent was found.",
        "links": [],
        "cross_references": []
      }
    }
  },
  "cross_references": [
    {
      "type": "name_match",
      "text": "convulsion",
      "confidence": 1.0,
      "uuid": "af2c36f8-707a-48e3-a62b-1aa07adc9b72",
      "name": "convulsion",
      "url": "https://haz-map.com/Findings/14",
      "category": "findings"
    },
    {
      "type": "name_match",
      "text": "glyoxal",
      "confidence": 1.0,
      "uuid": "2b9e6427-9bb5-4761-a203-976d2bf6ac36",
      "name": "Glyoxal",
      "url": "https://haz-map.com/Agents/98",
      "category": "agents"
    },
    {
      "type": "name_match",
      "text": "propionaldehyde",
      "confidence": 1.0,
      "uuid": "bd19a1f0-19d2-4374-a727-484287733d4e",
      "name": "Propionaldehyde",
      "url": "https://haz-map.com/Agents/102",
      "category": "agents"
    },
    {
      "type": "name_match",
      "text": "acetone",
      "confidence": 1.0,
      "uuid": "31b7bdae-eb37-44cc-9c56-b6dfc1908d64",
      "name": "Acetone",
      "url": "https://haz-map.com/Agents/138",
      "category": "agents"
    },
    {
      "type": "name_match",
      "text": "propane",
      "confidence": 1.0,
      "uuid": "563a611b-46ea-4bdc-b77b-17d8f7646283",
      "name": "Propane",
      "url": "https://haz-map.com/Agents/607",
      "category": "agents"
    },
    {
      "type": "name_match",
      "text": "nitrogen",
      "confidence": 1.0,
      "uuid": "db5e90a9-06d2-45b9-8b81-f345a89b0bc0",
      "name": "Nitrogen",
      "url": "https://haz-map.com/Agents/1072",
      "category": "agents"
    },
    {
      "type": "name_match",
      "text": "methylglyoxal",
      "confidence": 1.0,
      "uuid": "64afec5d-50f3-460b-8441-55bf57ebebca",
      "name": "Methylglyoxal",
      "url": "https://haz-map.com/Agents/6108",
      "category": "agents"
    },
    {
      "type": "name_match",
      "text": "isonitrosoacetone",
      "confidence": 1.0,
      "uuid": "16f6406b-4312-42ae-8c78-17be6497d9fb",
      "name": "Isonitrosoacetone",
      "url": "https://haz-map.com/Agents/21061",
      "category": "agents"
    }
  ],
  "all_links": [
    {
      "text": "Search PubMed",
      "url": "https://www.ncbi.nlm.nih.gov/pubmed?term=Isonitrosoacetone%20AND%20human%5Bmh%5D%20AND%20%28Occupational%20Diseases%20%5Bmh%5D%20OR%20Occupational%20Exposure%20%5Bmh%5D%29%20%20AND%20%28tox%5Bsb%5D%29&cmd=search"
    }
  ]
}