{
  "metadata": {
    "scraped_from": "https://haz-map.com/Agents/14695",
    "entity_name": "Linolenic acid",
    "category": "agents",
    "uuid": "170408fa-33ef-4f87-97bf-5a3d2837de06",
    "scraped_at": "2025-07-23T21:25:32.211915"
  },
  "parsed_at": "2025-07-24T01:13:40.630255",
  "title": "Linolenic acid",
  "sections": {
    "general": {
      "agent_name": {
        "original_name": "Agent Name",
        "value": "Linolenic acid",
        "links": [],
        "cross_references": [
          {
            "type": "name_match",
            "text": "linolenic acid",
            "confidence": 1.0,
            "uuid": "170408fa-33ef-4f87-97bf-5a3d2837de06",
            "name": "Linolenic acid",
            "url": "https://haz-map.com/Agents/14695",
            "category": "agents"
          }
        ]
      },
      "cas_number": {
        "original_name": "CAS Number",
        "value": "463-40-1",
        "links": [],
        "cross_references": []
      },
      "formula": {
        "original_name": "Formula",
        "value": "C18-H30-O2",
        "links": [],
        "cross_references": []
      },
      "major_category": {
        "original_name": "Major Category",
        "value": "Biological Agents",
        "links": [],
        "cross_references": []
      },
      "synonyms": {
        "original_name": "Synonyms",
        "value": "(Z,Z,Z)-Octadeca-9,12,15-trienoic acid; 9-cis,12-cis,15-cis-Octadecatrienoic acid; Linolenate; all-cis-9,12,15-Octadecatrienoic acid; alpha-Linolenic acid; cis,cis,cis-9,12,15-Octadecatrienoic acid; cis-delta9,12,15-Octadecatrienoic acid; 9,12,15-Octadecatrienoic acid, (9Z,12Z,15Z)-; 9,12,15-Octadecatrienoic acid, (Z,Z,Z)-; Linolenic acid, crude; [ChemIDplus] 9,12,15-all-cis-Octadecatrienoic acid; cis-9,cis-12,cis-15-Octadecatrienoic acid; cis-9,12,15-Octadecatrienoic acid; cis-delta-9,12,15-Octadecatrienoic acid; [CAMEO] alpha-Lnn; [Sigma-Aldrich MSDS]",
        "links": [],
        "cross_references": [
          {
            "type": "name_match",
            "text": "linolenic acid",
            "confidence": 1.0,
            "uuid": "170408fa-33ef-4f87-97bf-5a3d2837de06",
            "name": "Linolenic acid",
            "url": "https://haz-map.com/Agents/14695",
            "category": "agents"
          }
        ]
      },
      "category": {
        "original_name": "Category",
        "value": "Fatty Acids and Fats",
        "links": [],
        "cross_references": []
      },
      "description": {
        "original_name": "Description",
        "value": "Colorless liquid; [Merck Index]",
        "links": [],
        "cross_references": []
      },
      "sourcesuses": {
        "original_name": "Sources/Uses",
        "value": "Essential fatty acid; Found in most drying oils; Used as a nutrient; [Merck Index] Used in biochemical research, drying oils, and cosmetics; [NTP] \"α-Linolenic acid (ALA) is an organic compound found in many common vegetable oils. . . . Seed oils are the richest sources of α-linolenic acid, notably those of chia, perilla, flaxseed (linseed oil), rapeseed (canola), and soybeans.\" [Wikipedia]",
        "links": [],
        "cross_references": [
          {
            "type": "name_match",
            "text": "mica",
            "confidence": 1.0,
            "uuid": "433f26f1-c399-4596-b179-ce3843cfd465",
            "name": "Mica",
            "url": "https://haz-map.com/Agents/621",
            "category": "agents"
          },
          {
            "type": "name_match",
            "text": "linolenic acid",
            "confidence": 1.0,
            "uuid": "170408fa-33ef-4f87-97bf-5a3d2837de06",
            "name": "Linolenic acid",
            "url": "https://haz-map.com/Agents/14695",
            "category": "agents"
          },
          {
            "type": "name_match",
            "text": "linseed oil",
            "confidence": 1.0,
            "uuid": "37cad415-2311-42c2-970c-753197a705e8",
            "name": "Linseed oil",
            "url": "https://haz-map.com/Agents/14696",
            "category": "agents"
          },
          {
            "type": "name_match",
            "text": "vegetable oil",
            "confidence": 1.0,
            "uuid": "c24688f8-f00d-4b95-97a7-7b5569d8e87c",
            "name": "Vegetable oil",
            "url": "https://haz-map.com/Agents/18627",
            "category": "agents"
          }
        ]
      },
      "comments": {
        "original_name": "Comments",
        "value": "Oxidized by air forming peroxides that may spontaneously combust; [CAMEO] Safe when used as a flavoring agent in food; [JECFA] May cause irritation; [Sigma-Aldrich MSDS]",
        "links": [],
        "cross_references": []
      },
      "biomedical_references": {
        "original_name": "Biomedical References",
        "value": "Search PubMed",
        "links": [
          {
            "text": "Search PubMed",
            "url": "https://www.ncbi.nlm.nih.gov/pubmed?term=Linolenic+acid%20AND%20human%5Bmh%5D%20AND%20%28Occupational%20Diseases%20%5Bmh%5D%20OR%20Occupational%20Exposure%20%5Bmh%5D%29%20%20AND%20%28tox%5Bsb%5D%29&cmd=search"
          }
        ],
        "cross_references": []
      }
    },
    "exposure_assessment": {
      "vapor_pressure": {
        "original_name": "Vapor Pressure",
        "value": "5.4E-07 mm Hg",
        "links": [],
        "cross_references": []
      }
    },
    "diseases_processes_and_activities_linked_to_this_agent": {
      "processes": {
        "original_name": "Processes",
        "value": "Industrial Processes with risk of exposure: Painting (Pigments, Binders, and Biocides)",
        "links": [
          {
            "text": "Painting (Pigments, Binders, and Biocides)",
            "url": "https://haz-map.com/Processes/145"
          }
        ],
        "cross_references": [
          {
            "type": "url_match",
            "text": "Painting (Pigments, Binders, and Biocides)",
            "url": "https://haz-map.com/Processes/145",
            "confidence": 1.0,
            "uuid": "25867878-e178-4c21-906f-d392d86b76de",
            "name": "Painting (Pigments, Binders, and Biocides)",
            "category": "processes"
          },
          {
            "type": "name_match",
            "text": "painting",
            "confidence": 1.0,
            "uuid": "19816ce9-9edf-4a86-8e64-b0cbf7dcf520",
            "name": "Painting",
            "url": "https://haz-map.com/Activities/9",
            "category": "activities"
          }
        ]
      }
    }
  },
  "cross_references": [
    {
      "type": "url_match",
      "text": "Painting (Pigments, Binders, and Biocides)",
      "url": "https://haz-map.com/Processes/145",
      "confidence": 1.0,
      "uuid": "25867878-e178-4c21-906f-d392d86b76de",
      "name": "Painting (Pigments, Binders, and Biocides)",
      "category": "processes"
    },
    {
      "type": "name_match",
      "text": "painting",
      "confidence": 1.0,
      "uuid": "19816ce9-9edf-4a86-8e64-b0cbf7dcf520",
      "name": "Painting",
      "url": "https://haz-map.com/Activities/9",
      "category": "activities"
    },
    {
      "type": "name_match",
      "text": "mica",
      "confidence": 1.0,
      "uuid": "433f26f1-c399-4596-b179-ce3843cfd465",
      "name": "Mica",
      "url": "https://haz-map.com/Agents/621",
      "category": "agents"
    },
    {
      "type": "name_match",
      "text": "linolenic acid",
      "confidence": 1.0,
      "uuid": "170408fa-33ef-4f87-97bf-5a3d2837de06",
      "name": "Linolenic acid",
      "url": "https://haz-map.com/Agents/14695",
      "category": "agents"
    },
    {
      "type": "name_match",
      "text": "linseed oil",
      "confidence": 1.0,
      "uuid": "37cad415-2311-42c2-970c-753197a705e8",
      "name": "Linseed oil",
      "url": "https://haz-map.com/Agents/14696",
      "category": "agents"
    },
    {
      "type": "name_match",
      "text": "vegetable oil",
      "confidence": 1.0,
      "uuid": "c24688f8-f00d-4b95-97a7-7b5569d8e87c",
      "name": "Vegetable oil",
      "url": "https://haz-map.com/Agents/18627",
      "category": "agents"
    }
  ],
  "all_links": [
    {
      "text": "Search PubMed",
      "url": "https://www.ncbi.nlm.nih.gov/pubmed?term=Linolenic+acid%20AND%20human%5Bmh%5D%20AND%20%28Occupational%20Diseases%20%5Bmh%5D%20OR%20Occupational%20Exposure%20%5Bmh%5D%29%20%20AND%20%28tox%5Bsb%5D%29&cmd=search"
    },
    {
      "text": "Painting (Pigments, Binders, and Biocides)",
      "url": "https://haz-map.com/Processes/145"
    }
  ]
}