{
  "metadata": {
    "scraped_from": "https://haz-map.com/Agents/10443",
    "entity_name": "2-Propanol, 1,1,1-trifluoro-",
    "category": "agents",
    "uuid": "17417a9b-5804-4754-8d7a-2e96bce766a3",
    "scraped_at": "2025-07-23T20:47:32.269540"
  },
  "parsed_at": "2025-07-24T01:07:50.019022",
  "title": "2-Propanol, 1,1,1-trifluoro-",
  "sections": {
    "general": {
      "agent_name": {
        "original_name": "Agent Name",
        "value": "2-Propanol, 1,1,1-trifluoro-",
        "links": [],
        "cross_references": [
          {
            "type": "name_match",
            "text": "2-propanol, 1,1,1-trifluoro-",
            "confidence": 1.0,
            "uuid": "17417a9b-5804-4754-8d7a-2e96bce766a3",
            "name": "2-Propanol, 1,1,1-trifluoro-",
            "url": "https://haz-map.com/Agents/10443",
            "category": "agents"
          }
        ]
      },
      "cas_number": {
        "original_name": "CAS Number",
        "value": "374-01-6",
        "links": [],
        "cross_references": []
      },
      "formula": {
        "original_name": "Formula",
        "value": "C3-H5-F3-O",
        "links": [],
        "cross_references": []
      },
      "major_category": {
        "original_name": "Major Category",
        "value": "Other Classes",
        "links": [],
        "cross_references": []
      },
      "synonyms": {
        "original_name": "Synonyms",
        "value": "1,1,1-Trifluoro-2-propanol; 1-Methyl-2,2,2-trifluoroethanol; 1,1,1-Trifluoropropan-2-ol; [ChemIDplus] UN1987",
        "links": [],
        "cross_references": [
          {
            "type": "name_match",
            "text": "trifluoroethanol",
            "confidence": 1.0,
            "uuid": "a8d3fae0-ff1b-4efc-bcda-57b922f302df",
            "name": "Trifluoroethanol",
            "url": "https://haz-map.com/Agents/8400",
            "category": "agents"
          },
          {
            "type": "name_match",
            "text": "fluoroethanol",
            "confidence": 1.0,
            "uuid": "d4f5742b-0246-4909-8d62-1a5afa6b3e20",
            "name": "Fluoroethanol",
            "url": "https://haz-map.com/Agents/13895",
            "category": "agents"
          }
        ]
      },
      "category": {
        "original_name": "Category",
        "value": "Halogenated Alcohols",
        "links": [],
        "cross_references": []
      },
      "description": {
        "original_name": "Description",
        "value": "Colorless liquid; [Alfa Aesar MSDS]",
        "links": [],
        "cross_references": []
      },
      "comments": {
        "original_name": "Comments",
        "value": "An irritant; [Alfa Aesar MSDS] See \"Trifluoroethanol\" and \"1,3-Dichloro-2-propanol.\"",
        "links": [],
        "cross_references": [
          {
            "type": "name_match",
            "text": "1,3-dichloro-2-propanol",
            "confidence": 1.0,
            "uuid": "b21a2548-d8f8-43f4-9185-35a35eff5685",
            "name": "1,3-Dichloro-2-propanol",
            "url": "https://haz-map.com/Agents/2791",
            "category": "agents"
          },
          {
            "type": "name_match",
            "text": "trifluoroethanol",
            "confidence": 1.0,
            "uuid": "a8d3fae0-ff1b-4efc-bcda-57b922f302df",
            "name": "Trifluoroethanol",
            "url": "https://haz-map.com/Agents/8400",
            "category": "agents"
          },
          {
            "type": "name_match",
            "text": "fluoroethanol",
            "confidence": 1.0,
            "uuid": "d4f5742b-0246-4909-8d62-1a5afa6b3e20",
            "name": "Fluoroethanol",
            "url": "https://haz-map.com/Agents/13895",
            "category": "agents"
          }
        ]
      },
      "biomedical_references": {
        "original_name": "Biomedical References",
        "value": "Search PubMed",
        "links": [
          {
            "text": "Search PubMed",
            "url": "https://www.ncbi.nlm.nih.gov/pubmed?term=2-Propanol%2c+1%2c1%2c1-trifluoro-%20AND%20human%5Bmh%5D%20AND%20%28Occupational%20Diseases%20%5Bmh%5D%20OR%20Occupational%20Exposure%20%5Bmh%5D%29%20%20AND%20%28tox%5Bsb%5D%29&cmd=search"
          }
        ],
        "cross_references": []
      }
    },
    "exposure_assessment": {
      "vapor_pressure": {
        "original_name": "Vapor Pressure",
        "value": "60.9 mm Hg",
        "links": [],
        "cross_references": []
      },
      "explanatory_notes": {
        "original_name": "Explanatory Notes",
        "value": "The Guide in the Emergency Response Guidebook is for \"Alcohols, n.o.s.\" VP from ChemIDplus;",
        "links": [],
        "cross_references": []
      }
    },
    "diseases_processes_and_activities_linked_to_this_agent": {
      "other_information": {
        "original_name": "Other Information",
        "value": "No other related information on this agent was found.",
        "links": [],
        "cross_references": []
      }
    }
  },
  "cross_references": [
    {
      "type": "name_match",
      "text": "1,3-dichloro-2-propanol",
      "confidence": 1.0,
      "uuid": "b21a2548-d8f8-43f4-9185-35a35eff5685",
      "name": "1,3-Dichloro-2-propanol",
      "url": "https://haz-map.com/Agents/2791",
      "category": "agents"
    },
    {
      "type": "name_match",
      "text": "trifluoroethanol",
      "confidence": 1.0,
      "uuid": "a8d3fae0-ff1b-4efc-bcda-57b922f302df",
      "name": "Trifluoroethanol",
      "url": "https://haz-map.com/Agents/8400",
      "category": "agents"
    },
    {
      "type": "name_match",
      "text": "2-propanol, 1,1,1-trifluoro-",
      "confidence": 1.0,
      "uuid": "17417a9b-5804-4754-8d7a-2e96bce766a3",
      "name": "2-Propanol, 1,1,1-trifluoro-",
      "url": "https://haz-map.com/Agents/10443",
      "category": "agents"
    },
    {
      "type": "name_match",
      "text": "fluoroethanol",
      "confidence": 1.0,
      "uuid": "d4f5742b-0246-4909-8d62-1a5afa6b3e20",
      "name": "Fluoroethanol",
      "url": "https://haz-map.com/Agents/13895",
      "category": "agents"
    }
  ],
  "all_links": [
    {
      "text": "Search PubMed",
      "url": "https://www.ncbi.nlm.nih.gov/pubmed?term=2-Propanol%2c+1%2c1%2c1-trifluoro-%20AND%20human%5Bmh%5D%20AND%20%28Occupational%20Diseases%20%5Bmh%5D%20OR%20Occupational%20Exposure%20%5Bmh%5D%29%20%20AND%20%28tox%5Bsb%5D%29&cmd=search"
    }
  ]
}