{
  "metadata": {
    "scraped_from": "https://haz-map.com/Agents/10993",
    "entity_name": "3,4-Dibromothiophene",
    "category": "agents",
    "uuid": "177b9cbe-323d-46e6-b65d-3bcf00fb10b9",
    "scraped_at": "2025-07-23T20:55:02.219069"
  },
  "parsed_at": "2025-07-24T01:14:09.325476",
  "title": "3,4-Dibromothiophene",
  "sections": {
    "general": {
      "agent_name": {
        "original_name": "Agent Name",
        "value": "3,4-Dibromothiophene",
        "links": [],
        "cross_references": [
          {
            "type": "name_match",
            "text": "moth",
            "confidence": 1.0,
            "uuid": "14a33a40-8ea5-4ef5-b71a-3731a9d4ba32",
            "name": "Moth",
            "url": "https://haz-map.com/Agents/907",
            "category": "agents"
          },
          {
            "type": "name_match",
            "text": "thiophene",
            "confidence": 1.0,
            "uuid": "f7ccd5a0-b31f-419d-b64f-3472ae89f92f",
            "name": "Thiophene",
            "url": "https://haz-map.com/Agents/1479",
            "category": "agents"
          },
          {
            "type": "name_match",
            "text": "3,4-dibromothiophene",
            "confidence": 1.0,
            "uuid": "177b9cbe-323d-46e6-b65d-3bcf00fb10b9",
            "name": "3,4-Dibromothiophene",
            "url": "https://haz-map.com/Agents/10993",
            "category": "agents"
          }
        ]
      },
      "cas_number": {
        "original_name": "CAS Number",
        "value": "3141-26-2",
        "links": [],
        "cross_references": []
      },
      "formula": {
        "original_name": "Formula",
        "value": "C4-H2-Br2-S",
        "links": [],
        "cross_references": []
      },
      "major_category": {
        "original_name": "Major Category",
        "value": "Other Classes",
        "links": [],
        "cross_references": []
      },
      "synonyms": {
        "original_name": "Synonyms",
        "value": "Thiophene, 3,4-dibromo- (8CI)(9CI); [ChemIDplus]",
        "links": [],
        "cross_references": [
          {
            "type": "name_match",
            "text": "thiophene",
            "confidence": 1.0,
            "uuid": "f7ccd5a0-b31f-419d-b64f-3472ae89f92f",
            "name": "Thiophene",
            "url": "https://haz-map.com/Agents/1479",
            "category": "agents"
          }
        ]
      },
      "category": {
        "original_name": "Category",
        "value": "Thiophenes",
        "links": [],
        "cross_references": [
          {
            "type": "name_match",
            "text": "thiophene",
            "confidence": 1.0,
            "uuid": "f7ccd5a0-b31f-419d-b64f-3472ae89f92f",
            "name": "Thiophene",
            "url": "https://haz-map.com/Agents/1479",
            "category": "agents"
          }
        ]
      },
      "description": {
        "original_name": "Description",
        "value": "Colorless liquid; mp = 4-5 deg C; [Alfa Aesar MSDS]",
        "links": [],
        "cross_references": []
      },
      "comments": {
        "original_name": "Comments",
        "value": "A skin and strong eye irritant; [Alfa Aesar MSDS] See \"Thiophene.\"",
        "links": [],
        "cross_references": [
          {
            "type": "name_match",
            "text": "thiophene",
            "confidence": 1.0,
            "uuid": "f7ccd5a0-b31f-419d-b64f-3472ae89f92f",
            "name": "Thiophene",
            "url": "https://haz-map.com/Agents/1479",
            "category": "agents"
          }
        ]
      },
      "biomedical_references": {
        "original_name": "Biomedical References",
        "value": "Search PubMed",
        "links": [
          {
            "text": "Search PubMed",
            "url": "https://www.ncbi.nlm.nih.gov/pubmed?term=3%2c4-Dibromothiophene%20AND%20human%5Bmh%5D%20AND%20%28Occupational%20Diseases%20%5Bmh%5D%20OR%20Occupational%20Exposure%20%5Bmh%5D%29%20%20AND%20%28tox%5Bsb%5D%29&cmd=search"
          }
        ],
        "cross_references": []
      }
    },
    "exposure_assessment": {
      "vapor_pressure": {
        "original_name": "Vapor Pressure",
        "value": "0.121 mm Hg",
        "links": [],
        "cross_references": []
      }
    },
    "diseases_processes_and_activities_linked_to_this_agent": {
      "other_information": {
        "original_name": "Other Information",
        "value": "No other related information on this agent was found.",
        "links": [],
        "cross_references": []
      }
    }
  },
  "cross_references": [
    {
      "type": "name_match",
      "text": "moth",
      "confidence": 1.0,
      "uuid": "14a33a40-8ea5-4ef5-b71a-3731a9d4ba32",
      "name": "Moth",
      "url": "https://haz-map.com/Agents/907",
      "category": "agents"
    },
    {
      "type": "name_match",
      "text": "thiophene",
      "confidence": 1.0,
      "uuid": "f7ccd5a0-b31f-419d-b64f-3472ae89f92f",
      "name": "Thiophene",
      "url": "https://haz-map.com/Agents/1479",
      "category": "agents"
    },
    {
      "type": "name_match",
      "text": "3,4-dibromothiophene",
      "confidence": 1.0,
      "uuid": "177b9cbe-323d-46e6-b65d-3bcf00fb10b9",
      "name": "3,4-Dibromothiophene",
      "url": "https://haz-map.com/Agents/10993",
      "category": "agents"
    }
  ],
  "all_links": [
    {
      "text": "Search PubMed",
      "url": "https://www.ncbi.nlm.nih.gov/pubmed?term=3%2c4-Dibromothiophene%20AND%20human%5Bmh%5D%20AND%20%28Occupational%20Diseases%20%5Bmh%5D%20OR%20Occupational%20Exposure%20%5Bmh%5D%29%20%20AND%20%28tox%5Bsb%5D%29&cmd=search"
    }
  ]
}