{
  "metadata": {
    "scraped_from": "https://haz-map.com/Agents/10445",
    "entity_name": "2-Propanone, 1,1,1-trifluoro-",
    "category": "agents",
    "uuid": "1846550a-7851-46a1-a22f-726473a1b1c2",
    "scraped_at": "2025-07-23T20:47:33.592138"
  },
  "parsed_at": "2025-07-24T01:12:20.322744",
  "title": "2-Propanone, 1,1,1-trifluoro-",
  "sections": {
    "general": {
      "agent_name": {
        "original_name": "Agent Name",
        "value": "2-Propanone, 1,1,1-trifluoro-",
        "links": [],
        "cross_references": [
          {
            "type": "name_match",
            "text": "2-propanone, 1,1,1-trifluoro-",
            "confidence": 1.0,
            "uuid": "1846550a-7851-46a1-a22f-726473a1b1c2",
            "name": "2-Propanone, 1,1,1-trifluoro-",
            "url": "https://haz-map.com/Agents/10445",
            "category": "agents"
          }
        ]
      },
      "cas_number": {
        "original_name": "CAS Number",
        "value": "421-50-1",
        "links": [],
        "cross_references": []
      },
      "formula": {
        "original_name": "Formula",
        "value": "C3-H3-F3-O",
        "links": [],
        "cross_references": []
      },
      "major_category": {
        "original_name": "Major Category",
        "value": "Other Classes",
        "links": [],
        "cross_references": []
      },
      "synonyms": {
        "original_name": "Synonyms",
        "value": "1,1,1-Trifluoro-2-propanone; 1,1,1-Trifluoroacetone; 3,3,3-Trifluoroacetone; Methyl trifluoromethyl ketone; Trifluoromethyl methyl ketone; [ChemIDplus]",
        "links": [],
        "cross_references": [
          {
            "type": "name_match",
            "text": "acetone",
            "confidence": 1.0,
            "uuid": "31b7bdae-eb37-44cc-9c56-b6dfc1908d64",
            "name": "Acetone",
            "url": "https://haz-map.com/Agents/138",
            "category": "agents"
          },
          {
            "type": "name_match",
            "text": "fluoroacetone",
            "confidence": 1.0,
            "uuid": "8794328b-7632-4364-af01-2f67abdd2463",
            "name": "Fluoroacetone",
            "url": "https://haz-map.com/Agents/13893",
            "category": "agents"
          }
        ]
      },
      "category": {
        "original_name": "Category",
        "value": "Halogenated Ketones",
        "links": [],
        "cross_references": []
      },
      "description": {
        "original_name": "Description",
        "value": "Clear colorless liquid; bp = 22 deg C; [Aldrich MSDS]",
        "links": [],
        "cross_references": []
      },
      "comments": {
        "original_name": "Comments",
        "value": "A skin and strong eye irritant; A lachrymator; [Aldrich MSDS]",
        "links": [],
        "cross_references": []
      },
      "biomedical_references": {
        "original_name": "Biomedical References",
        "value": "Search PubMed",
        "links": [
          {
            "text": "Search PubMed",
            "url": "https://www.ncbi.nlm.nih.gov/pubmed?term=2-Propanone%2c+1%2c1%2c1-trifluoro-%20AND%20human%5Bmh%5D%20AND%20%28Occupational%20Diseases%20%5Bmh%5D%20OR%20Occupational%20Exposure%20%5Bmh%5D%29%20%20AND%20%28tox%5Bsb%5D%29&cmd=search"
          }
        ],
        "cross_references": []
      }
    },
    "exposure_assessment": {
      "vapor_pressure": {
        "original_name": "Vapor Pressure",
        "value": "728 mm Hg",
        "links": [],
        "cross_references": []
      },
      "explanatory_notes": {
        "original_name": "Explanatory Notes",
        "value": "VP from ChemIDplus;",
        "links": [],
        "cross_references": []
      }
    },
    "adverse_effects": {
      "lachrymator": {
        "original_name": "Lachrymator",
        "value": "Yes",
        "links": [],
        "cross_references": []
      }
    },
    "diseases_processes_and_activities_linked_to_this_agent": {
      "other_information": {
        "original_name": "Other Information",
        "value": "No other related information on this agent was found.",
        "links": [],
        "cross_references": []
      }
    }
  },
  "cross_references": [
    {
      "type": "name_match",
      "text": "acetone",
      "confidence": 1.0,
      "uuid": "31b7bdae-eb37-44cc-9c56-b6dfc1908d64",
      "name": "Acetone",
      "url": "https://haz-map.com/Agents/138",
      "category": "agents"
    },
    {
      "type": "name_match",
      "text": "2-propanone, 1,1,1-trifluoro-",
      "confidence": 1.0,
      "uuid": "1846550a-7851-46a1-a22f-726473a1b1c2",
      "name": "2-Propanone, 1,1,1-trifluoro-",
      "url": "https://haz-map.com/Agents/10445",
      "category": "agents"
    },
    {
      "type": "name_match",
      "text": "fluoroacetone",
      "confidence": 1.0,
      "uuid": "8794328b-7632-4364-af01-2f67abdd2463",
      "name": "Fluoroacetone",
      "url": "https://haz-map.com/Agents/13893",
      "category": "agents"
    }
  ],
  "all_links": [
    {
      "text": "Search PubMed",
      "url": "https://www.ncbi.nlm.nih.gov/pubmed?term=2-Propanone%2c+1%2c1%2c1-trifluoro-%20AND%20human%5Bmh%5D%20AND%20%28Occupational%20Diseases%20%5Bmh%5D%20OR%20Occupational%20Exposure%20%5Bmh%5D%29%20%20AND%20%28tox%5Bsb%5D%29&cmd=search"
    }
  ]
}