{
  "metadata": {
    "scraped_from": "https://haz-map.com/Agents/3141",
    "entity_name": "2-Methylpyrene",
    "category": "agents",
    "uuid": "18539b19-6468-47fc-a8e4-a053c57560f8",
    "scraped_at": "2025-07-23T19:24:42.589413"
  },
  "parsed_at": "2025-07-24T00:59:04.695290",
  "title": "2-Methylpyrene",
  "sections": {
    "general": {
      "agent_name": {
        "original_name": "Agent Name",
        "value": "2-Methylpyrene",
        "links": [],
        "cross_references": [
          {
            "type": "name_match",
            "text": "2-methylpyrene",
            "confidence": 1.0,
            "uuid": "18539b19-6468-47fc-a8e4-a053c57560f8",
            "name": "2-Methylpyrene",
            "url": "https://haz-map.com/Agents/3141",
            "category": "agents"
          },
          {
            "type": "name_match",
            "text": "pyrene",
            "confidence": 1.0,
            "uuid": "42ce584a-71be-48d4-a37b-0b0a23822638",
            "name": "Pyrene",
            "url": "https://haz-map.com/Agents/7862",
            "category": "agents"
          }
        ]
      },
      "cas_number": {
        "original_name": "CAS Number",
        "value": "3442-78-2",
        "links": [],
        "cross_references": []
      },
      "formula": {
        "original_name": "Formula",
        "value": "C17-H12",
        "links": [],
        "cross_references": []
      },
      "major_category": {
        "original_name": "Major Category",
        "value": "Other Classes",
        "links": [],
        "cross_references": []
      },
      "synonyms": {
        "original_name": "Synonyms",
        "value": "Pyrene, 2-methyl-; [ChemIDplus]",
        "links": [],
        "cross_references": [
          {
            "type": "name_match",
            "text": "pyrene",
            "confidence": 1.0,
            "uuid": "42ce584a-71be-48d4-a37b-0b0a23822638",
            "name": "Pyrene",
            "url": "https://haz-map.com/Agents/7862",
            "category": "agents"
          }
        ]
      },
      "category": {
        "original_name": "Category",
        "value": "Polycyclic Aromatic Hydrocarbons",
        "links": [],
        "cross_references": [
          {
            "type": "name_match",
            "text": "polycyclic aromatic hydrocarbons",
            "confidence": 1.0,
            "uuid": "0f103271-339e-42e1-80e3-bf90a8be7084",
            "name": "POLYCYCLIC AROMATIC HYDROCARBONS",
            "url": "https://haz-map.com/Agents/720",
            "category": "agents"
          },
          {
            "type": "name_match",
            "text": "carbon",
            "confidence": 1.0,
            "uuid": "b53f8815-ee80-40ef-b4aa-3b000e17dab5",
            "name": "Carbon",
            "url": "https://haz-map.com/Agents/1891",
            "category": "agents"
          },
          {
            "type": "fuzzy_match",
            "text": "aromatic hydrocarbons",
            "matched_name": "Aromatic hydrocarbons, C9-C11",
            "confidence": 0.7509578544061303,
            "uuid": "1e86d79b-784d-40c4-8412-39a4432a7a75",
            "category": "agents",
            "url": "https://haz-map.com/Agents/20258"
          },
          {
            "type": "fuzzy_match",
            "text": "hydrocarbons",
            "matched_name": "Hydrocarbons, C>3",
            "confidence": 0.7100840336134454,
            "uuid": "8eaa37ac-3931-44e4-9242-2734127fd661",
            "category": "agents",
            "url": "https://haz-map.com/Agents/14795"
          }
        ]
      },
      "comments": {
        "original_name": "Comments",
        "value": "Emergency treatment: \"Pyrene\"; [HSDB] See \"Pyrene.\"",
        "links": [],
        "cross_references": [
          {
            "type": "name_match",
            "text": "pyrene",
            "confidence": 1.0,
            "uuid": "42ce584a-71be-48d4-a37b-0b0a23822638",
            "name": "Pyrene",
            "url": "https://haz-map.com/Agents/7862",
            "category": "agents"
          }
        ]
      },
      "biomedical_references": {
        "original_name": "Biomedical References",
        "value": "Search PubMed",
        "links": [
          {
            "text": "Search PubMed",
            "url": "https://www.ncbi.nlm.nih.gov/pubmed?term=2-Methylpyrene%20AND%20human%5Bmh%5D%20AND%20%28Occupational%20Diseases%20%5Bmh%5D%20OR%20Occupational%20Exposure%20%5Bmh%5D%29%20%20AND%20%28tox%5Bsb%5D%29&cmd=search"
          }
        ],
        "cross_references": []
      }
    },
    "exposure_assessment": {
      "vapor_pressure": {
        "original_name": "Vapor Pressure",
        "value": "1.75E-06 mm Hg",
        "links": [],
        "cross_references": []
      }
    },
    "diseases_processes_and_activities_linked_to_this_agent": {
      "other_information": {
        "original_name": "Other Information",
        "value": "No other related information on this agent was found.",
        "links": [],
        "cross_references": []
      }
    }
  },
  "cross_references": [
    {
      "type": "name_match",
      "text": "polycyclic aromatic hydrocarbons",
      "confidence": 1.0,
      "uuid": "0f103271-339e-42e1-80e3-bf90a8be7084",
      "name": "POLYCYCLIC AROMATIC HYDROCARBONS",
      "url": "https://haz-map.com/Agents/720",
      "category": "agents"
    },
    {
      "type": "name_match",
      "text": "carbon",
      "confidence": 1.0,
      "uuid": "b53f8815-ee80-40ef-b4aa-3b000e17dab5",
      "name": "Carbon",
      "url": "https://haz-map.com/Agents/1891",
      "category": "agents"
    },
    {
      "type": "name_match",
      "text": "2-methylpyrene",
      "confidence": 1.0,
      "uuid": "18539b19-6468-47fc-a8e4-a053c57560f8",
      "name": "2-Methylpyrene",
      "url": "https://haz-map.com/Agents/3141",
      "category": "agents"
    },
    {
      "type": "name_match",
      "text": "pyrene",
      "confidence": 1.0,
      "uuid": "42ce584a-71be-48d4-a37b-0b0a23822638",
      "name": "Pyrene",
      "url": "https://haz-map.com/Agents/7862",
      "category": "agents"
    },
    {
      "type": "fuzzy_match",
      "text": "aromatic hydrocarbons",
      "matched_name": "Aromatic hydrocarbons, C9-C11",
      "confidence": 0.7509578544061303,
      "uuid": "1e86d79b-784d-40c4-8412-39a4432a7a75",
      "category": "agents",
      "url": "https://haz-map.com/Agents/20258"
    },
    {
      "type": "fuzzy_match",
      "text": "hydrocarbons",
      "matched_name": "Hydrocarbons, C>3",
      "confidence": 0.7100840336134454,
      "uuid": "8eaa37ac-3931-44e4-9242-2734127fd661",
      "category": "agents",
      "url": "https://haz-map.com/Agents/14795"
    }
  ],
  "all_links": [
    {
      "text": "Search PubMed",
      "url": "https://www.ncbi.nlm.nih.gov/pubmed?term=2-Methylpyrene%20AND%20human%5Bmh%5D%20AND%20%28Occupational%20Diseases%20%5Bmh%5D%20OR%20Occupational%20Exposure%20%5Bmh%5D%29%20%20AND%20%28tox%5Bsb%5D%29&cmd=search"
    }
  ]
}