{
  "metadata": {
    "scraped_from": "https://haz-map.com/Agents/7677",
    "entity_name": "Undecanol",
    "category": "agents",
    "uuid": "18d3e905-7d10-45d6-9668-e37c137fc551",
    "scraped_at": "2025-07-23T20:15:39.917022"
  },
  "parsed_at": "2025-07-24T00:57:53.007004",
  "title": "Undecanol",
  "sections": {
    "general": {
      "agent_name": {
        "original_name": "Agent Name",
        "value": "Undecanol",
        "links": [],
        "cross_references": [
          {
            "type": "name_match",
            "text": "undecanol",
            "confidence": 1.0,
            "uuid": "18d3e905-7d10-45d6-9668-e37c137fc551",
            "name": "Undecanol",
            "url": "https://haz-map.com/Agents/7677",
            "category": "agents"
          }
        ]
      },
      "cas_number": {
        "original_name": "CAS Number",
        "value": "30207-98-8",
        "links": [],
        "cross_references": []
      },
      "formula": {
        "original_name": "Formula",
        "value": "C11-H24-O",
        "links": [],
        "cross_references": []
      },
      "major_category": {
        "original_name": "Major Category",
        "value": "Solvents",
        "links": [],
        "cross_references": []
      },
      "synonyms": {
        "original_name": "Synonyms",
        "value": "Undecyl alcohol; [ICSC]",
        "links": [],
        "cross_references": []
      },
      "category": {
        "original_name": "Category",
        "value": "Alcohols (<C12)",
        "links": [],
        "cross_references": []
      },
      "description": {
        "original_name": "Description",
        "value": "Colorless liquid; mp = 15.9 deg C; [ICSC]",
        "links": [],
        "cross_references": []
      },
      "sourcesuses": {
        "original_name": "Sources/Uses",
        "value": "Used as intermediate for linear phthalate plasticizers and detergent alcohol ethoxylates; [HSDB]",
        "links": [],
        "cross_references": [
          {
            "type": "name_match",
            "text": "ht",
            "confidence": 1.0,
            "uuid": "764df367-8d53-4a11-81a2-31ccfe122a8d",
            "name": "HT",
            "url": "https://haz-map.com/Agents/2168",
            "category": "agents"
          }
        ]
      },
      "comments": {
        "original_name": "Comments",
        "value": "A skin, respiratory tract, and severe eye irritant; Defats skin; [ICSC] A mild skin and eye irritant; [CAMEO] See \"1-Undecanol.\"",
        "links": [],
        "cross_references": [
          {
            "type": "name_match",
            "text": "1-undecanol",
            "confidence": 1.0,
            "uuid": "db3fcad4-2e71-4aff-b869-8cb689b9094b",
            "name": "1-Undecanol",
            "url": "https://haz-map.com/Agents/2928",
            "category": "agents"
          },
          {
            "type": "name_match",
            "text": "undecanol",
            "confidence": 1.0,
            "uuid": "18d3e905-7d10-45d6-9668-e37c137fc551",
            "name": "Undecanol",
            "url": "https://haz-map.com/Agents/7677",
            "category": "agents"
          }
        ]
      },
      "biomedical_references": {
        "original_name": "Biomedical References",
        "value": "Search PubMed",
        "links": [
          {
            "text": "Search PubMed",
            "url": "https://www.ncbi.nlm.nih.gov/pubmed?term=Undecanol%20AND%20human%5Bmh%5D%20AND%20%28Occupational%20Diseases%20%5Bmh%5D%20OR%20Occupational%20Exposure%20%5Bmh%5D%29%20%20AND%20%28tox%5Bsb%5D%29&cmd=search"
          }
        ],
        "cross_references": []
      }
    },
    "exposure_assessment": {
      "vapor_pressure": {
        "original_name": "Vapor Pressure",
        "value": "0.00297 mm Hg",
        "links": [],
        "cross_references": []
      }
    },
    "adverse_effects": {
      "neurotoxin": {
        "original_name": "Neurotoxin",
        "value": "Acute solvent syndrome",
        "links": [],
        "cross_references": []
      },
      "hepatotoxin": {
        "original_name": "Hepatotoxin",
        "value": "Hepatoxic (a) from occupational exposure (secondary effect) or (b) in animal studies or in humans after ingestion",
        "links": [],
        "cross_references": []
      }
    },
    "diseases_processes_and_activities_linked_to_this_agent": {
      "diseases": {
        "original_name": "Diseases",
        "value": "Occupational diseases associated with exposure to this agent: Solvents, acute toxic effect",
        "links": [
          {
            "text": "Solvents, acute toxic effect",
            "url": "https://haz-map.com/Diseases/326"
          }
        ],
        "cross_references": [
          {
            "type": "url_match",
            "text": "Solvents, acute toxic effect",
            "url": "https://haz-map.com/Diseases/326",
            "confidence": 1.0,
            "uuid": "581e90e3-9d0c-45f0-aa6c-3468c28da129",
            "name": "Solvents, acute toxic effect",
            "category": "diseases"
          }
        ]
      }
    }
  },
  "cross_references": [
    {
      "type": "url_match",
      "text": "Solvents, acute toxic effect",
      "url": "https://haz-map.com/Diseases/326",
      "confidence": 1.0,
      "uuid": "581e90e3-9d0c-45f0-aa6c-3468c28da129",
      "name": "Solvents, acute toxic effect",
      "category": "diseases"
    },
    {
      "type": "name_match",
      "text": "ht",
      "confidence": 1.0,
      "uuid": "764df367-8d53-4a11-81a2-31ccfe122a8d",
      "name": "HT",
      "url": "https://haz-map.com/Agents/2168",
      "category": "agents"
    },
    {
      "type": "name_match",
      "text": "1-undecanol",
      "confidence": 1.0,
      "uuid": "db3fcad4-2e71-4aff-b869-8cb689b9094b",
      "name": "1-Undecanol",
      "url": "https://haz-map.com/Agents/2928",
      "category": "agents"
    },
    {
      "type": "name_match",
      "text": "undecanol",
      "confidence": 1.0,
      "uuid": "18d3e905-7d10-45d6-9668-e37c137fc551",
      "name": "Undecanol",
      "url": "https://haz-map.com/Agents/7677",
      "category": "agents"
    }
  ],
  "all_links": [
    {
      "text": "Search PubMed",
      "url": "https://www.ncbi.nlm.nih.gov/pubmed?term=Undecanol%20AND%20human%5Bmh%5D%20AND%20%28Occupational%20Diseases%20%5Bmh%5D%20OR%20Occupational%20Exposure%20%5Bmh%5D%29%20%20AND%20%28tox%5Bsb%5D%29&cmd=search"
    },
    {
      "text": "Solvents, acute toxic effect",
      "url": "https://haz-map.com/Diseases/326"
    }
  ]
}