{
  "metadata": {
    "scraped_from": "https://haz-map.com/Agents/19200",
    "entity_name": "1,2-Benzenedithiol",
    "category": "agents",
    "uuid": "191e2f03-cc43-4e56-abe0-4c8270a3a00a",
    "scraped_at": "2025-07-23T22:01:18.970525"
  },
  "parsed_at": "2025-07-24T00:58:01.563172",
  "title": "1,2-Benzenedithiol",
  "sections": {
    "general": {
      "agent_name": {
        "original_name": "Agent Name",
        "value": "1,2-Benzenedithiol",
        "links": [],
        "cross_references": [
          {
            "type": "name_match",
            "text": "benzene",
            "confidence": 1.0,
            "uuid": "b05124de-5f34-4c14-8f04-ccb20c3780d9",
            "name": "Benzene",
            "url": "https://haz-map.com/Agents/5",
            "category": "agents"
          },
          {
            "type": "name_match",
            "text": "1,2-benzenedithiol",
            "confidence": 1.0,
            "uuid": "191e2f03-cc43-4e56-abe0-4c8270a3a00a",
            "name": "1,2-Benzenedithiol",
            "url": "https://haz-map.com/Agents/19200",
            "category": "agents"
          }
        ]
      },
      "cas_number": {
        "original_name": "CAS Number",
        "value": "17534-15-5",
        "links": [],
        "cross_references": []
      },
      "formula": {
        "original_name": "Formula",
        "value": "C6-H6-S2",
        "links": [],
        "cross_references": []
      },
      "major_category": {
        "original_name": "Major Category",
        "value": "Other Classes",
        "links": [],
        "cross_references": []
      },
      "synonyms": {
        "original_name": "Synonyms",
        "value": "Benzene-1,2-dithiol; [ChemIDplus]",
        "links": [],
        "cross_references": [
          {
            "type": "name_match",
            "text": "benzene",
            "confidence": 1.0,
            "uuid": "b05124de-5f34-4c14-8f04-ccb20c3780d9",
            "name": "Benzene",
            "url": "https://haz-map.com/Agents/5",
            "category": "agents"
          }
        ]
      },
      "category": {
        "original_name": "Category",
        "value": "Thiols",
        "links": [],
        "cross_references": [
          {
            "type": "name_match",
            "text": "thiols",
            "confidence": 1.0,
            "uuid": "c2e8a59b-9094-4832-9851-2c3cfd1fa8f9",
            "name": "THIOLS",
            "url": "https://haz-map.com/Agents/709",
            "category": "agents"
          }
        ]
      },
      "description": {
        "original_name": "Description",
        "value": "Melting point = 28.5 deg C; [ChemIDplus] White solid with an unpleasant odor; mp = 21-25 deg C; [Alfa Aesar MSDS]",
        "links": [],
        "cross_references": []
      },
      "comments": {
        "original_name": "Comments",
        "value": "An irritant that may cause serious eye injury; Harmful by ingestion, inhalation, and skin absorption; [Alfa Aesar MSDS] See \"Benzenethiol.\"",
        "links": [],
        "cross_references": [
          {
            "type": "name_match",
            "text": "benzene",
            "confidence": 1.0,
            "uuid": "b05124de-5f34-4c14-8f04-ccb20c3780d9",
            "name": "Benzene",
            "url": "https://haz-map.com/Agents/5",
            "category": "agents"
          },
          {
            "type": "name_match",
            "text": "benzenethiol",
            "confidence": 1.0,
            "uuid": "f581ebc3-5b74-4fa4-8b9c-019edd6816d4",
            "name": "Benzenethiol",
            "url": "https://haz-map.com/Agents/183",
            "category": "agents"
          }
        ]
      },
      "biomedical_references": {
        "original_name": "Biomedical References",
        "value": "Search PubMed",
        "links": [
          {
            "text": "Search PubMed",
            "url": "https://www.ncbi.nlm.nih.gov/pubmed?term=1%2c2-Benzenedithiol%20AND%20human%5Bmh%5D%20AND%20%28Occupational%20Diseases%20%5Bmh%5D%20OR%20Occupational%20Exposure%20%5Bmh%5D%29%20%20AND%20%28tox%5Bsb%5D%29&cmd=search"
          }
        ],
        "cross_references": []
      }
    },
    "adverse_effects": {
      "other_poison": {
        "original_name": "Other Poison",
        "value": "Chemical Asphyxiant",
        "links": [],
        "cross_references": [
          {
            "type": "name_match",
            "text": "mica",
            "confidence": 1.0,
            "uuid": "433f26f1-c399-4596-b179-ce3843cfd465",
            "name": "Mica",
            "url": "https://haz-map.com/Agents/621",
            "category": "agents"
          }
        ]
      }
    },
    "diseases_processes_and_activities_linked_to_this_agent": {
      "other_information": {
        "original_name": "Other Information",
        "value": "No other related information on this agent was found.",
        "links": [],
        "cross_references": []
      }
    }
  },
  "cross_references": [
    {
      "type": "name_match",
      "text": "benzene",
      "confidence": 1.0,
      "uuid": "b05124de-5f34-4c14-8f04-ccb20c3780d9",
      "name": "Benzene",
      "url": "https://haz-map.com/Agents/5",
      "category": "agents"
    },
    {
      "type": "name_match",
      "text": "benzenethiol",
      "confidence": 1.0,
      "uuid": "f581ebc3-5b74-4fa4-8b9c-019edd6816d4",
      "name": "Benzenethiol",
      "url": "https://haz-map.com/Agents/183",
      "category": "agents"
    },
    {
      "type": "name_match",
      "text": "mica",
      "confidence": 1.0,
      "uuid": "433f26f1-c399-4596-b179-ce3843cfd465",
      "name": "Mica",
      "url": "https://haz-map.com/Agents/621",
      "category": "agents"
    },
    {
      "type": "name_match",
      "text": "thiols",
      "confidence": 1.0,
      "uuid": "c2e8a59b-9094-4832-9851-2c3cfd1fa8f9",
      "name": "THIOLS",
      "url": "https://haz-map.com/Agents/709",
      "category": "agents"
    },
    {
      "type": "name_match",
      "text": "1,2-benzenedithiol",
      "confidence": 1.0,
      "uuid": "191e2f03-cc43-4e56-abe0-4c8270a3a00a",
      "name": "1,2-Benzenedithiol",
      "url": "https://haz-map.com/Agents/19200",
      "category": "agents"
    }
  ],
  "all_links": [
    {
      "text": "Search PubMed",
      "url": "https://www.ncbi.nlm.nih.gov/pubmed?term=1%2c2-Benzenedithiol%20AND%20human%5Bmh%5D%20AND%20%28Occupational%20Diseases%20%5Bmh%5D%20OR%20Occupational%20Exposure%20%5Bmh%5D%29%20%20AND%20%28tox%5Bsb%5D%29&cmd=search"
    }
  ]
}