{
  "metadata": {
    "scraped_from": "https://haz-map.com/Agents/18204",
    "entity_name": "Vinyltriethoxysilane",
    "category": "agents",
    "uuid": "19cfdd6b-a03e-4d7c-88cf-7c7d300509fb",
    "scraped_at": "2025-07-23T21:53:55.753094"
  },
  "parsed_at": "2025-07-24T01:00:13.256369",
  "title": "Vinyltriethoxysilane",
  "sections": {
    "general": {
      "agent_name": {
        "original_name": "Agent Name",
        "value": "Vinyltriethoxysilane",
        "links": [],
        "cross_references": [
          {
            "type": "name_match",
            "text": "triethoxysilane",
            "confidence": 1.0,
            "uuid": "cc2d9578-700b-45fc-a3d6-bd7b11d4c02b",
            "name": "Triethoxysilane",
            "url": "https://haz-map.com/Agents/7558",
            "category": "agents"
          },
          {
            "type": "name_match",
            "text": "vinyltriethoxysilane",
            "confidence": 1.0,
            "uuid": "19cfdd6b-a03e-4d7c-88cf-7c7d300509fb",
            "name": "Vinyltriethoxysilane",
            "url": "https://haz-map.com/Agents/18204",
            "category": "agents"
          }
        ]
      },
      "cas_number": {
        "original_name": "CAS Number",
        "value": "78-08-0",
        "links": [],
        "cross_references": []
      },
      "formula": {
        "original_name": "Formula",
        "value": "C8-H18-O3-Si",
        "links": [],
        "cross_references": []
      },
      "major_category": {
        "original_name": "Major Category",
        "value": "Metals",
        "links": [],
        "cross_references": []
      },
      "synonyms": {
        "original_name": "Synonyms",
        "value": "Silane, ethenyltriethoxy-; Silane, triethoxyvinyl-; Triethoxy(vinyl)silane; Triethoxyvinyl silane; KBE 1003; NV 1107; Polyscience VTES; Silane A 151; Silane, vinyl triethoxy 1-151; Triethoxyvinylsilane; Triethoxyvinylsilicane; Union Carbide A-151; VTES; VTS-E; [ChemIDplus] Ethenyltriethoxysilane; [REPROTOX] VTEO; [EC: EFSA] UN1993",
        "links": [],
        "cross_references": [
          {
            "type": "name_match",
            "text": "triethoxysilane",
            "confidence": 1.0,
            "uuid": "cc2d9578-700b-45fc-a3d6-bd7b11d4c02b",
            "name": "Triethoxysilane",
            "url": "https://haz-map.com/Agents/7558",
            "category": "agents"
          }
        ]
      },
      "category": {
        "original_name": "Category",
        "value": "Metalloid Compounds (Silicon)",
        "links": [],
        "cross_references": [
          {
            "type": "name_match",
            "text": "silicon",
            "confidence": 1.0,
            "uuid": "443f4405-7a1f-47db-bf43-809557f77483",
            "name": "Silicon",
            "url": "https://haz-map.com/Agents/623",
            "category": "agents"
          }
        ]
      },
      "description": {
        "original_name": "Description",
        "value": "Colorless liquid with a fruity odor; [Alfa Aesar MSDS]",
        "links": [],
        "cross_references": []
      },
      "sourcesuses": {
        "original_name": "Sources/Uses",
        "value": "Used as an adhesive for glass slides; [REPROTOX] Used as a coupling agent on inorganic substances (fillers) blended into polymers that function as adhesion promoters, crosslinkers, and/or surface modifiers; Also used to make general purpose polymers; [ExPub: EC: EFSA]",
        "links": [],
        "cross_references": []
      },
      "comments": {
        "original_name": "Comments",
        "value": "A mild skin and eye irritant; [RTECS] Hydrolyzed by water; A mild skin and strong eye irritant; [Alfa Aesar MSDS] See \"Octamethyltrisiloxane\" and \"Dimethoxydimethylsilane.\"",
        "links": [],
        "cross_references": [
          {
            "type": "name_match",
            "text": "methylsilane",
            "confidence": 1.0,
            "uuid": "477dc5db-fed0-4dc8-8ece-f7392790a3b0",
            "name": "Methylsilane",
            "url": "https://haz-map.com/Agents/8380",
            "category": "agents"
          },
          {
            "type": "name_match",
            "text": "dimethylsilane",
            "confidence": 1.0,
            "uuid": "74897abd-ecfb-41f7-a881-8b3b57e397cf",
            "name": "Dimethylsilane",
            "url": "https://haz-map.com/Agents/13216",
            "category": "agents"
          },
          {
            "type": "name_match",
            "text": "dimethoxydimethylsilane",
            "confidence": 1.0,
            "uuid": "a22d071a-ff07-4849-a827-8618500d8aba",
            "name": "Dimethoxydimethylsilane",
            "url": "https://haz-map.com/Agents/17264",
            "category": "agents"
          },
          {
            "type": "name_match",
            "text": "water",
            "confidence": 1.0,
            "uuid": "6f2a7557-dfd2-49bc-9b4b-a93cd8e225d4",
            "name": "Water",
            "url": "https://haz-map.com/Agents/18668",
            "category": "agents"
          },
          {
            "type": "name_match",
            "text": "octamethyltrisiloxane",
            "confidence": 1.0,
            "uuid": "36653e63-b39d-46de-9306-0146ba30c90c",
            "name": "Octamethyltrisiloxane",
            "url": "https://haz-map.com/Agents/18767",
            "category": "agents"
          }
        ]
      },
      "biomedical_references": {
        "original_name": "Biomedical References",
        "value": "Search PubMed",
        "links": [
          {
            "text": "Search PubMed",
            "url": "https://www.ncbi.nlm.nih.gov/pubmed?term=Vinyltriethoxysilane%20AND%20human%5Bmh%5D%20AND%20%28Occupational%20Diseases%20%5Bmh%5D%20OR%20Occupational%20Exposure%20%5Bmh%5D%29%20%20AND%20%28tox%5Bsb%5D%29&cmd=search"
          }
        ],
        "cross_references": []
      }
    },
    "exposure_assessment": {
      "vapor_pressure": {
        "original_name": "Vapor Pressure",
        "value": "2.28 mm Hg",
        "links": [],
        "cross_references": []
      },
      "lethal_concentration": {
        "original_name": "Lethal Concentration",
        "value": "LCLo (rat) = 4,000 ppm/4hr",
        "links": [],
        "cross_references": []
      },
      "explanatory_notes": {
        "original_name": "Explanatory Notes",
        "value": "The Guide in the Emergency Response Guidebook is for \"Flammable liquid, n.o.s.\"",
        "links": [],
        "cross_references": []
      }
    },
    "diseases_processes_and_activities_linked_to_this_agent": {
      "processes": {
        "original_name": "Processes",
        "value": "Industrial Processes with risk of exposure: Working with Glues and Adhesives",
        "links": [
          {
            "text": "Working with Glues and Adhesives",
            "url": "https://haz-map.com/Processes/155"
          }
        ],
        "cross_references": [
          {
            "type": "url_match",
            "text": "Working with Glues and Adhesives",
            "url": "https://haz-map.com/Processes/155",
            "confidence": 1.0,
            "uuid": "acb9084f-52e8-4687-bd6a-bced94bda834",
            "name": "Working with Glues and Adhesives",
            "category": "processes"
          }
        ]
      }
    }
  },
  "cross_references": [
    {
      "type": "url_match",
      "text": "Working with Glues and Adhesives",
      "url": "https://haz-map.com/Processes/155",
      "confidence": 1.0,
      "uuid": "acb9084f-52e8-4687-bd6a-bced94bda834",
      "name": "Working with Glues and Adhesives",
      "category": "processes"
    },
    {
      "type": "name_match",
      "text": "silicon",
      "confidence": 1.0,
      "uuid": "443f4405-7a1f-47db-bf43-809557f77483",
      "name": "Silicon",
      "url": "https://haz-map.com/Agents/623",
      "category": "agents"
    },
    {
      "type": "name_match",
      "text": "triethoxysilane",
      "confidence": 1.0,
      "uuid": "cc2d9578-700b-45fc-a3d6-bd7b11d4c02b",
      "name": "Triethoxysilane",
      "url": "https://haz-map.com/Agents/7558",
      "category": "agents"
    },
    {
      "type": "name_match",
      "text": "methylsilane",
      "confidence": 1.0,
      "uuid": "477dc5db-fed0-4dc8-8ece-f7392790a3b0",
      "name": "Methylsilane",
      "url": "https://haz-map.com/Agents/8380",
      "category": "agents"
    },
    {
      "type": "name_match",
      "text": "dimethylsilane",
      "confidence": 1.0,
      "uuid": "74897abd-ecfb-41f7-a881-8b3b57e397cf",
      "name": "Dimethylsilane",
      "url": "https://haz-map.com/Agents/13216",
      "category": "agents"
    },
    {
      "type": "name_match",
      "text": "dimethoxydimethylsilane",
      "confidence": 1.0,
      "uuid": "a22d071a-ff07-4849-a827-8618500d8aba",
      "name": "Dimethoxydimethylsilane",
      "url": "https://haz-map.com/Agents/17264",
      "category": "agents"
    },
    {
      "type": "name_match",
      "text": "vinyltriethoxysilane",
      "confidence": 1.0,
      "uuid": "19cfdd6b-a03e-4d7c-88cf-7c7d300509fb",
      "name": "Vinyltriethoxysilane",
      "url": "https://haz-map.com/Agents/18204",
      "category": "agents"
    },
    {
      "type": "name_match",
      "text": "water",
      "confidence": 1.0,
      "uuid": "6f2a7557-dfd2-49bc-9b4b-a93cd8e225d4",
      "name": "Water",
      "url": "https://haz-map.com/Agents/18668",
      "category": "agents"
    },
    {
      "type": "name_match",
      "text": "octamethyltrisiloxane",
      "confidence": 1.0,
      "uuid": "36653e63-b39d-46de-9306-0146ba30c90c",
      "name": "Octamethyltrisiloxane",
      "url": "https://haz-map.com/Agents/18767",
      "category": "agents"
    }
  ],
  "all_links": [
    {
      "text": "Search PubMed",
      "url": "https://www.ncbi.nlm.nih.gov/pubmed?term=Vinyltriethoxysilane%20AND%20human%5Bmh%5D%20AND%20%28Occupational%20Diseases%20%5Bmh%5D%20OR%20Occupational%20Exposure%20%5Bmh%5D%29%20%20AND%20%28tox%5Bsb%5D%29&cmd=search"
    },
    {
      "text": "Working with Glues and Adhesives",
      "url": "https://haz-map.com/Processes/155"
    }
  ]
}