{
  "metadata": {
    "scraped_from": "https://haz-map.com/Agents/19023",
    "entity_name": "Dipropylene glycol monopropyl ether",
    "category": "agents",
    "uuid": "1a5d4a00-9ced-4d2b-be11-b37ebf1365f1",
    "scraped_at": "2025-07-23T21:58:20.334849"
  },
  "parsed_at": "2025-07-24T01:05:52.797809",
  "title": "Dipropylene glycol monopropyl ether",
  "sections": {
    "general": {
      "agent_name": {
        "original_name": "Agent Name",
        "value": "Dipropylene glycol monopropyl ether",
        "links": [],
        "cross_references": [
          {
            "type": "name_match",
            "text": "propylene glycol",
            "confidence": 1.0,
            "uuid": "6d7c61db-8aa2-442e-b6c7-8a0385ab77da",
            "name": "Propylene glycol",
            "url": "https://haz-map.com/Agents/685",
            "category": "agents"
          },
          {
            "type": "name_match",
            "text": "propylene",
            "confidence": 1.0,
            "uuid": "78ac73a1-0029-4a50-b283-561134c72041",
            "name": "Propylene",
            "url": "https://haz-map.com/Agents/1078",
            "category": "agents"
          },
          {
            "type": "name_match",
            "text": "propyl ether",
            "confidence": 1.0,
            "uuid": "d7fd5f45-8c96-4f89-94a6-41e51c92487e",
            "name": "Propyl ether",
            "url": "https://haz-map.com/Agents/1481",
            "category": "agents"
          },
          {
            "type": "name_match",
            "text": "dipropylene glycol",
            "confidence": 1.0,
            "uuid": "8ad9d047-cf9b-4bef-9d12-1c54639059b9",
            "name": "Dipropylene glycol",
            "url": "https://haz-map.com/Agents/5009",
            "category": "agents"
          },
          {
            "type": "name_match",
            "text": "dipropylene glycol monopropyl ether",
            "confidence": 1.0,
            "uuid": "1a5d4a00-9ced-4d2b-be11-b37ebf1365f1",
            "name": "Dipropylene glycol monopropyl ether",
            "url": "https://haz-map.com/Agents/19023",
            "category": "agents"
          }
        ]
      },
      "alternative_name": {
        "original_name": "Alternative Name",
        "value": "DnPGE",
        "links": [],
        "cross_references": []
      },
      "cas_number": {
        "original_name": "CAS Number",
        "value": "29911-27-1",
        "links": [],
        "cross_references": []
      },
      "formula": {
        "original_name": "Formula",
        "value": "C9-H20-O3",
        "links": [],
        "cross_references": []
      },
      "major_category": {
        "original_name": "Major Category",
        "value": "Solvents",
        "links": [],
        "cross_references": []
      },
      "synonyms": {
        "original_name": "Synonyms",
        "value": "DnPGE; [Glycol Ethers Online] 2-Propanol, 1-(1-methyl-2-propoxyethoxy)-; Propyl dipropasol solvent; 1-(1-Methyl-2-propoxyethoxy)propan-2-ol; 2-Propanol, 1-(2-propoxy-1-methylethoxy)-; [ChemIDplus] DPGPE; Dipropylene glycol (mono) propyl ether; [ECETOC] Di(propylene glycol) propyl ether, mixture of isomers; Dowanol DPnP; [Sigma-Aldrich MSDS] DOWANOL DPNP GLYCOL ETHER; Dipropylene glycol n-propyl ether; [Dow Chemical MSDS] UN1993",
        "links": [],
        "cross_references": [
          {
            "type": "name_match",
            "text": "mica",
            "confidence": 1.0,
            "uuid": "433f26f1-c399-4596-b179-ce3843cfd465",
            "name": "Mica",
            "url": "https://haz-map.com/Agents/621",
            "category": "agents"
          },
          {
            "type": "name_match",
            "text": "propylene glycol",
            "confidence": 1.0,
            "uuid": "6d7c61db-8aa2-442e-b6c7-8a0385ab77da",
            "name": "Propylene glycol",
            "url": "https://haz-map.com/Agents/685",
            "category": "agents"
          },
          {
            "type": "name_match",
            "text": "glycol ethers",
            "confidence": 1.0,
            "uuid": "753cf9f5-dc59-44ba-9fd6-38aca4a3cdac",
            "name": "GLYCOL ETHERS",
            "url": "https://haz-map.com/Agents/688",
            "category": "agents"
          },
          {
            "type": "name_match",
            "text": "propylene",
            "confidence": 1.0,
            "uuid": "78ac73a1-0029-4a50-b283-561134c72041",
            "name": "Propylene",
            "url": "https://haz-map.com/Agents/1078",
            "category": "agents"
          },
          {
            "type": "name_match",
            "text": "propyl ether",
            "confidence": 1.0,
            "uuid": "d7fd5f45-8c96-4f89-94a6-41e51c92487e",
            "name": "Propyl ether",
            "url": "https://haz-map.com/Agents/1481",
            "category": "agents"
          },
          {
            "type": "name_match",
            "text": "dipropylene glycol",
            "confidence": 1.0,
            "uuid": "8ad9d047-cf9b-4bef-9d12-1c54639059b9",
            "name": "Dipropylene glycol",
            "url": "https://haz-map.com/Agents/5009",
            "category": "agents"
          }
        ]
      },
      "category": {
        "original_name": "Category",
        "value": "Glycol Ethers (P Series)",
        "links": [],
        "cross_references": [
          {
            "type": "name_match",
            "text": "glycol ethers",
            "confidence": 1.0,
            "uuid": "753cf9f5-dc59-44ba-9fd6-38aca4a3cdac",
            "name": "GLYCOL ETHERS",
            "url": "https://haz-map.com/Agents/688",
            "category": "agents"
          }
        ]
      },
      "description": {
        "original_name": "Description",
        "value": "Colorless liquid with an odor of ether; [Dow Chemical MSDS]",
        "links": [],
        "cross_references": [
          {
            "type": "name_match",
            "text": "mica",
            "confidence": 1.0,
            "uuid": "433f26f1-c399-4596-b179-ce3843cfd465",
            "name": "Mica",
            "url": "https://haz-map.com/Agents/621",
            "category": "agents"
          }
        ]
      },
      "sourcesuses": {
        "original_name": "Sources/Uses",
        "value": "Used as an industrial solvent for cleaning and coating applications; [Dow Chemical MSDS]",
        "links": [],
        "cross_references": [
          {
            "type": "name_match",
            "text": "mica",
            "confidence": 1.0,
            "uuid": "433f26f1-c399-4596-b179-ce3843cfd465",
            "name": "Mica",
            "url": "https://haz-map.com/Agents/621",
            "category": "agents"
          }
        ]
      },
      "comments": {
        "original_name": "Comments",
        "value": "Irritating to skin and eyes in rabbits with resolution by day 7; Increased liver weight in males (no histopathological changes) observed in 2-week and 13-week oral studies of rats; [ToxPlanet: ECETOC] Increased post-implantation loss, slight increase in gestation survival, and slightly decreased litter size observed in oral reproductive/developmental study of rats at 1,000 mg/kg/day; [EPA - TSCATS] Causes ataxia and lung changes in oral lethal-dose studies of rats; [RTECS] May cause moderate eye irritation and mild corneal injury; [Dow Chemical MSDS]",
        "links": [],
        "cross_references": [
          {
            "type": "name_match",
            "text": "mica",
            "confidence": 1.0,
            "uuid": "433f26f1-c399-4596-b179-ce3843cfd465",
            "name": "Mica",
            "url": "https://haz-map.com/Agents/621",
            "category": "agents"
          },
          {
            "type": "name_match",
            "text": "ht",
            "confidence": 1.0,
            "uuid": "764df367-8d53-4a11-81a2-31ccfe122a8d",
            "name": "HT",
            "url": "https://haz-map.com/Agents/2168",
            "category": "agents"
          }
        ]
      },
      "biomedical_references": {
        "original_name": "Biomedical References",
        "value": "Search PubMed",
        "links": [
          {
            "text": "Search PubMed",
            "url": "https://www.ncbi.nlm.nih.gov/pubmed?term=Dipropylene+glycol+monopropyl+ether%20AND%20human%5Bmh%5D%20AND%20%28Occupational%20Diseases%20%5Bmh%5D%20OR%20Occupational%20Exposure%20%5Bmh%5D%29%20%20AND%20%28tox%5Bsb%5D%29&cmd=search"
          }
        ],
        "cross_references": []
      }
    },
    "exposure_assessment": {
      "vapor_pressure": {
        "original_name": "Vapor Pressure",
        "value": "0.08 mm Hg",
        "links": [],
        "cross_references": []
      },
      "explanatory_notes": {
        "original_name": "Explanatory Notes",
        "value": "The Guide in the Emergency Response Guidebook is for \"Combustible liquid, n.o.s.\"",
        "links": [],
        "cross_references": []
      }
    },
    "adverse_effects": {
      "neurotoxin": {
        "original_name": "Neurotoxin",
        "value": "Acute solvent syndrome",
        "links": [],
        "cross_references": []
      }
    },
    "diseases_processes_and_activities_linked_to_this_agent": {
      "diseases": {
        "original_name": "Diseases",
        "value": "Occupational diseases associated with exposure to this agent: Encephalopathy, chronic solvent Solvents, acute toxic effect",
        "links": [
          {
            "text": "Encephalopathy, chronic solvent",
            "url": "https://haz-map.com/Diseases/325"
          },
          {
            "text": "Solvents, acute toxic effect",
            "url": "https://haz-map.com/Diseases/326"
          }
        ],
        "cross_references": [
          {
            "type": "url_match",
            "text": "Encephalopathy, chronic solvent",
            "url": "https://haz-map.com/Diseases/325",
            "confidence": 1.0,
            "uuid": "589ad578-4636-444e-8823-bf2dd0c7aeab",
            "name": "Encephalopathy, chronic solvent",
            "category": "diseases"
          },
          {
            "type": "url_match",
            "text": "Solvents, acute toxic effect",
            "url": "https://haz-map.com/Diseases/326",
            "confidence": 1.0,
            "uuid": "581e90e3-9d0c-45f0-aa6c-3468c28da129",
            "name": "Solvents, acute toxic effect",
            "category": "diseases"
          }
        ]
      },
      "processes": {
        "original_name": "Processes",
        "value": "Industrial Processes with risk of exposure: Metal Degreasing Painting (Solvents)",
        "links": [
          {
            "text": "Metal Degreasing",
            "url": "https://haz-map.com/Processes/9"
          },
          {
            "text": "Painting (Solvents)",
            "url": "https://haz-map.com/Processes/142"
          }
        ],
        "cross_references": [
          {
            "type": "url_match",
            "text": "Metal Degreasing",
            "url": "https://haz-map.com/Processes/9",
            "confidence": 1.0,
            "uuid": "7f7d1988-b456-403f-a356-245ce5458f96",
            "name": "Metal Degreasing",
            "category": "processes"
          },
          {
            "type": "url_match",
            "text": "Painting (Solvents)",
            "url": "https://haz-map.com/Processes/142",
            "confidence": 1.0,
            "uuid": "ca747481-4da1-4550-a546-f0d43a41b46c",
            "name": "Painting (Solvents)",
            "category": "processes"
          },
          {
            "type": "name_match",
            "text": "painting",
            "confidence": 1.0,
            "uuid": "19816ce9-9edf-4a86-8e64-b0cbf7dcf520",
            "name": "Painting",
            "url": "https://haz-map.com/Activities/9",
            "category": "activities"
          }
        ]
      }
    }
  },
  "cross_references": [
    {
      "type": "url_match",
      "text": "Encephalopathy, chronic solvent",
      "url": "https://haz-map.com/Diseases/325",
      "confidence": 1.0,
      "uuid": "589ad578-4636-444e-8823-bf2dd0c7aeab",
      "name": "Encephalopathy, chronic solvent",
      "category": "diseases"
    },
    {
      "type": "url_match",
      "text": "Solvents, acute toxic effect",
      "url": "https://haz-map.com/Diseases/326",
      "confidence": 1.0,
      "uuid": "581e90e3-9d0c-45f0-aa6c-3468c28da129",
      "name": "Solvents, acute toxic effect",
      "category": "diseases"
    },
    {
      "type": "url_match",
      "text": "Metal Degreasing",
      "url": "https://haz-map.com/Processes/9",
      "confidence": 1.0,
      "uuid": "7f7d1988-b456-403f-a356-245ce5458f96",
      "name": "Metal Degreasing",
      "category": "processes"
    },
    {
      "type": "url_match",
      "text": "Painting (Solvents)",
      "url": "https://haz-map.com/Processes/142",
      "confidence": 1.0,
      "uuid": "ca747481-4da1-4550-a546-f0d43a41b46c",
      "name": "Painting (Solvents)",
      "category": "processes"
    },
    {
      "type": "name_match",
      "text": "painting",
      "confidence": 1.0,
      "uuid": "19816ce9-9edf-4a86-8e64-b0cbf7dcf520",
      "name": "Painting",
      "url": "https://haz-map.com/Activities/9",
      "category": "activities"
    },
    {
      "type": "name_match",
      "text": "mica",
      "confidence": 1.0,
      "uuid": "433f26f1-c399-4596-b179-ce3843cfd465",
      "name": "Mica",
      "url": "https://haz-map.com/Agents/621",
      "category": "agents"
    },
    {
      "type": "name_match",
      "text": "propylene glycol",
      "confidence": 1.0,
      "uuid": "6d7c61db-8aa2-442e-b6c7-8a0385ab77da",
      "name": "Propylene glycol",
      "url": "https://haz-map.com/Agents/685",
      "category": "agents"
    },
    {
      "type": "name_match",
      "text": "glycol ethers",
      "confidence": 1.0,
      "uuid": "753cf9f5-dc59-44ba-9fd6-38aca4a3cdac",
      "name": "GLYCOL ETHERS",
      "url": "https://haz-map.com/Agents/688",
      "category": "agents"
    },
    {
      "type": "name_match",
      "text": "propylene",
      "confidence": 1.0,
      "uuid": "78ac73a1-0029-4a50-b283-561134c72041",
      "name": "Propylene",
      "url": "https://haz-map.com/Agents/1078",
      "category": "agents"
    },
    {
      "type": "name_match",
      "text": "propyl ether",
      "confidence": 1.0,
      "uuid": "d7fd5f45-8c96-4f89-94a6-41e51c92487e",
      "name": "Propyl ether",
      "url": "https://haz-map.com/Agents/1481",
      "category": "agents"
    },
    {
      "type": "name_match",
      "text": "ht",
      "confidence": 1.0,
      "uuid": "764df367-8d53-4a11-81a2-31ccfe122a8d",
      "name": "HT",
      "url": "https://haz-map.com/Agents/2168",
      "category": "agents"
    },
    {
      "type": "name_match",
      "text": "dipropylene glycol",
      "confidence": 1.0,
      "uuid": "8ad9d047-cf9b-4bef-9d12-1c54639059b9",
      "name": "Dipropylene glycol",
      "url": "https://haz-map.com/Agents/5009",
      "category": "agents"
    },
    {
      "type": "name_match",
      "text": "dipropylene glycol monopropyl ether",
      "confidence": 1.0,
      "uuid": "1a5d4a00-9ced-4d2b-be11-b37ebf1365f1",
      "name": "Dipropylene glycol monopropyl ether",
      "url": "https://haz-map.com/Agents/19023",
      "category": "agents"
    }
  ],
  "all_links": [
    {
      "text": "Search PubMed",
      "url": "https://www.ncbi.nlm.nih.gov/pubmed?term=Dipropylene+glycol+monopropyl+ether%20AND%20human%5Bmh%5D%20AND%20%28Occupational%20Diseases%20%5Bmh%5D%20OR%20Occupational%20Exposure%20%5Bmh%5D%29%20%20AND%20%28tox%5Bsb%5D%29&cmd=search"
    },
    {
      "text": "Encephalopathy, chronic solvent",
      "url": "https://haz-map.com/Diseases/325"
    },
    {
      "text": "Solvents, acute toxic effect",
      "url": "https://haz-map.com/Diseases/326"
    },
    {
      "text": "Metal Degreasing",
      "url": "https://haz-map.com/Processes/9"
    },
    {
      "text": "Painting (Solvents)",
      "url": "https://haz-map.com/Processes/142"
    }
  ]
}