{
  "metadata": {
    "scraped_from": "https://haz-map.com/Agents/3065",
    "entity_name": "2-Aminobenzothiazole",
    "category": "agents",
    "uuid": "1abc9095-a1fb-40ae-bc11-b769b761e0e5",
    "scraped_at": "2025-07-23T19:23:34.536036"
  },
  "parsed_at": "2025-07-24T00:56:33.727059",
  "title": "2-Aminobenzothiazole",
  "sections": {
    "general": {
      "agent_name": {
        "original_name": "Agent Name",
        "value": "2-Aminobenzothiazole",
        "links": [],
        "cross_references": [
          {
            "type": "name_match",
            "text": "2-aminobenzothiazole",
            "confidence": 1.0,
            "uuid": "1abc9095-a1fb-40ae-bc11-b769b761e0e5",
            "name": "2-Aminobenzothiazole",
            "url": "https://haz-map.com/Agents/3065",
            "category": "agents"
          },
          {
            "type": "name_match",
            "text": "benzothiazole",
            "confidence": 1.0,
            "uuid": "6c7cc5de-c267-4997-9bab-ec67f286b5bb",
            "name": "Benzothiazole",
            "url": "https://haz-map.com/Agents/3866",
            "category": "agents"
          },
          {
            "type": "name_match",
            "text": "thiazole",
            "confidence": 1.0,
            "uuid": "239903f2-a226-4a4b-bc83-285f21b9610c",
            "name": "Thiazole",
            "url": "https://haz-map.com/Agents/17380",
            "category": "agents"
          }
        ]
      },
      "cas_number": {
        "original_name": "CAS Number",
        "value": "136-95-8",
        "links": [],
        "cross_references": []
      },
      "formula": {
        "original_name": "Formula",
        "value": "C7-H6-N2-S",
        "links": [],
        "cross_references": []
      },
      "major_category": {
        "original_name": "Major Category",
        "value": "Nitrogen Compounds",
        "links": [],
        "cross_references": [
          {
            "type": "name_match",
            "text": "nitrogen",
            "confidence": 1.0,
            "uuid": "db5e90a9-06d2-45b9-8b81-f345a89b0bc0",
            "name": "Nitrogen",
            "url": "https://haz-map.com/Agents/1072",
            "category": "agents"
          }
        ]
      },
      "synonyms": {
        "original_name": "Synonyms",
        "value": "2(3H)-Benzothiazolimine; 2-Aminobenzthiazole; 2-Benzothiazolamine; 2-Benzothiazolylamine; 2-Iminobenzothiazoline; Benzothiazole, 2-amino-; o-Aminobenzothiazole; [ChemIDplus]",
        "links": [],
        "cross_references": [
          {
            "type": "name_match",
            "text": "benzothiazole",
            "confidence": 1.0,
            "uuid": "6c7cc5de-c267-4997-9bab-ec67f286b5bb",
            "name": "Benzothiazole",
            "url": "https://haz-map.com/Agents/3866",
            "category": "agents"
          },
          {
            "type": "name_match",
            "text": "thiazole",
            "confidence": 1.0,
            "uuid": "239903f2-a226-4a4b-bc83-285f21b9610c",
            "name": "Thiazole",
            "url": "https://haz-map.com/Agents/17380",
            "category": "agents"
          }
        ]
      },
      "category": {
        "original_name": "Category",
        "value": "Thiazoles",
        "links": [],
        "cross_references": [
          {
            "type": "name_match",
            "text": "thiazole",
            "confidence": 1.0,
            "uuid": "239903f2-a226-4a4b-bc83-285f21b9610c",
            "name": "Thiazole",
            "url": "https://haz-map.com/Agents/17380",
            "category": "agents"
          }
        ]
      },
      "description": {
        "original_name": "Description",
        "value": "Gray to white odorless solid; [CAMEO] Off-white crystalline powder; [Alfa Aesar MSDS]",
        "links": [],
        "cross_references": [
          {
            "type": "fuzzy_match",
            "text": "crystalline",
            "matched_name": "Silica, crystalline",
            "confidence": 0.7061403508771931,
            "uuid": "f920e8a2-46df-41b7-af8d-0368a777251e",
            "category": "agents",
            "url": "https://haz-map.com/Agents/427"
          }
        ]
      },
      "sourcesuses": {
        "original_name": "Sources/Uses",
        "value": "Used in photographic chemicals and as an azo dye intermediate; [HSDB]",
        "links": [],
        "cross_references": [
          {
            "type": "name_match",
            "text": "mica",
            "confidence": 1.0,
            "uuid": "433f26f1-c399-4596-b179-ce3843cfd465",
            "name": "Mica",
            "url": "https://haz-map.com/Agents/621",
            "category": "agents"
          }
        ]
      },
      "comments": {
        "original_name": "Comments",
        "value": "May cause skin, eye, and respiratory tract irritation; [CAMEO] A skin and strong eye irritant; [Alfa Aesar MSDS]",
        "links": [],
        "cross_references": []
      },
      "biomedical_references": {
        "original_name": "Biomedical References",
        "value": "Search PubMed",
        "links": [
          {
            "text": "Search PubMed",
            "url": "https://www.ncbi.nlm.nih.gov/pubmed?term=2-Aminobenzothiazole%20AND%20human%5Bmh%5D%20AND%20%28Occupational%20Diseases%20%5Bmh%5D%20OR%20Occupational%20Exposure%20%5Bmh%5D%29%20%20AND%20%28tox%5Bsb%5D%29&cmd=search"
          }
        ],
        "cross_references": []
      }
    },
    "exposure_assessment": {
      "vapor_pressure": {
        "original_name": "Vapor Pressure",
        "value": "0.000112 mm Hg",
        "links": [],
        "cross_references": []
      }
    },
    "diseases_processes_and_activities_linked_to_this_agent": {
      "processes": {
        "original_name": "Processes",
        "value": "Industrial Processes with risk of exposure: Photographic Processing",
        "links": [
          {
            "text": "Photographic Processing",
            "url": "https://haz-map.com/Processes/231"
          }
        ],
        "cross_references": []
      }
    }
  },
  "cross_references": [
    {
      "type": "name_match",
      "text": "mica",
      "confidence": 1.0,
      "uuid": "433f26f1-c399-4596-b179-ce3843cfd465",
      "name": "Mica",
      "url": "https://haz-map.com/Agents/621",
      "category": "agents"
    },
    {
      "type": "name_match",
      "text": "nitrogen",
      "confidence": 1.0,
      "uuid": "db5e90a9-06d2-45b9-8b81-f345a89b0bc0",
      "name": "Nitrogen",
      "url": "https://haz-map.com/Agents/1072",
      "category": "agents"
    },
    {
      "type": "name_match",
      "text": "2-aminobenzothiazole",
      "confidence": 1.0,
      "uuid": "1abc9095-a1fb-40ae-bc11-b769b761e0e5",
      "name": "2-Aminobenzothiazole",
      "url": "https://haz-map.com/Agents/3065",
      "category": "agents"
    },
    {
      "type": "name_match",
      "text": "benzothiazole",
      "confidence": 1.0,
      "uuid": "6c7cc5de-c267-4997-9bab-ec67f286b5bb",
      "name": "Benzothiazole",
      "url": "https://haz-map.com/Agents/3866",
      "category": "agents"
    },
    {
      "type": "name_match",
      "text": "thiazole",
      "confidence": 1.0,
      "uuid": "239903f2-a226-4a4b-bc83-285f21b9610c",
      "name": "Thiazole",
      "url": "https://haz-map.com/Agents/17380",
      "category": "agents"
    },
    {
      "type": "fuzzy_match",
      "text": "crystalline",
      "matched_name": "Silica, crystalline",
      "confidence": 0.7061403508771931,
      "uuid": "f920e8a2-46df-41b7-af8d-0368a777251e",
      "category": "agents",
      "url": "https://haz-map.com/Agents/427"
    }
  ],
  "all_links": [
    {
      "text": "Search PubMed",
      "url": "https://www.ncbi.nlm.nih.gov/pubmed?term=2-Aminobenzothiazole%20AND%20human%5Bmh%5D%20AND%20%28Occupational%20Diseases%20%5Bmh%5D%20OR%20Occupational%20Exposure%20%5Bmh%5D%29%20%20AND%20%28tox%5Bsb%5D%29&cmd=search"
    },
    {
      "text": "Photographic Processing",
      "url": "https://haz-map.com/Processes/231"
    }
  ]
}