{
  "metadata": {
    "scraped_from": "https://haz-map.com/Agents/1527",
    "entity_name": "Sodium",
    "category": "agents",
    "uuid": "1adffc42-a4d8-44d5-81d6-7dbd96ef8a6f",
    "scraped_at": "2025-07-23T19:00:44.401450"
  },
  "parsed_at": "2025-07-24T01:13:19.700301",
  "title": "Sodium",
  "sections": {
    "general": {
      "agent_name": {
        "original_name": "Agent Name",
        "value": "Sodium",
        "links": [],
        "cross_references": [
          {
            "type": "name_match",
            "text": "sodium",
            "confidence": 1.0,
            "uuid": "1adffc42-a4d8-44d5-81d6-7dbd96ef8a6f",
            "name": "Sodium",
            "url": "https://haz-map.com/Agents/1527",
            "category": "agents"
          }
        ]
      },
      "cas_number": {
        "original_name": "CAS Number",
        "value": "7440-23-5",
        "links": [],
        "cross_references": []
      },
      "formula": {
        "original_name": "Formula",
        "value": "Na",
        "links": [],
        "cross_references": []
      },
      "major_category": {
        "original_name": "Major Category",
        "value": "Metals",
        "links": [],
        "cross_references": []
      },
      "category": {
        "original_name": "Category",
        "value": "Elements, Metallic",
        "links": [],
        "cross_references": []
      },
      "description": {
        "original_name": "Description",
        "value": "Silver to grayish-white, soft solid under kerosene; [CHRIS]",
        "links": [],
        "cross_references": [
          {
            "type": "name_match",
            "text": "silver",
            "confidence": 1.0,
            "uuid": "d8f69733-c0d2-4da6-9251-c7848c2137d2",
            "name": "Silver",
            "url": "https://haz-map.com/Agents/40",
            "category": "agents"
          },
          {
            "type": "name_match",
            "text": "kerosene",
            "confidence": 1.0,
            "uuid": "0b2c968d-26dc-4602-8302-50afd6b4b871",
            "name": "Kerosene",
            "url": "https://haz-map.com/Agents/172",
            "category": "agents"
          }
        ]
      },
      "comments": {
        "original_name": "Comments",
        "value": "Can cause second or third degree burns after brief skin contact. [CHRIS] Reacts violently with water releasing hydrogen gas, which will ignite and explode in air; Reacts rapidly with moisture in air or tissues to form caustic sodium hydroxide; [CHEMINFO MSDS]",
        "links": [],
        "cross_references": [
          {
            "type": "name_match",
            "text": "burn",
            "confidence": 1.0,
            "uuid": "63665de5-6376-4918-8dbf-4c10c4d63837",
            "name": "burn",
            "url": "https://haz-map.com/Findings/204",
            "category": "findings"
          },
          {
            "type": "name_match",
            "text": "sodium hydroxide",
            "confidence": 1.0,
            "uuid": "4fb9e995-e7f4-47d6-9017-957326f69493",
            "name": "Sodium hydroxide",
            "url": "https://haz-map.com/Agents/628",
            "category": "agents"
          },
          {
            "type": "name_match",
            "text": "hydrogen",
            "confidence": 1.0,
            "uuid": "e2d9645f-5559-4d88-b820-fc4710c154f2",
            "name": "Hydrogen",
            "url": "https://haz-map.com/Agents/1070",
            "category": "agents"
          },
          {
            "type": "name_match",
            "text": "sodium",
            "confidence": 1.0,
            "uuid": "1adffc42-a4d8-44d5-81d6-7dbd96ef8a6f",
            "name": "Sodium",
            "url": "https://haz-map.com/Agents/1527",
            "category": "agents"
          },
          {
            "type": "name_match",
            "text": "water",
            "confidence": 1.0,
            "uuid": "6f2a7557-dfd2-49bc-9b4b-a93cd8e225d4",
            "name": "Water",
            "url": "https://haz-map.com/Agents/18668",
            "category": "agents"
          }
        ]
      },
      "biomedical_references": {
        "original_name": "Biomedical References",
        "value": "Search PubMed",
        "links": [
          {
            "text": "Search PubMed",
            "url": "https://www.ncbi.nlm.nih.gov/pubmed?term=Sodium%20AND%20human%5Bmh%5D%20AND%20%28Occupational%20Diseases%20%5Bmh%5D%20OR%20Occupational%20Exposure%20%5Bmh%5D%29%20%20AND%20%28tox%5Bsb%5D%29&cmd=search"
          }
        ],
        "cross_references": []
      }
    },
    "exposure_assessment": {
      "vapor_pressure": {
        "original_name": "Vapor Pressure",
        "value": "1.2 mm Hg",
        "links": [],
        "cross_references": []
      },
      "nfpa": {
        "original_name": "NFPA",
        "value": "may ignite at ambient temp",
        "links": [],
        "cross_references": []
      }
    },
    "adverse_effects": {
      "dermatotoxin": {
        "original_name": "Dermatotoxin",
        "value": "Skin burns",
        "links": [],
        "cross_references": [
          {
            "type": "name_match",
            "text": "burn",
            "confidence": 1.0,
            "uuid": "63665de5-6376-4918-8dbf-4c10c4d63837",
            "name": "burn",
            "url": "https://haz-map.com/Findings/204",
            "category": "findings"
          }
        ]
      }
    },
    "diseases_processes_and_activities_linked_to_this_agent": {
      "other_information": {
        "original_name": "Other Information",
        "value": "No other related information on this agent was found.",
        "links": [],
        "cross_references": []
      }
    }
  },
  "cross_references": [
    {
      "type": "name_match",
      "text": "burn",
      "confidence": 1.0,
      "uuid": "63665de5-6376-4918-8dbf-4c10c4d63837",
      "name": "burn",
      "url": "https://haz-map.com/Findings/204",
      "category": "findings"
    },
    {
      "type": "name_match",
      "text": "silver",
      "confidence": 1.0,
      "uuid": "d8f69733-c0d2-4da6-9251-c7848c2137d2",
      "name": "Silver",
      "url": "https://haz-map.com/Agents/40",
      "category": "agents"
    },
    {
      "type": "name_match",
      "text": "kerosene",
      "confidence": 1.0,
      "uuid": "0b2c968d-26dc-4602-8302-50afd6b4b871",
      "name": "Kerosene",
      "url": "https://haz-map.com/Agents/172",
      "category": "agents"
    },
    {
      "type": "name_match",
      "text": "sodium hydroxide",
      "confidence": 1.0,
      "uuid": "4fb9e995-e7f4-47d6-9017-957326f69493",
      "name": "Sodium hydroxide",
      "url": "https://haz-map.com/Agents/628",
      "category": "agents"
    },
    {
      "type": "name_match",
      "text": "hydrogen",
      "confidence": 1.0,
      "uuid": "e2d9645f-5559-4d88-b820-fc4710c154f2",
      "name": "Hydrogen",
      "url": "https://haz-map.com/Agents/1070",
      "category": "agents"
    },
    {
      "type": "name_match",
      "text": "sodium",
      "confidence": 1.0,
      "uuid": "1adffc42-a4d8-44d5-81d6-7dbd96ef8a6f",
      "name": "Sodium",
      "url": "https://haz-map.com/Agents/1527",
      "category": "agents"
    },
    {
      "type": "name_match",
      "text": "water",
      "confidence": 1.0,
      "uuid": "6f2a7557-dfd2-49bc-9b4b-a93cd8e225d4",
      "name": "Water",
      "url": "https://haz-map.com/Agents/18668",
      "category": "agents"
    }
  ],
  "all_links": [
    {
      "text": "Search PubMed",
      "url": "https://www.ncbi.nlm.nih.gov/pubmed?term=Sodium%20AND%20human%5Bmh%5D%20AND%20%28Occupational%20Diseases%20%5Bmh%5D%20OR%20Occupational%20Exposure%20%5Bmh%5D%29%20%20AND%20%28tox%5Bsb%5D%29&cmd=search"
    }
  ]
}