{
  "metadata": {
    "scraped_from": "https://haz-map.com/Agents/19660",
    "entity_name": "4-Methoxy-2-nitroaniline",
    "category": "agents",
    "uuid": "1adf978a-d1b6-42cc-90f7-e6a4da81184f",
    "scraped_at": "2025-07-23T22:10:27.016113"
  },
  "parsed_at": "2025-07-24T01:07:44.292515",
  "title": "4-Methoxy-2-nitroaniline",
  "sections": {
    "general": {
      "agent_name": {
        "original_name": "Agent Name",
        "value": "4-Methoxy-2-nitroaniline",
        "links": [],
        "cross_references": [
          {
            "type": "name_match",
            "text": "aniline",
            "confidence": 1.0,
            "uuid": "e4932692-8d9c-4a98-8c5c-81e55b12aedf",
            "name": "Aniline",
            "url": "https://haz-map.com/Agents/296",
            "category": "agents"
          },
          {
            "type": "name_match",
            "text": "2-nitroaniline",
            "confidence": 1.0,
            "uuid": "6d7d6515-4d7d-48cf-be15-e1f1ce18006a",
            "name": "2-Nitroaniline",
            "url": "https://haz-map.com/Agents/3149",
            "category": "agents"
          },
          {
            "type": "name_match",
            "text": "4-methoxy-2-nitroaniline",
            "confidence": 1.0,
            "uuid": "1adf978a-d1b6-42cc-90f7-e6a4da81184f",
            "name": "4-Methoxy-2-nitroaniline",
            "url": "https://haz-map.com/Agents/19660",
            "category": "agents"
          }
        ]
      },
      "cas_number": {
        "original_name": "CAS Number",
        "value": "96-96-8",
        "links": [],
        "cross_references": []
      },
      "formula": {
        "original_name": "Formula",
        "value": "C7-H8-N2-O3",
        "links": [],
        "cross_references": []
      },
      "major_category": {
        "original_name": "Major Category",
        "value": "Nitrogen Compounds",
        "links": [],
        "cross_references": [
          {
            "type": "name_match",
            "text": "nitrogen",
            "confidence": 1.0,
            "uuid": "db5e90a9-06d2-45b9-8b81-f345a89b0bc0",
            "name": "Nitrogen",
            "url": "https://haz-map.com/Agents/1072",
            "category": "agents"
          }
        ]
      },
      "synonyms": {
        "original_name": "Synonyms",
        "value": "2-Nitro-4-methoxyaniline; 2-Nitro-p-anisidine; 3-Nitro-4-aminoanisole; 4-Amino-3-nitroanisole; 4-Methoxy-2-nitroanilin [Czech]; Acco Fast Bordeaux GP salt; Amarthol Fast Bordeaux GP Base; Amarthol Fast Bordeaux GP Salt; Aniline, 4-methoxy-2-nitro-; Atul Fast Bordeaux GP Base; Azobase NAS; Azoene Fast Bordeaux GP Base; Azoene Fast Bordeaux GP Salt; Azofix Bordeaux GP; Azogene Fast Bordeaux G; Bordeaux Base Ciba IV; Bordeaux Base Irga IV; Bordeaux Base NGP; Bordeaux GP Base; Bordeaux GP Salt; Bordeaux GPS Salt; Bordeaux Salt Ciba IV; Bordeaux Salt NGP; Brentamine Fast Bordeaux GP Base; C.I. 37135; C.I. Azoic Diazo Component 1; Daito Bordeaux Base GP; Daito Bordeaux Salt GP; Devol Bordeaux B; Devol Bordeaux GP Salt; Diabase Bordeaux GP; Diasalt Bordeaux GP; Diazo Fast Bordeaux GP; Durgasol Bordeaux GP Salt; Fast Bordeaux 3NA Base; Fast Bordeaux Base GP; Fast Bordeaux Base J; Fast Bordeaux GDN; Fast Bordeaux GDN base; Fast Bordeaux GP; Fast Bordeaux GP Base; Fast Bordeaux GP Salt; Fast Bordeaux GP-T Base; Fast Bordeaux GPN Base; Fast Bordeaux Salt GP; Fast Bordeaux Salt GPN; Fast Bordeaux Salt J; GP-Amin [Czech]; Hansol Bordeaux GP Salt; Hansol Bordeaux Salt GP Salt; Hiltonil Fast Bordeaux GP Base; Hiltosal Fast Bordeaux GP Salt; Hindasol Bordeaux GP Salt; Kako Bordeaux GP Base; Kako Bordeaux GP Salt; Kayaku Fast Bordeaux GP Base; Kayaku Fast Bordeaux Salt GP; Lake Maroon B base; Mitsui Bordeaux GP Base; Mitsui Bordeaux GP Salt; Naphthanil Bordeaux GP Base; Naphthanil Diazo Bordeaux GP; Naphthosol Fast Bordeaux GP Salt; Naphtoelan Fast Bordeaux GP Base; Naphtoelan Fast Bordeaux GP Salt; Natasol Bordeaux GP Salt; Pharmasol Bordeaux GP; Pharmazoid Bordeaux GP; Sanyo Fast Bordeaux GP Base; Sanyo Fast Bordeaux Salt GP; Shinnippon Fast Bordeaux GP Base; Sugai Fast Bordeaux GP Base; Symulon Bordeaux GP Base; Tulabase Fast Bordeaux GP; Benzenamine, 4-methoxy-2-nitro-; p-Anisidine, 2-nitro- (8CI); [ChemIDplus] UN2811",
        "links": [],
        "cross_references": [
          {
            "type": "name_match",
            "text": "aniline",
            "confidence": 1.0,
            "uuid": "e4932692-8d9c-4a98-8c5c-81e55b12aedf",
            "name": "Aniline",
            "url": "https://haz-map.com/Agents/296",
            "category": "agents"
          },
          {
            "type": "name_match",
            "text": "p-anisidine",
            "confidence": 1.0,
            "uuid": "73b0c619-1eb5-4053-bc51-4dacc1b20113",
            "name": "p-Anisidine",
            "url": "https://haz-map.com/Agents/758",
            "category": "agents"
          },
          {
            "type": "name_match",
            "text": "ht",
            "confidence": 1.0,
            "uuid": "764df367-8d53-4a11-81a2-31ccfe122a8d",
            "name": "HT",
            "url": "https://haz-map.com/Agents/2168",
            "category": "agents"
          },
          {
            "type": "name_match",
            "text": "anisole",
            "confidence": 1.0,
            "uuid": "f122d940-2dba-441c-9dbf-c185355d4cb0",
            "name": "Anisole",
            "url": "https://haz-map.com/Agents/3708",
            "category": "agents"
          }
        ]
      },
      "category": {
        "original_name": "Category",
        "value": "Other Aromatics (Nitrogen)",
        "links": [],
        "cross_references": [
          {
            "type": "name_match",
            "text": "nitrogen",
            "confidence": 1.0,
            "uuid": "db5e90a9-06d2-45b9-8b81-f345a89b0bc0",
            "name": "Nitrogen",
            "url": "https://haz-map.com/Agents/1072",
            "category": "agents"
          }
        ]
      },
      "description": {
        "original_name": "Description",
        "value": "Orange powder; [Alfa Aesar MSDS]",
        "links": [],
        "cross_references": []
      },
      "sourcesuses": {
        "original_name": "Sources/Uses",
        "value": "Used to make fine chemicals and in scientific research and development; [ExPub: ECHA REACH Registrations]",
        "links": [],
        "cross_references": [
          {
            "type": "name_match",
            "text": "mica",
            "confidence": 1.0,
            "uuid": "433f26f1-c399-4596-b179-ce3843cfd465",
            "name": "Mica",
            "url": "https://haz-map.com/Agents/621",
            "category": "agents"
          }
        ]
      },
      "comments": {
        "original_name": "Comments",
        "value": "An irritant; May induce methemoglobinemia; Highly toxic by ingestion, inhalation, and skin absorption; May have cumulative adverse effects; [Alfa Aesar MSDS] See \"2-Methoxy-4-nitroaniline.\"",
        "links": [],
        "cross_references": [
          {
            "type": "name_match",
            "text": "aniline",
            "confidence": 1.0,
            "uuid": "e4932692-8d9c-4a98-8c5c-81e55b12aedf",
            "name": "Aniline",
            "url": "https://haz-map.com/Agents/296",
            "category": "agents"
          },
          {
            "type": "name_match",
            "text": "methemoglobin",
            "confidence": 1.0,
            "uuid": "afb7ebf5-d2a3-4e60-8d2e-3a19456344ee",
            "name": "Methemoglobin",
            "url": "https://haz-map.com/Agents/15467",
            "category": "agents"
          },
          {
            "type": "name_match",
            "text": "2-methoxy-4-nitroaniline",
            "confidence": 1.0,
            "uuid": "00ea2a80-9a76-4cd5-a7b1-74d6e8f5c730",
            "name": "2-Methoxy-4-nitroaniline",
            "url": "https://haz-map.com/Agents/19634",
            "category": "agents"
          },
          {
            "type": "fuzzy_match",
            "text": "methemoglobinemia",
            "matched_name": "Methemoglobinemia, acute",
            "confidence": 0.7208333333333333,
            "uuid": "473a44bd-cf11-4710-a769-e8e2b25ba317",
            "category": "diseases",
            "url": "https://haz-map.com/Diseases/210"
          }
        ]
      },
      "biomedical_references": {
        "original_name": "Biomedical References",
        "value": "Search PubMed",
        "links": [
          {
            "text": "Search PubMed",
            "url": "https://www.ncbi.nlm.nih.gov/pubmed?term=4-Methoxy-2-nitroaniline%20AND%20human%5Bmh%5D%20AND%20%28Occupational%20Diseases%20%5Bmh%5D%20OR%20Occupational%20Exposure%20%5Bmh%5D%29%20%20AND%20%28tox%5Bsb%5D%29&cmd=search"
          }
        ],
        "cross_references": []
      }
    },
    "exposure_assessment": {
      "vapor_pressure": {
        "original_name": "Vapor Pressure",
        "value": "0.000319 mm Hg",
        "links": [],
        "cross_references": []
      },
      "explanatory_notes": {
        "original_name": "Explanatory Notes",
        "value": "The Guide in the Emergency Response Guidebook is for \"Toxic solid, organic, n.o.s.\"",
        "links": [],
        "cross_references": []
      }
    },
    "adverse_effects": {
      "methemoglobinemia": {
        "original_name": "Methemoglobinemia",
        "value": "MetHgb is secondary toxic effect",
        "links": [],
        "cross_references": []
      }
    },
    "diseases_processes_and_activities_linked_to_this_agent": {
      "other_information": {
        "original_name": "Other Information",
        "value": "No other related information on this agent was found.",
        "links": [],
        "cross_references": []
      }
    }
  },
  "cross_references": [
    {
      "type": "name_match",
      "text": "aniline",
      "confidence": 1.0,
      "uuid": "e4932692-8d9c-4a98-8c5c-81e55b12aedf",
      "name": "Aniline",
      "url": "https://haz-map.com/Agents/296",
      "category": "agents"
    },
    {
      "type": "name_match",
      "text": "mica",
      "confidence": 1.0,
      "uuid": "433f26f1-c399-4596-b179-ce3843cfd465",
      "name": "Mica",
      "url": "https://haz-map.com/Agents/621",
      "category": "agents"
    },
    {
      "type": "name_match",
      "text": "p-anisidine",
      "confidence": 1.0,
      "uuid": "73b0c619-1eb5-4053-bc51-4dacc1b20113",
      "name": "p-Anisidine",
      "url": "https://haz-map.com/Agents/758",
      "category": "agents"
    },
    {
      "type": "name_match",
      "text": "nitrogen",
      "confidence": 1.0,
      "uuid": "db5e90a9-06d2-45b9-8b81-f345a89b0bc0",
      "name": "Nitrogen",
      "url": "https://haz-map.com/Agents/1072",
      "category": "agents"
    },
    {
      "type": "name_match",
      "text": "ht",
      "confidence": 1.0,
      "uuid": "764df367-8d53-4a11-81a2-31ccfe122a8d",
      "name": "HT",
      "url": "https://haz-map.com/Agents/2168",
      "category": "agents"
    },
    {
      "type": "name_match",
      "text": "2-nitroaniline",
      "confidence": 1.0,
      "uuid": "6d7d6515-4d7d-48cf-be15-e1f1ce18006a",
      "name": "2-Nitroaniline",
      "url": "https://haz-map.com/Agents/3149",
      "category": "agents"
    },
    {
      "type": "name_match",
      "text": "anisole",
      "confidence": 1.0,
      "uuid": "f122d940-2dba-441c-9dbf-c185355d4cb0",
      "name": "Anisole",
      "url": "https://haz-map.com/Agents/3708",
      "category": "agents"
    },
    {
      "type": "name_match",
      "text": "methemoglobin",
      "confidence": 1.0,
      "uuid": "afb7ebf5-d2a3-4e60-8d2e-3a19456344ee",
      "name": "Methemoglobin",
      "url": "https://haz-map.com/Agents/15467",
      "category": "agents"
    },
    {
      "type": "name_match",
      "text": "2-methoxy-4-nitroaniline",
      "confidence": 1.0,
      "uuid": "00ea2a80-9a76-4cd5-a7b1-74d6e8f5c730",
      "name": "2-Methoxy-4-nitroaniline",
      "url": "https://haz-map.com/Agents/19634",
      "category": "agents"
    },
    {
      "type": "name_match",
      "text": "4-methoxy-2-nitroaniline",
      "confidence": 1.0,
      "uuid": "1adf978a-d1b6-42cc-90f7-e6a4da81184f",
      "name": "4-Methoxy-2-nitroaniline",
      "url": "https://haz-map.com/Agents/19660",
      "category": "agents"
    },
    {
      "type": "fuzzy_match",
      "text": "methemoglobinemia",
      "matched_name": "Methemoglobinemia, acute",
      "confidence": 0.7208333333333333,
      "uuid": "473a44bd-cf11-4710-a769-e8e2b25ba317",
      "category": "diseases",
      "url": "https://haz-map.com/Diseases/210"
    }
  ],
  "all_links": [
    {
      "text": "Search PubMed",
      "url": "https://www.ncbi.nlm.nih.gov/pubmed?term=4-Methoxy-2-nitroaniline%20AND%20human%5Bmh%5D%20AND%20%28Occupational%20Diseases%20%5Bmh%5D%20OR%20Occupational%20Exposure%20%5Bmh%5D%29%20%20AND%20%28tox%5Bsb%5D%29&cmd=search"
    }
  ]
}