{
  "metadata": {
    "scraped_from": "https://haz-map.com/Agents/19332",
    "entity_name": "1-Bromooctadecane",
    "category": "agents",
    "uuid": "1affbe33-2df9-4667-b628-f89dd55caeb2",
    "scraped_at": "2025-07-23T22:03:57.479956"
  },
  "parsed_at": "2025-07-24T01:15:33.470284",
  "title": "1-Bromooctadecane",
  "sections": {
    "general": {
      "agent_name": {
        "original_name": "Agent Name",
        "value": "1-Bromooctadecane",
        "links": [],
        "cross_references": [
          {
            "type": "name_match",
            "text": "octadecane",
            "confidence": 1.0,
            "uuid": "b225cac9-ed31-4c8b-82c2-1687df01fe67",
            "name": "Octadecane",
            "url": "https://haz-map.com/Agents/1908",
            "category": "agents"
          },
          {
            "type": "name_match",
            "text": "1-bromooctadecane",
            "confidence": 1.0,
            "uuid": "1affbe33-2df9-4667-b628-f89dd55caeb2",
            "name": "1-Bromooctadecane",
            "url": "https://haz-map.com/Agents/19332",
            "category": "agents"
          }
        ]
      },
      "cas_number": {
        "original_name": "CAS Number",
        "value": "112-89-0",
        "links": [],
        "cross_references": []
      },
      "formula": {
        "original_name": "Formula",
        "value": "C18-H37-Br",
        "links": [],
        "cross_references": []
      },
      "major_category": {
        "original_name": "Major Category",
        "value": "Other Classes",
        "links": [],
        "cross_references": []
      },
      "synonyms": {
        "original_name": "Synonyms",
        "value": "n-Octadecyl bromide; Octadecyl bromide; Stearyl bromide; Octadecane, 1-bromo-; [ChemIDplus]",
        "links": [],
        "cross_references": [
          {
            "type": "name_match",
            "text": "tea",
            "confidence": 1.0,
            "uuid": "773409e5-ac1a-4c9e-9470-9667ca82091c",
            "name": "Tea",
            "url": "https://haz-map.com/Agents/878",
            "category": "agents"
          },
          {
            "type": "name_match",
            "text": "octadecane",
            "confidence": 1.0,
            "uuid": "b225cac9-ed31-4c8b-82c2-1687df01fe67",
            "name": "Octadecane",
            "url": "https://haz-map.com/Agents/1908",
            "category": "agents"
          },
          {
            "type": "name_match",
            "text": "decyl bromide",
            "confidence": 1.0,
            "uuid": "f8095bd9-61d9-4be8-803d-6bdf18e82adf",
            "name": "Decyl bromide",
            "url": "https://haz-map.com/Agents/9617",
            "category": "agents"
          }
        ]
      },
      "category": {
        "original_name": "Category",
        "value": "Halogenated Aliphatics, Saturated",
        "links": [],
        "cross_references": []
      },
      "description": {
        "original_name": "Description",
        "value": "White odorless solid; mp = 25-30 deg C; [Alfa Aesar MSDS]",
        "links": [],
        "cross_references": []
      },
      "comments": {
        "original_name": "Comments",
        "value": "May cause irritation; [Alfa Aesar MSDS] See \"Lauryl bromide.\"",
        "links": [],
        "cross_references": [
          {
            "type": "name_match",
            "text": "lauryl bromide",
            "confidence": 1.0,
            "uuid": "eef1681b-262b-4b1d-a58d-73f010341c10",
            "name": "Lauryl bromide",
            "url": "https://haz-map.com/Agents/9618",
            "category": "agents"
          }
        ]
      },
      "biomedical_references": {
        "original_name": "Biomedical References",
        "value": "Search PubMed",
        "links": [
          {
            "text": "Search PubMed",
            "url": "https://www.ncbi.nlm.nih.gov/pubmed?term=1-Bromooctadecane%20AND%20human%5Bmh%5D%20AND%20%28Occupational%20Diseases%20%5Bmh%5D%20OR%20Occupational%20Exposure%20%5Bmh%5D%29%20%20AND%20%28tox%5Bsb%5D%29&cmd=search"
          }
        ],
        "cross_references": []
      }
    },
    "exposure_assessment": {
      "vapor_pressure": {
        "original_name": "Vapor Pressure",
        "value": "5.94E-06 mm Hg",
        "links": [],
        "cross_references": []
      }
    },
    "diseases_processes_and_activities_linked_to_this_agent": {
      "other_information": {
        "original_name": "Other Information",
        "value": "No other related information on this agent was found.",
        "links": [],
        "cross_references": []
      }
    }
  },
  "cross_references": [
    {
      "type": "name_match",
      "text": "tea",
      "confidence": 1.0,
      "uuid": "773409e5-ac1a-4c9e-9470-9667ca82091c",
      "name": "Tea",
      "url": "https://haz-map.com/Agents/878",
      "category": "agents"
    },
    {
      "type": "name_match",
      "text": "octadecane",
      "confidence": 1.0,
      "uuid": "b225cac9-ed31-4c8b-82c2-1687df01fe67",
      "name": "Octadecane",
      "url": "https://haz-map.com/Agents/1908",
      "category": "agents"
    },
    {
      "type": "name_match",
      "text": "decyl bromide",
      "confidence": 1.0,
      "uuid": "f8095bd9-61d9-4be8-803d-6bdf18e82adf",
      "name": "Decyl bromide",
      "url": "https://haz-map.com/Agents/9617",
      "category": "agents"
    },
    {
      "type": "name_match",
      "text": "lauryl bromide",
      "confidence": 1.0,
      "uuid": "eef1681b-262b-4b1d-a58d-73f010341c10",
      "name": "Lauryl bromide",
      "url": "https://haz-map.com/Agents/9618",
      "category": "agents"
    },
    {
      "type": "name_match",
      "text": "1-bromooctadecane",
      "confidence": 1.0,
      "uuid": "1affbe33-2df9-4667-b628-f89dd55caeb2",
      "name": "1-Bromooctadecane",
      "url": "https://haz-map.com/Agents/19332",
      "category": "agents"
    }
  ],
  "all_links": [
    {
      "text": "Search PubMed",
      "url": "https://www.ncbi.nlm.nih.gov/pubmed?term=1-Bromooctadecane%20AND%20human%5Bmh%5D%20AND%20%28Occupational%20Diseases%20%5Bmh%5D%20OR%20Occupational%20Exposure%20%5Bmh%5D%29%20%20AND%20%28tox%5Bsb%5D%29&cmd=search"
    }
  ]
}