{
  "metadata": {
    "scraped_from": "https://haz-map.com/Agents/20420",
    "entity_name": "Chalcone",
    "category": "agents",
    "uuid": "1bec7c48-745d-4e2e-9665-7a8386e2f84e",
    "scraped_at": "2025-07-23T22:25:00.632296"
  },
  "parsed_at": "2025-07-24T00:50:57.699353",
  "title": "Chalcone",
  "sections": {
    "general": {
      "agent_name": {
        "original_name": "Agent Name",
        "value": "Chalcone",
        "links": [],
        "cross_references": [
          {
            "type": "name_match",
            "text": "chalcone",
            "confidence": 1.0,
            "uuid": "1bec7c48-745d-4e2e-9665-7a8386e2f84e",
            "name": "Chalcone",
            "url": "https://haz-map.com/Agents/20420",
            "category": "agents"
          }
        ]
      },
      "cas_number": {
        "original_name": "CAS Number",
        "value": "94-41-7",
        "links": [],
        "cross_references": []
      },
      "formula": {
        "original_name": "Formula",
        "value": "C15-H12-O",
        "links": [],
        "cross_references": []
      },
      "major_category": {
        "original_name": "Major Category",
        "value": "Other Classes",
        "links": [],
        "cross_references": []
      },
      "synonyms": {
        "original_name": "Synonyms",
        "value": "1,3-Diphenyl-2-propen-1-one; 1,3-Diphenyl-1-propen-3-one; 1,3-Diphenylpropenone; 1-Benzoyl-2-phenylethene; 1-Phenyl-2-benzoylethylene; 2-Benzalacetophenone; 2-Benzylideneacetophenone; 2-Propen-1-one, 1,3-diphenyl-; 3-Phenylacrylophenone; Acrylophenone, 3-phenyl-; alpha-Benzylideneacetophenone; Benzalacetophenone; Benzylidene acetophenone; Benzylidenecetophenone; beta-Benzoylstyrene; beta-Phenylacrylophenone; Chalkone; Cinnamophenone; Phenyl 2-phenylvinyl ketone; Phenyl styryl ketone; Styryl phenyl ketone; [ChemIDplus]",
        "links": [],
        "cross_references": [
          {
            "type": "name_match",
            "text": "styrene",
            "confidence": 1.0,
            "uuid": "03c5632f-5079-4688-82bd-0dacf3d0d36a",
            "name": "Styrene",
            "url": "https://haz-map.com/Agents/32",
            "category": "agents"
          },
          {
            "type": "name_match",
            "text": "ethylene",
            "confidence": 1.0,
            "uuid": "958eacc0-5135-4b62-bb93-6df972bf552f",
            "name": "Ethylene",
            "url": "https://haz-map.com/Agents/1076",
            "category": "agents"
          },
          {
            "type": "name_match",
            "text": "acetophenone",
            "confidence": 1.0,
            "uuid": "ea2f7a13-5a06-4d04-88db-0d365933a3ec",
            "name": "Acetophenone",
            "url": "https://haz-map.com/Agents/2193",
            "category": "agents"
          }
        ]
      },
      "category": {
        "original_name": "Category",
        "value": "Aromatic Ketones",
        "links": [],
        "cross_references": []
      },
      "description": {
        "original_name": "Description",
        "value": "Yellow powder; [Alfa Aesar MSDS]",
        "links": [],
        "cross_references": []
      },
      "sourcesuses": {
        "original_name": "Sources/Uses",
        "value": "Natural aromatic ketone utilized for the biosynthesis of flavones and as a template for bioactive substances known as chalcones; [Merck Index]",
        "links": [],
        "cross_references": [
          {
            "type": "name_match",
            "text": "chalcone",
            "confidence": 1.0,
            "uuid": "1bec7c48-745d-4e2e-9665-7a8386e2f84e",
            "name": "Chalcone",
            "url": "https://haz-map.com/Agents/20420",
            "category": "agents"
          }
        ]
      },
      "comments": {
        "original_name": "Comments",
        "value": "Causes other liver changes and multiple enzyme effects in acute intraperitoneal studies of mice; Oral lethal-dose (rat) > 500 mg/kg; [RTECS] A skin irritant; [Merck Index] A skin and strong eye irritant; Toxic by ingestion; [Alfa Aesar MSDS]",
        "links": [],
        "cross_references": []
      },
      "biomedical_references": {
        "original_name": "Biomedical References",
        "value": "Search PubMed",
        "links": [
          {
            "text": "Search PubMed",
            "url": "https://www.ncbi.nlm.nih.gov/pubmed?term=Chalcone%20AND%20human%5Bmh%5D%20AND%20%28Occupational%20Diseases%20%5Bmh%5D%20OR%20Occupational%20Exposure%20%5Bmh%5D%29%20%20AND%20%28tox%5Bsb%5D%29&cmd=search"
          }
        ],
        "cross_references": []
      }
    },
    "exposure_assessment": {
      "vapor_pressure": {
        "original_name": "Vapor Pressure",
        "value": "0.000107 mm Hg",
        "links": [],
        "cross_references": []
      }
    },
    "diseases_processes_and_activities_linked_to_this_agent": {
      "other_information": {
        "original_name": "Other Information",
        "value": "No other related information on this agent was found.",
        "links": [],
        "cross_references": []
      }
    }
  },
  "cross_references": [
    {
      "type": "name_match",
      "text": "styrene",
      "confidence": 1.0,
      "uuid": "03c5632f-5079-4688-82bd-0dacf3d0d36a",
      "name": "Styrene",
      "url": "https://haz-map.com/Agents/32",
      "category": "agents"
    },
    {
      "type": "name_match",
      "text": "ethylene",
      "confidence": 1.0,
      "uuid": "958eacc0-5135-4b62-bb93-6df972bf552f",
      "name": "Ethylene",
      "url": "https://haz-map.com/Agents/1076",
      "category": "agents"
    },
    {
      "type": "name_match",
      "text": "acetophenone",
      "confidence": 1.0,
      "uuid": "ea2f7a13-5a06-4d04-88db-0d365933a3ec",
      "name": "Acetophenone",
      "url": "https://haz-map.com/Agents/2193",
      "category": "agents"
    },
    {
      "type": "name_match",
      "text": "chalcone",
      "confidence": 1.0,
      "uuid": "1bec7c48-745d-4e2e-9665-7a8386e2f84e",
      "name": "Chalcone",
      "url": "https://haz-map.com/Agents/20420",
      "category": "agents"
    }
  ],
  "all_links": [
    {
      "text": "Search PubMed",
      "url": "https://www.ncbi.nlm.nih.gov/pubmed?term=Chalcone%20AND%20human%5Bmh%5D%20AND%20%28Occupational%20Diseases%20%5Bmh%5D%20OR%20Occupational%20Exposure%20%5Bmh%5D%29%20%20AND%20%28tox%5Bsb%5D%29&cmd=search"
    }
  ]
}