{
  "metadata": {
    "scraped_from": "https://haz-map.com/Agents/3837",
    "entity_name": "Benzenearsonic acid",
    "category": "agents",
    "uuid": "1bf218f3-b327-4006-83ec-2f4fb394d350",
    "scraped_at": "2025-07-23T19:33:37.457510"
  },
  "parsed_at": "2025-07-24T00:55:19.851091",
  "title": "Benzenearsonic acid",
  "sections": {
    "general": {
      "agent_name": {
        "original_name": "Agent Name",
        "value": "Benzenearsonic acid",
        "links": [],
        "cross_references": [
          {
            "type": "name_match",
            "text": "benzene",
            "confidence": 1.0,
            "uuid": "b05124de-5f34-4c14-8f04-ccb20c3780d9",
            "name": "Benzene",
            "url": "https://haz-map.com/Agents/5",
            "category": "agents"
          },
          {
            "type": "name_match",
            "text": "benzenearsonic acid",
            "confidence": 1.0,
            "uuid": "1bf218f3-b327-4006-83ec-2f4fb394d350",
            "name": "Benzenearsonic acid",
            "url": "https://haz-map.com/Agents/3837",
            "category": "agents"
          },
          {
            "type": "name_match",
            "text": "arsonic acid",
            "confidence": 1.0,
            "uuid": "45bce923-041a-4f4d-87bb-27be54add395",
            "name": "Arsonic acid",
            "url": "https://haz-map.com/Agents/20261",
            "category": "agents"
          }
        ]
      },
      "cas_number": {
        "original_name": "CAS Number",
        "value": "98-05-5",
        "links": [],
        "cross_references": []
      },
      "formula": {
        "original_name": "Formula",
        "value": "C6-H7-As-O3",
        "links": [],
        "cross_references": []
      },
      "major_category": {
        "original_name": "Major Category",
        "value": "Metals",
        "links": [],
        "cross_references": []
      },
      "synonyms": {
        "original_name": "Synonyms",
        "value": "Arsonic acid, phenyl-; Kyselina benzenarsonova [Czech]; Monophenylarsonic acid; Phenylarsonic acid; [ChemIDplus] UN3465",
        "links": [],
        "cross_references": [
          {
            "type": "name_match",
            "text": "arsonic acid",
            "confidence": 1.0,
            "uuid": "45bce923-041a-4f4d-87bb-27be54add395",
            "name": "Arsonic acid",
            "url": "https://haz-map.com/Agents/20261",
            "category": "agents"
          }
        ]
      },
      "category": {
        "original_name": "Category",
        "value": "Arsenic Compounds, Organic",
        "links": [],
        "cross_references": [
          {
            "type": "name_match",
            "text": "arsenic",
            "confidence": 1.0,
            "uuid": "2bf78711-4881-4b55-9b7c-df80529b3991",
            "name": "Arsenic",
            "url": "https://haz-map.com/Agents/1147",
            "category": "agents"
          }
        ]
      },
      "description": {
        "original_name": "Description",
        "value": "Colorless solid with various forms; Poor solubility in water; [ICSC] White powder, soluble in water; [MSDSonline]",
        "links": [],
        "cross_references": [
          {
            "type": "name_match",
            "text": "water",
            "confidence": 1.0,
            "uuid": "6f2a7557-dfd2-49bc-9b4b-a93cd8e225d4",
            "name": "Water",
            "url": "https://haz-map.com/Agents/18668",
            "category": "agents"
          }
        ]
      },
      "sourcesuses": {
        "original_name": "Sources/Uses",
        "value": "Used as a reagent for tin and as a precipitant in niobium analysis; [HSDB]",
        "links": [],
        "cross_references": [
          {
            "type": "name_match",
            "text": "niobium",
            "confidence": 1.0,
            "uuid": "cd2b9464-e49a-43d8-b47f-51063bf54cbf",
            "name": "Niobium",
            "url": "https://haz-map.com/Agents/1997",
            "category": "agents"
          }
        ]
      },
      "comments": {
        "original_name": "Comments",
        "value": "Can cause arsenic poisoning; [ICSC] \"Almost nothing is known regarding health effects of organic arsenic compounds in humans. Studies in animals show that some simple organic arsenic compounds are less toxic than inorganic forms. Ingestion of methyl and dimethyl compounds can cause diarrhea and damage to the kidneys.\" [ATSDR ToxProfiles] Toxic by ingestion; [Sax] Oral LDLo (rat) = 50 mg/kg; [RTECS] A skin, eye, and mucous membrane irritant; [MSDSonline] See \"Arsanilic acid.\"",
        "links": [],
        "cross_references": [
          {
            "type": "name_match",
            "text": "diarrhea",
            "confidence": 1.0,
            "uuid": "001ae7b5-5f3c-42c2-bc33-81e7581abd53",
            "name": "diarrhea",
            "url": "https://haz-map.com/Findings/15",
            "category": "findings"
          },
          {
            "type": "name_match",
            "text": "arsenic",
            "confidence": 1.0,
            "uuid": "2bf78711-4881-4b55-9b7c-df80529b3991",
            "name": "Arsenic",
            "url": "https://haz-map.com/Agents/1147",
            "category": "agents"
          },
          {
            "type": "name_match",
            "text": "arsanilic acid",
            "confidence": 1.0,
            "uuid": "b840c99f-9fe7-4f37-8fc3-2704f8fa4205",
            "name": "Arsanilic acid",
            "url": "https://haz-map.com/Agents/3742",
            "category": "agents"
          }
        ]
      },
      "biomedical_references": {
        "original_name": "Biomedical References",
        "value": "Search PubMed",
        "links": [
          {
            "text": "Search PubMed",
            "url": "https://www.ncbi.nlm.nih.gov/pubmed?term=Benzenearsonic+acid%20AND%20human%5Bmh%5D%20AND%20%28Occupational%20Diseases%20%5Bmh%5D%20OR%20Occupational%20Exposure%20%5Bmh%5D%29%20%20AND%20%28tox%5Bsb%5D%29&cmd=search"
          }
        ],
        "cross_references": []
      }
    },
    "exposure_assessment": {
      "pel_osha": {
        "original_name": "PEL (OSHA)",
        "value": "0.5 mg/m3, as As",
        "links": [],
        "cross_references": []
      },
      "vapor_pressure": {
        "original_name": "Vapor Pressure",
        "value": "1.11E-06 mm Hg",
        "links": [],
        "cross_references": []
      },
      "explanatory_notes": {
        "original_name": "Explanatory Notes",
        "value": "mp = 160 deg C; [ICSC]",
        "links": [],
        "cross_references": []
      }
    },
    "diseases_processes_and_activities_linked_to_this_agent": {
      "diseases": {
        "original_name": "Diseases",
        "value": "Occupational diseases associated with exposure to this agent: Arsenic, chronic toxic effect",
        "links": [
          {
            "text": "Arsenic, chronic toxic effect",
            "url": "https://haz-map.com/Diseases/36"
          }
        ],
        "cross_references": [
          {
            "type": "url_match",
            "text": "Arsenic, chronic toxic effect",
            "url": "https://haz-map.com/Diseases/36",
            "confidence": 1.0,
            "uuid": "af797cc4-dd4f-43a6-af2e-d3a8f9d72cd3",
            "name": "Arsenic, chronic toxic effect",
            "category": "diseases"
          },
          {
            "type": "name_match",
            "text": "arsenic",
            "confidence": 1.0,
            "uuid": "2bf78711-4881-4b55-9b7c-df80529b3991",
            "name": "Arsenic",
            "url": "https://haz-map.com/Agents/1147",
            "category": "agents"
          },
          {
            "type": "fuzzy_match",
            "text": "chronic toxic effect",
            "matched_name": "Chromium, chronic toxic effect",
            "confidence": 0.7261904761904762,
            "uuid": "cb808753-5a2c-485a-878c-f5b5371ff3e6",
            "category": "diseases",
            "url": "https://haz-map.com/Diseases/17"
          }
        ]
      }
    }
  },
  "cross_references": [
    {
      "type": "url_match",
      "text": "Arsenic, chronic toxic effect",
      "url": "https://haz-map.com/Diseases/36",
      "confidence": 1.0,
      "uuid": "af797cc4-dd4f-43a6-af2e-d3a8f9d72cd3",
      "name": "Arsenic, chronic toxic effect",
      "category": "diseases"
    },
    {
      "type": "name_match",
      "text": "diarrhea",
      "confidence": 1.0,
      "uuid": "001ae7b5-5f3c-42c2-bc33-81e7581abd53",
      "name": "diarrhea",
      "url": "https://haz-map.com/Findings/15",
      "category": "findings"
    },
    {
      "type": "name_match",
      "text": "benzene",
      "confidence": 1.0,
      "uuid": "b05124de-5f34-4c14-8f04-ccb20c3780d9",
      "name": "Benzene",
      "url": "https://haz-map.com/Agents/5",
      "category": "agents"
    },
    {
      "type": "name_match",
      "text": "arsenic",
      "confidence": 1.0,
      "uuid": "2bf78711-4881-4b55-9b7c-df80529b3991",
      "name": "Arsenic",
      "url": "https://haz-map.com/Agents/1147",
      "category": "agents"
    },
    {
      "type": "name_match",
      "text": "niobium",
      "confidence": 1.0,
      "uuid": "cd2b9464-e49a-43d8-b47f-51063bf54cbf",
      "name": "Niobium",
      "url": "https://haz-map.com/Agents/1997",
      "category": "agents"
    },
    {
      "type": "name_match",
      "text": "arsanilic acid",
      "confidence": 1.0,
      "uuid": "b840c99f-9fe7-4f37-8fc3-2704f8fa4205",
      "name": "Arsanilic acid",
      "url": "https://haz-map.com/Agents/3742",
      "category": "agents"
    },
    {
      "type": "name_match",
      "text": "benzenearsonic acid",
      "confidence": 1.0,
      "uuid": "1bf218f3-b327-4006-83ec-2f4fb394d350",
      "name": "Benzenearsonic acid",
      "url": "https://haz-map.com/Agents/3837",
      "category": "agents"
    },
    {
      "type": "name_match",
      "text": "water",
      "confidence": 1.0,
      "uuid": "6f2a7557-dfd2-49bc-9b4b-a93cd8e225d4",
      "name": "Water",
      "url": "https://haz-map.com/Agents/18668",
      "category": "agents"
    },
    {
      "type": "name_match",
      "text": "arsonic acid",
      "confidence": 1.0,
      "uuid": "45bce923-041a-4f4d-87bb-27be54add395",
      "name": "Arsonic acid",
      "url": "https://haz-map.com/Agents/20261",
      "category": "agents"
    },
    {
      "type": "fuzzy_match",
      "text": "chronic toxic effect",
      "matched_name": "Chromium, chronic toxic effect",
      "confidence": 0.7261904761904762,
      "uuid": "cb808753-5a2c-485a-878c-f5b5371ff3e6",
      "category": "diseases",
      "url": "https://haz-map.com/Diseases/17"
    }
  ],
  "all_links": [
    {
      "text": "Search PubMed",
      "url": "https://www.ncbi.nlm.nih.gov/pubmed?term=Benzenearsonic+acid%20AND%20human%5Bmh%5D%20AND%20%28Occupational%20Diseases%20%5Bmh%5D%20OR%20Occupational%20Exposure%20%5Bmh%5D%29%20%20AND%20%28tox%5Bsb%5D%29&cmd=search"
    },
    {
      "text": "Arsenic, chronic toxic effect",
      "url": "https://haz-map.com/Diseases/36"
    }
  ]
}