{
  "metadata": {
    "scraped_from": "https://haz-map.com/Agents/5215",
    "entity_name": "Ethylene glycol dibutyl ether",
    "category": "agents",
    "uuid": "1c0baf14-2aeb-4380-abac-a0b17e0ad651",
    "scraped_at": "2025-07-23T19:50:11.538849"
  },
  "parsed_at": "2025-07-24T00:53:34.030810",
  "title": "Ethylene glycol dibutyl ether",
  "sections": {
    "general": {
      "agent_name": {
        "original_name": "Agent Name",
        "value": "Ethylene glycol dibutyl ether",
        "links": [],
        "cross_references": [
          {
            "type": "name_match",
            "text": "ethylene glycol",
            "confidence": 1.0,
            "uuid": "99589035-d71c-415a-914c-81c7a166be11",
            "name": "Ethylene glycol",
            "url": "https://haz-map.com/Agents/488",
            "category": "agents"
          },
          {
            "type": "name_match",
            "text": "ethylene",
            "confidence": 1.0,
            "uuid": "958eacc0-5135-4b62-bb93-6df972bf552f",
            "name": "Ethylene",
            "url": "https://haz-map.com/Agents/1076",
            "category": "agents"
          },
          {
            "type": "name_match",
            "text": "ethylene glycol dibutyl ether",
            "confidence": 1.0,
            "uuid": "1c0baf14-2aeb-4380-abac-a0b17e0ad651",
            "name": "Ethylene glycol dibutyl ether",
            "url": "https://haz-map.com/Agents/5215",
            "category": "agents"
          }
        ]
      },
      "cas_number": {
        "original_name": "CAS Number",
        "value": "112-48-1",
        "links": [],
        "cross_references": []
      },
      "formula": {
        "original_name": "Formula",
        "value": "C10-H22-O2",
        "links": [],
        "cross_references": []
      },
      "major_category": {
        "original_name": "Major Category",
        "value": "Solvents",
        "links": [],
        "cross_references": []
      },
      "synonyms": {
        "original_name": "Synonyms",
        "value": "1,2-Dibutoxyethane; Butane, 1,1'-(1,2-ethanediylbis(oxy))bis-; Dibutyl Oxitol; Dibutyl cellosolve; Dibutylether ethylenglykolu [Czech]; Ethane, 1,2-dibutoxy-; Glycol dibutyl ether; [ChemIDplus]",
        "links": [],
        "cross_references": [
          {
            "type": "name_match",
            "text": "ethane",
            "confidence": 1.0,
            "uuid": "5162cc8c-dfb9-4060-81ac-38a8cec7f9dd",
            "name": "Ethane",
            "url": "https://haz-map.com/Agents/1075",
            "category": "agents"
          }
        ]
      },
      "category": {
        "original_name": "Category",
        "value": "Glycol Ethers (E Series)",
        "links": [],
        "cross_references": [
          {
            "type": "name_match",
            "text": "glycol ethers",
            "confidence": 1.0,
            "uuid": "753cf9f5-dc59-44ba-9fd6-38aca4a3cdac",
            "name": "GLYCOL ETHERS",
            "url": "https://haz-map.com/Agents/688",
            "category": "agents"
          }
        ]
      },
      "description": {
        "original_name": "Description",
        "value": "Almost colorless liquid; [Hawley]",
        "links": [],
        "cross_references": []
      },
      "sourcesuses": {
        "original_name": "Sources/Uses",
        "value": "Used as a high-boiling inert solvent, e.g., in extraction applications; [Hawley]",
        "links": [],
        "cross_references": []
      },
      "comments": {
        "original_name": "Comments",
        "value": "In animal experiments, effects include changes in erythrocyte count; [RTECS] A mild skin and eye irritant; Defats the skin; [ICSC] Oxidized by air producing unstable peroxides that can spontaneously explode; A skin and eye irritant; [CAMEO] See \"GLYCOL ETHERS.\"",
        "links": [],
        "cross_references": [
          {
            "type": "name_match",
            "text": "glycol ethers",
            "confidence": 1.0,
            "uuid": "753cf9f5-dc59-44ba-9fd6-38aca4a3cdac",
            "name": "GLYCOL ETHERS",
            "url": "https://haz-map.com/Agents/688",
            "category": "agents"
          }
        ]
      },
      "biomedical_references": {
        "original_name": "Biomedical References",
        "value": "Search PubMed",
        "links": [
          {
            "text": "Search PubMed",
            "url": "https://www.ncbi.nlm.nih.gov/pubmed?term=Ethylene+glycol+dibutyl+ether%20AND%20human%5Bmh%5D%20AND%20%28Occupational%20Diseases%20%5Bmh%5D%20OR%20Occupational%20Exposure%20%5Bmh%5D%29%20%20AND%20%28tox%5Bsb%5D%29&cmd=search"
          }
        ],
        "cross_references": []
      }
    },
    "exposure_assessment": {
      "vapor_pressure": {
        "original_name": "Vapor Pressure",
        "value": "0.09 mm Hg",
        "links": [],
        "cross_references": []
      },
      "explanatory_notes": {
        "original_name": "Explanatory Notes",
        "value": "VP from ChemIDplus;",
        "links": [],
        "cross_references": []
      },
      "nfpa": {
        "original_name": "NFPA",
        "value": "high ambient temp required",
        "links": [],
        "cross_references": []
      }
    },
    "adverse_effects": {
      "neurotoxin": {
        "original_name": "Neurotoxin",
        "value": "Acute solvent syndrome",
        "links": [],
        "cross_references": []
      }
    },
    "diseases_processes_and_activities_linked_to_this_agent": {
      "diseases": {
        "original_name": "Diseases",
        "value": "Occupational diseases associated with exposure to this agent: Solvents, acute toxic effect",
        "links": [
          {
            "text": "Solvents, acute toxic effect",
            "url": "https://haz-map.com/Diseases/326"
          }
        ],
        "cross_references": [
          {
            "type": "url_match",
            "text": "Solvents, acute toxic effect",
            "url": "https://haz-map.com/Diseases/326",
            "confidence": 1.0,
            "uuid": "581e90e3-9d0c-45f0-aa6c-3468c28da129",
            "name": "Solvents, acute toxic effect",
            "category": "diseases"
          }
        ]
      }
    }
  },
  "cross_references": [
    {
      "type": "url_match",
      "text": "Solvents, acute toxic effect",
      "url": "https://haz-map.com/Diseases/326",
      "confidence": 1.0,
      "uuid": "581e90e3-9d0c-45f0-aa6c-3468c28da129",
      "name": "Solvents, acute toxic effect",
      "category": "diseases"
    },
    {
      "type": "name_match",
      "text": "ethylene glycol",
      "confidence": 1.0,
      "uuid": "99589035-d71c-415a-914c-81c7a166be11",
      "name": "Ethylene glycol",
      "url": "https://haz-map.com/Agents/488",
      "category": "agents"
    },
    {
      "type": "name_match",
      "text": "glycol ethers",
      "confidence": 1.0,
      "uuid": "753cf9f5-dc59-44ba-9fd6-38aca4a3cdac",
      "name": "GLYCOL ETHERS",
      "url": "https://haz-map.com/Agents/688",
      "category": "agents"
    },
    {
      "type": "name_match",
      "text": "ethane",
      "confidence": 1.0,
      "uuid": "5162cc8c-dfb9-4060-81ac-38a8cec7f9dd",
      "name": "Ethane",
      "url": "https://haz-map.com/Agents/1075",
      "category": "agents"
    },
    {
      "type": "name_match",
      "text": "ethylene",
      "confidence": 1.0,
      "uuid": "958eacc0-5135-4b62-bb93-6df972bf552f",
      "name": "Ethylene",
      "url": "https://haz-map.com/Agents/1076",
      "category": "agents"
    },
    {
      "type": "name_match",
      "text": "ethylene glycol dibutyl ether",
      "confidence": 1.0,
      "uuid": "1c0baf14-2aeb-4380-abac-a0b17e0ad651",
      "name": "Ethylene glycol dibutyl ether",
      "url": "https://haz-map.com/Agents/5215",
      "category": "agents"
    }
  ],
  "all_links": [
    {
      "text": "Search PubMed",
      "url": "https://www.ncbi.nlm.nih.gov/pubmed?term=Ethylene+glycol+dibutyl+ether%20AND%20human%5Bmh%5D%20AND%20%28Occupational%20Diseases%20%5Bmh%5D%20OR%20Occupational%20Exposure%20%5Bmh%5D%29%20%20AND%20%28tox%5Bsb%5D%29&cmd=search"
    },
    {
      "text": "Solvents, acute toxic effect",
      "url": "https://haz-map.com/Diseases/326"
    }
  ]
}