{
  "metadata": {
    "scraped_from": "https://haz-map.com/Agents/1503",
    "entity_name": "Aluminum phosphide",
    "category": "agents",
    "uuid": "1c7d0ab2-97e1-4117-9e5b-8bd51998cb48",
    "scraped_at": "2025-07-23T19:00:19.527667"
  },
  "parsed_at": "2025-07-24T01:09:03.109486",
  "title": "Aluminum phosphide",
  "sections": {
    "general": {
      "agent_name": {
        "original_name": "Agent Name",
        "value": "Aluminum phosphide",
        "links": [],
        "cross_references": [
          {
            "type": "name_match",
            "text": "aluminum",
            "confidence": 1.0,
            "uuid": "60ab7471-1af2-4a33-b727-63fa1e1fa189",
            "name": "Aluminum",
            "url": "https://haz-map.com/Agents/287",
            "category": "agents"
          },
          {
            "type": "name_match",
            "text": "aluminum phosphide",
            "confidence": 1.0,
            "uuid": "1c7d0ab2-97e1-4117-9e5b-8bd51998cb48",
            "name": "Aluminum phosphide",
            "url": "https://haz-map.com/Agents/1503",
            "category": "agents"
          }
        ]
      },
      "cas_number": {
        "original_name": "CAS Number",
        "value": "20859-73-8",
        "links": [],
        "cross_references": []
      },
      "formula": {
        "original_name": "Formula",
        "value": "Al-P",
        "links": [],
        "cross_references": []
      },
      "major_category": {
        "original_name": "Major Category",
        "value": "Metals",
        "links": [],
        "cross_references": []
      },
      "synonyms": {
        "original_name": "Synonyms",
        "value": "AL-Phos; AlP; Aluminium fosfide [Dutch]; Aluminum monophosphide; Celphide; Celphine; Celphos; Celphos (indian); Delicia; Delicia gastoxin; Detia; Detia gas Ex-B; Detia-Ex-B; Fosfuri di alluminio [Italian]; Fumitoxin; Gastion; Phosphures d'alumium [French]; Phostoxin; Phostoxin-A; Quickphos; UN 1397; [ChemIDplus]",
        "links": [],
        "cross_references": [
          {
            "type": "name_match",
            "text": "aluminum",
            "confidence": 1.0,
            "uuid": "60ab7471-1af2-4a33-b727-63fa1e1fa189",
            "name": "Aluminum",
            "url": "https://haz-map.com/Agents/287",
            "category": "agents"
          },
          {
            "type": "name_match",
            "text": "tali",
            "confidence": 1.0,
            "uuid": "8c3a0f99-2143-4122-b539-ec5cc49596b0",
            "name": "Tali",
            "url": "https://haz-map.com/Agents/1128",
            "category": "agents"
          }
        ]
      },
      "category": {
        "original_name": "Category",
        "value": "Phosphides",
        "links": [],
        "cross_references": [
          {
            "type": "name_match",
            "text": "phosphides",
            "confidence": 1.0,
            "uuid": "2ed2d286-ed7b-44c6-86ed-176ae2fc6553",
            "name": "PHOSPHIDES",
            "url": "https://haz-map.com/Agents/1590",
            "category": "agents"
          }
        ]
      },
      "description": {
        "original_name": "Description",
        "value": "Dark gray or dark yellow crystals; [ICSC]",
        "links": [],
        "cross_references": []
      },
      "sourcesuses": {
        "original_name": "Sources/Uses",
        "value": "Used as an insecticide, fumigant, and source of phosphine in semiconductor production; [Hawley]",
        "links": [],
        "cross_references": [
          {
            "type": "name_match",
            "text": "phosphine",
            "confidence": 1.0,
            "uuid": "b9783685-a2f4-44ef-8b65-6c1ab72fbfde",
            "name": "Phosphine",
            "url": "https://haz-map.com/Agents/74",
            "category": "agents"
          }
        ]
      },
      "comments": {
        "original_name": "Comments",
        "value": "Reacts with water to form the highly toxic and flammable phosphine; [Hawley] See \"PHOSPHIDES.\" See \"Phosphine.\"",
        "links": [],
        "cross_references": [
          {
            "type": "name_match",
            "text": "phosphine",
            "confidence": 1.0,
            "uuid": "b9783685-a2f4-44ef-8b65-6c1ab72fbfde",
            "name": "Phosphine",
            "url": "https://haz-map.com/Agents/74",
            "category": "agents"
          },
          {
            "type": "name_match",
            "text": "phosphides",
            "confidence": 1.0,
            "uuid": "2ed2d286-ed7b-44c6-86ed-176ae2fc6553",
            "name": "PHOSPHIDES",
            "url": "https://haz-map.com/Agents/1590",
            "category": "agents"
          },
          {
            "type": "name_match",
            "text": "water",
            "confidence": 1.0,
            "uuid": "6f2a7557-dfd2-49bc-9b4b-a93cd8e225d4",
            "name": "Water",
            "url": "https://haz-map.com/Agents/18668",
            "category": "agents"
          }
        ]
      },
      "reference_link_1": {
        "original_name": "Reference Link #1",
        "value": "EXTOXNET PIP - ALUMINUM PHOSPHIDE",
        "links": [
          {
            "text": "EXTOXNET PIP - ALUMINUM PHOSPHIDE",
            "url": "http://extoxnet.orst.edu/pips/alumphos.htm"
          }
        ],
        "cross_references": [
          {
            "type": "name_match",
            "text": "aluminum",
            "confidence": 1.0,
            "uuid": "60ab7471-1af2-4a33-b727-63fa1e1fa189",
            "name": "Aluminum",
            "url": "https://haz-map.com/Agents/287",
            "category": "agents"
          },
          {
            "type": "name_match",
            "text": "aluminum phosphide",
            "confidence": 1.0,
            "uuid": "1c7d0ab2-97e1-4117-9e5b-8bd51998cb48",
            "name": "Aluminum phosphide",
            "url": "https://haz-map.com/Agents/1503",
            "category": "agents"
          }
        ]
      },
      "biomedical_references": {
        "original_name": "Biomedical References",
        "value": "Search PubMed",
        "links": [
          {
            "text": "Search PubMed",
            "url": "https://www.ncbi.nlm.nih.gov/pubmed?term=Aluminum+phosphide%20AND%20human%5Bmh%5D%20AND%20%28Occupational%20Diseases%20%5Bmh%5D%20OR%20Occupational%20Exposure%20%5Bmh%5D%29%20%20AND%20%28tox%5Bsb%5D%29&cmd=search"
          }
        ],
        "cross_references": []
      }
    },
    "exposure_assessment": {
      "tih": {
        "original_name": "TIH",
        "value": "Yes",
        "links": [],
        "cross_references": []
      },
      "dangerous_when_wet": {
        "original_name": "Dangerous When Wet",
        "value": "Yes",
        "links": [],
        "cross_references": []
      },
      "vapor_pressure": {
        "original_name": "Vapor Pressure",
        "value": "3.39E-11 mm Hg",
        "links": [],
        "cross_references": []
      },
      "lethal_concentration": {
        "original_name": "Lethal Concentration",
        "value": "LCLo (men) = 2,800 mg/m3",
        "links": [],
        "cross_references": []
      },
      "explanatory_notes": {
        "original_name": "Explanatory Notes",
        "value": "Not TIH in land-based spills, but TiH substance released when spilled in water; [ERG 2016]",
        "links": [],
        "cross_references": [
          {
            "type": "name_match",
            "text": "water",
            "confidence": 1.0,
            "uuid": "6f2a7557-dfd2-49bc-9b4b-a93cd8e225d4",
            "name": "Water",
            "url": "https://haz-map.com/Agents/18668",
            "category": "agents"
          }
        ]
      },
      "reference_link_2": {
        "original_name": "Reference Link #2",
        "value": "EPA Pesticide Chemical Search",
        "links": [
          {
            "text": "EPA Pesticide Chemical Search",
            "url": "https://iaspub.epa.gov/apex/pesticides/f?p=CHEMICALSEARCH:1:"
          }
        ],
        "cross_references": [
          {
            "type": "name_match",
            "text": "mica",
            "confidence": 1.0,
            "uuid": "433f26f1-c399-4596-b179-ce3843cfd465",
            "name": "Mica",
            "url": "https://haz-map.com/Agents/621",
            "category": "agents"
          }
        ]
      },
      "nfpa": {
        "original_name": "NFPA",
        "value": "burn readily",
        "links": [],
        "cross_references": [
          {
            "type": "name_match",
            "text": "burn",
            "confidence": 1.0,
            "uuid": "63665de5-6376-4918-8dbf-4c10c4d63837",
            "name": "burn",
            "url": "https://haz-map.com/Findings/204",
            "category": "findings"
          }
        ]
      }
    },
    "adverse_effects": {
      "toxic_pneumonitis": {
        "original_name": "Toxic Pneumonitis",
        "value": "Yes",
        "links": [],
        "cross_references": []
      },
      "neurotoxin": {
        "original_name": "Neurotoxin",
        "value": "Other CNS neurotoxin",
        "links": [],
        "cross_references": []
      },
      "hepatotoxin": {
        "original_name": "Hepatotoxin",
        "value": "Hepatoxic (a) from occupational exposure (secondary effect) or (b) in animal studies or in humans after ingestion",
        "links": [],
        "cross_references": []
      },
      "nephrotoxin": {
        "original_name": "Nephrotoxin",
        "value": "Yes",
        "links": [],
        "cross_references": []
      }
    },
    "diseases_processes_and_activities_linked_to_this_agent": {
      "diseases": {
        "original_name": "Diseases",
        "value": "Occupational diseases associated with exposure to this agent: Fumigants, acute toxic effect Pneumonitis, toxic",
        "links": [
          {
            "text": "Fumigants, acute toxic effect",
            "url": "https://haz-map.com/Diseases/389"
          },
          {
            "text": "Pneumonitis, toxic",
            "url": "https://haz-map.com/Diseases/306"
          }
        ],
        "cross_references": [
          {
            "type": "url_match",
            "text": "Fumigants, acute toxic effect",
            "url": "https://haz-map.com/Diseases/389",
            "confidence": 1.0,
            "uuid": "0ea745ce-b8d8-4881-aa18-f652dcfed7ea",
            "name": "Fumigants, acute toxic effect",
            "category": "diseases"
          },
          {
            "type": "url_match",
            "text": "Pneumonitis, toxic",
            "url": "https://haz-map.com/Diseases/306",
            "confidence": 1.0,
            "uuid": "cd799281-0284-450d-bb82-ed6b675616ac",
            "name": "Pneumonitis, toxic",
            "category": "diseases"
          },
          {
            "type": "name_match",
            "text": "fumigants",
            "confidence": 1.0,
            "uuid": "01ad5510-2dbd-4a10-8a54-0defa348e7db",
            "name": "FUMIGANTS",
            "url": "https://haz-map.com/Agents/707",
            "category": "agents"
          }
        ]
      },
      "processes": {
        "original_name": "Processes",
        "value": "Industrial Processes with risk of exposure: Farming (Pesticides) Semiconductor Manufacturing Toxic Gas from Spilling Chemical in Water",
        "links": [
          {
            "text": "Farming (Pesticides)",
            "url": "https://haz-map.com/Processes/218"
          },
          {
            "text": "Semiconductor Manufacturing",
            "url": "https://haz-map.com/Processes/97"
          },
          {
            "text": "Toxic Gas from Spilling Chemical in Water",
            "url": "https://haz-map.com/Processes/256"
          }
        ],
        "cross_references": [
          {
            "type": "url_match",
            "text": "Farming (Pesticides)",
            "url": "https://haz-map.com/Processes/218",
            "confidence": 1.0,
            "uuid": "cf1e5815-c9bb-4917-82a5-391848170b7e",
            "name": "Farming (Pesticides)",
            "category": "processes"
          },
          {
            "type": "url_match",
            "text": "Semiconductor Manufacturing",
            "url": "https://haz-map.com/Processes/97",
            "confidence": 1.0,
            "uuid": "a1adedb7-a724-4539-9aff-c43b42706b89",
            "name": "Semiconductor Manufacturing",
            "category": "processes"
          },
          {
            "type": "name_match",
            "text": "mica",
            "confidence": 1.0,
            "uuid": "433f26f1-c399-4596-b179-ce3843cfd465",
            "name": "Mica",
            "url": "https://haz-map.com/Agents/621",
            "category": "agents"
          },
          {
            "type": "name_match",
            "text": "water",
            "confidence": 1.0,
            "uuid": "6f2a7557-dfd2-49bc-9b4b-a93cd8e225d4",
            "name": "Water",
            "url": "https://haz-map.com/Agents/18668",
            "category": "agents"
          }
        ]
      }
    }
  },
  "cross_references": [
    {
      "type": "url_match",
      "text": "Fumigants, acute toxic effect",
      "url": "https://haz-map.com/Diseases/389",
      "confidence": 1.0,
      "uuid": "0ea745ce-b8d8-4881-aa18-f652dcfed7ea",
      "name": "Fumigants, acute toxic effect",
      "category": "diseases"
    },
    {
      "type": "url_match",
      "text": "Pneumonitis, toxic",
      "url": "https://haz-map.com/Diseases/306",
      "confidence": 1.0,
      "uuid": "cd799281-0284-450d-bb82-ed6b675616ac",
      "name": "Pneumonitis, toxic",
      "category": "diseases"
    },
    {
      "type": "url_match",
      "text": "Farming (Pesticides)",
      "url": "https://haz-map.com/Processes/218",
      "confidence": 1.0,
      "uuid": "cf1e5815-c9bb-4917-82a5-391848170b7e",
      "name": "Farming (Pesticides)",
      "category": "processes"
    },
    {
      "type": "url_match",
      "text": "Semiconductor Manufacturing",
      "url": "https://haz-map.com/Processes/97",
      "confidence": 1.0,
      "uuid": "a1adedb7-a724-4539-9aff-c43b42706b89",
      "name": "Semiconductor Manufacturing",
      "category": "processes"
    },
    {
      "type": "name_match",
      "text": "burn",
      "confidence": 1.0,
      "uuid": "63665de5-6376-4918-8dbf-4c10c4d63837",
      "name": "burn",
      "url": "https://haz-map.com/Findings/204",
      "category": "findings"
    },
    {
      "type": "name_match",
      "text": "phosphine",
      "confidence": 1.0,
      "uuid": "b9783685-a2f4-44ef-8b65-6c1ab72fbfde",
      "name": "Phosphine",
      "url": "https://haz-map.com/Agents/74",
      "category": "agents"
    },
    {
      "type": "name_match",
      "text": "aluminum",
      "confidence": 1.0,
      "uuid": "60ab7471-1af2-4a33-b727-63fa1e1fa189",
      "name": "Aluminum",
      "url": "https://haz-map.com/Agents/287",
      "category": "agents"
    },
    {
      "type": "name_match",
      "text": "mica",
      "confidence": 1.0,
      "uuid": "433f26f1-c399-4596-b179-ce3843cfd465",
      "name": "Mica",
      "url": "https://haz-map.com/Agents/621",
      "category": "agents"
    },
    {
      "type": "name_match",
      "text": "fumigants",
      "confidence": 1.0,
      "uuid": "01ad5510-2dbd-4a10-8a54-0defa348e7db",
      "name": "FUMIGANTS",
      "url": "https://haz-map.com/Agents/707",
      "category": "agents"
    },
    {
      "type": "name_match",
      "text": "tali",
      "confidence": 1.0,
      "uuid": "8c3a0f99-2143-4122-b539-ec5cc49596b0",
      "name": "Tali",
      "url": "https://haz-map.com/Agents/1128",
      "category": "agents"
    },
    {
      "type": "name_match",
      "text": "aluminum phosphide",
      "confidence": 1.0,
      "uuid": "1c7d0ab2-97e1-4117-9e5b-8bd51998cb48",
      "name": "Aluminum phosphide",
      "url": "https://haz-map.com/Agents/1503",
      "category": "agents"
    },
    {
      "type": "name_match",
      "text": "phosphides",
      "confidence": 1.0,
      "uuid": "2ed2d286-ed7b-44c6-86ed-176ae2fc6553",
      "name": "PHOSPHIDES",
      "url": "https://haz-map.com/Agents/1590",
      "category": "agents"
    },
    {
      "type": "name_match",
      "text": "water",
      "confidence": 1.0,
      "uuid": "6f2a7557-dfd2-49bc-9b4b-a93cd8e225d4",
      "name": "Water",
      "url": "https://haz-map.com/Agents/18668",
      "category": "agents"
    }
  ],
  "all_links": [
    {
      "text": "EXTOXNET PIP - ALUMINUM PHOSPHIDE",
      "url": "http://extoxnet.orst.edu/pips/alumphos.htm"
    },
    {
      "text": "Search PubMed",
      "url": "https://www.ncbi.nlm.nih.gov/pubmed?term=Aluminum+phosphide%20AND%20human%5Bmh%5D%20AND%20%28Occupational%20Diseases%20%5Bmh%5D%20OR%20Occupational%20Exposure%20%5Bmh%5D%29%20%20AND%20%28tox%5Bsb%5D%29&cmd=search"
    },
    {
      "text": "EPA Pesticide Chemical Search",
      "url": "https://iaspub.epa.gov/apex/pesticides/f?p=CHEMICALSEARCH:1:"
    },
    {
      "text": "Fumigants, acute toxic effect",
      "url": "https://haz-map.com/Diseases/389"
    },
    {
      "text": "Pneumonitis, toxic",
      "url": "https://haz-map.com/Diseases/306"
    },
    {
      "text": "Farming (Pesticides)",
      "url": "https://haz-map.com/Processes/218"
    },
    {
      "text": "Semiconductor Manufacturing",
      "url": "https://haz-map.com/Processes/97"
    },
    {
      "text": "Toxic Gas from Spilling Chemical in Water",
      "url": "https://haz-map.com/Processes/256"
    }
  ]
}