{
  "metadata": {
    "scraped_from": "https://haz-map.com/Agents/5268",
    "entity_name": "Eugenyl formate",
    "category": "agents",
    "uuid": "1c7e580e-b2dd-4ff9-a0bb-0506cb28e479",
    "scraped_at": "2025-07-23T19:50:48.677148"
  },
  "parsed_at": "2025-07-24T00:58:41.782704",
  "title": "Eugenyl formate",
  "sections": {
    "general": {
      "agent_name": {
        "original_name": "Agent Name",
        "value": "Eugenyl formate",
        "links": [],
        "cross_references": [
          {
            "type": "name_match",
            "text": "eugenyl formate",
            "confidence": 1.0,
            "uuid": "1c7e580e-b2dd-4ff9-a0bb-0506cb28e479",
            "name": "Eugenyl formate",
            "url": "https://haz-map.com/Agents/5268",
            "category": "agents"
          }
        ]
      },
      "cas_number": {
        "original_name": "CAS Number",
        "value": "10031-96-6",
        "links": [],
        "cross_references": []
      },
      "formula": {
        "original_name": "Formula",
        "value": "C11-H12-O3",
        "links": [],
        "cross_references": []
      },
      "major_category": {
        "original_name": "Major Category",
        "value": "Other Classes",
        "links": [],
        "cross_references": []
      },
      "synonyms": {
        "original_name": "Synonyms",
        "value": "2-Methoxy-4-(2-propenyl)phenyl formate; 4-(2-Propen-1-yl)-2-methoxyphenyl formate; 4-(2-Propenyl)-2-methoxyphenyl formate; 4-Allyl-2-methoxyphenol formate; 4-Allyl-2-methoxyphenyl formate; Eugenol formate; Phenol, 2-methoxy-4-(2-propenyl)-, formate; Phenol, 4-allyl-2-methoxy-, formate; [ChemIDplus]",
        "links": [],
        "cross_references": [
          {
            "type": "name_match",
            "text": "phenol",
            "confidence": 1.0,
            "uuid": "03141a03-a7df-4f51-9a37-adde1a7c4b31",
            "name": "Phenol",
            "url": "https://haz-map.com/Agents/84",
            "category": "agents"
          },
          {
            "type": "name_match",
            "text": "eugenol",
            "confidence": 1.0,
            "uuid": "fda779e2-c311-4378-9e2b-2be72da5c04b",
            "name": "Eugenol",
            "url": "https://haz-map.com/Agents/1008",
            "category": "agents"
          }
        ]
      },
      "category": {
        "original_name": "Category",
        "value": "Other Organic Compounds",
        "links": [],
        "cross_references": [
          {
            "type": "fuzzy_match",
            "text": "organic compounds",
            "matched_name": "Tin, organic compounds",
            "confidence": 0.8196969696969697,
            "uuid": "e027d413-8869-4308-9eb2-27d768b011ea",
            "category": "agents",
            "url": "https://haz-map.com/Agents/656"
          }
        ]
      },
      "sourcesuses": {
        "original_name": "Sources/Uses",
        "value": "Used as a flavor ingredient in condiments; [HSDB]",
        "links": [],
        "cross_references": []
      },
      "comments": {
        "original_name": "Comments",
        "value": "Safe when used as a flavoring agent in food; [JECFA] Mild irritant in rabbit eye; [RTECS] Emergency treatment: \"Eugenol\"; [HSDB] See \"Eugenol.\"",
        "links": [],
        "cross_references": [
          {
            "type": "name_match",
            "text": "eugenol",
            "confidence": 1.0,
            "uuid": "fda779e2-c311-4378-9e2b-2be72da5c04b",
            "name": "Eugenol",
            "url": "https://haz-map.com/Agents/1008",
            "category": "agents"
          }
        ]
      },
      "biomedical_references": {
        "original_name": "Biomedical References",
        "value": "Search PubMed",
        "links": [
          {
            "text": "Search PubMed",
            "url": "https://www.ncbi.nlm.nih.gov/pubmed?term=Eugenyl+formate%20AND%20human%5Bmh%5D%20AND%20%28Occupational%20Diseases%20%5Bmh%5D%20OR%20Occupational%20Exposure%20%5Bmh%5D%29%20%20AND%20%28tox%5Bsb%5D%29&cmd=search"
          }
        ],
        "cross_references": []
      }
    },
    "exposure_assessment": {
      "vapor_pressure": {
        "original_name": "Vapor Pressure",
        "value": "0.00472 mm Hg",
        "links": [],
        "cross_references": []
      }
    },
    "diseases_processes_and_activities_linked_to_this_agent": {
      "other_information": {
        "original_name": "Other Information",
        "value": "No other related information on this agent was found.",
        "links": [],
        "cross_references": []
      }
    }
  },
  "cross_references": [
    {
      "type": "name_match",
      "text": "phenol",
      "confidence": 1.0,
      "uuid": "03141a03-a7df-4f51-9a37-adde1a7c4b31",
      "name": "Phenol",
      "url": "https://haz-map.com/Agents/84",
      "category": "agents"
    },
    {
      "type": "name_match",
      "text": "eugenol",
      "confidence": 1.0,
      "uuid": "fda779e2-c311-4378-9e2b-2be72da5c04b",
      "name": "Eugenol",
      "url": "https://haz-map.com/Agents/1008",
      "category": "agents"
    },
    {
      "type": "name_match",
      "text": "eugenyl formate",
      "confidence": 1.0,
      "uuid": "1c7e580e-b2dd-4ff9-a0bb-0506cb28e479",
      "name": "Eugenyl formate",
      "url": "https://haz-map.com/Agents/5268",
      "category": "agents"
    },
    {
      "type": "fuzzy_match",
      "text": "organic compounds",
      "matched_name": "Tin, organic compounds",
      "confidence": 0.8196969696969697,
      "uuid": "e027d413-8869-4308-9eb2-27d768b011ea",
      "category": "agents",
      "url": "https://haz-map.com/Agents/656"
    }
  ],
  "all_links": [
    {
      "text": "Search PubMed",
      "url": "https://www.ncbi.nlm.nih.gov/pubmed?term=Eugenyl+formate%20AND%20human%5Bmh%5D%20AND%20%28Occupational%20Diseases%20%5Bmh%5D%20OR%20Occupational%20Exposure%20%5Bmh%5D%29%20%20AND%20%28tox%5Bsb%5D%29&cmd=search"
    }
  ]
}