{
  "metadata": {
    "scraped_from": "https://haz-map.com/Agents/6628",
    "entity_name": "Phenol, 3-(1-methylethyl)-, methylcarbamate",
    "category": "agents",
    "uuid": "1ccebaee-1450-484d-89b6-642040052517",
    "scraped_at": "2025-07-23T20:03:45.660334"
  },
  "parsed_at": "2025-07-24T01:00:12.216057",
  "title": "Phenol, 3-(1-methylethyl)-, methylcarbamate",
  "sections": {
    "general": {
      "agent_name": {
        "original_name": "Agent Name",
        "value": "Phenol, 3-(1-methylethyl)-, methylcarbamate",
        "links": [],
        "cross_references": [
          {
            "type": "name_match",
            "text": "phenol",
            "confidence": 1.0,
            "uuid": "03141a03-a7df-4f51-9a37-adde1a7c4b31",
            "name": "Phenol",
            "url": "https://haz-map.com/Agents/84",
            "category": "agents"
          },
          {
            "type": "name_match",
            "text": "phenol, 3-(1-methylethyl)-, methylcarbamate",
            "confidence": 1.0,
            "uuid": "1ccebaee-1450-484d-89b6-642040052517",
            "name": "Phenol, 3-(1-methylethyl)-, methylcarbamate",
            "url": "https://haz-map.com/Agents/6628",
            "category": "agents"
          }
        ]
      },
      "cas_number": {
        "original_name": "CAS Number",
        "value": "64-00-6",
        "links": [],
        "cross_references": []
      },
      "formula": {
        "original_name": "Formula",
        "value": "C11-H15-N-O2",
        "links": [],
        "cross_references": []
      },
      "major_category": {
        "original_name": "Major Category",
        "value": "Pesticides",
        "links": [],
        "cross_references": []
      },
      "synonyms": {
        "original_name": "Synonyms",
        "value": "1PC; 3-(1-Methylethyl)phenol methylcarbamate; 3-(1-Methylethyl)phenyl methylcarbamate; 3-Isopropylphenyl methylcarbamate; 3-Isopropylphenyl-N-methylcarbamate; AC 5727; Carbamic acid, N-methyl-, 3-isopropylphenyl ester; Carbamic acid, methyl-, 3-(1-methylethyl)phenyl ester; Carbamic acid, methyl-, m-cumenyl ester; Compound 10854; ENT 25,500; H 5727; H 8757; H-8,757; HER. 5727; HIP; Hercules 5727; Hercules AC 5727; Methylcarbamic acid m-cumenyl ester; N-Methyl 3-isopropylphenyl carbamate; N-Methyl carbamate, m-2-propylphenyl; N-Methyl m-isopropylphenyl carbamate; N-Methyl-3-isopropylphenyl carbamate; N-Methyl-m-isopropylphenyl carbamate; OMS 162; OMS-15; OMS-631; Phenol, m-isopropyl-, methylcarbamate; UC 10854; Union Carbide 10854; Union Carbide UC-10,854; m-Cumenol methylcarbamate; m-Cumenyl methylcarbamate; m-Isopropylphenol N-methylcarbamate; m-Isopropylphenyl N-methylcarbamate; m-Isopropylphenyl methylcarbamate; m-Kumenylester kyseliny methylkarbaminove [Czech]; Phenol, 3-(1-methylethyl)-, methyl carbamate; [ChemIDplus]",
        "links": [],
        "cross_references": [
          {
            "type": "name_match",
            "text": "phenol",
            "confidence": 1.0,
            "uuid": "03141a03-a7df-4f51-9a37-adde1a7c4b31",
            "name": "Phenol",
            "url": "https://haz-map.com/Agents/84",
            "category": "agents"
          },
          {
            "type": "name_match",
            "text": "methyl carbamate",
            "confidence": 1.0,
            "uuid": "25095735-49b1-4267-b344-d478f57808d9",
            "name": "Methyl carbamate",
            "url": "https://haz-map.com/Agents/6075",
            "category": "agents"
          },
          {
            "type": "name_match",
            "text": "phenyl methylcarbamate",
            "confidence": 1.0,
            "uuid": "d4affaf6-2df5-4c83-8dc7-54a9c7973886",
            "name": "Phenyl methylcarbamate",
            "url": "https://haz-map.com/Agents/6657",
            "category": "agents"
          }
        ]
      },
      "category": {
        "original_name": "Category",
        "value": "Carbamate Insecticides",
        "links": [],
        "cross_references": [
          {
            "type": "name_match",
            "text": "carbamate insecticides",
            "confidence": 1.0,
            "uuid": "d406afe4-aed9-49d6-a6fa-726d8c380439",
            "name": "CARBAMATE INSECTICIDES",
            "url": "https://haz-map.com/Agents/33",
            "category": "agents"
          }
        ]
      },
      "description": {
        "original_name": "Description",
        "value": "White odorless solid; [HSDB]",
        "links": [],
        "cross_references": []
      },
      "sourcesuses": {
        "original_name": "Sources/Uses",
        "value": "Used as insecticide for cotton, fruits, vegetables, and field crops; [CAMEO]",
        "links": [],
        "cross_references": []
      },
      "comments": {
        "original_name": "Comments",
        "value": "Applicators and villagers poisoned from spraying 5% solution had symptoms including weakness, headache, miosis, and profuse perspiration; Half of the males (17 of 34) developed skin eruptions; Inhalation of dust at 45 mg/m3 caused 75% decrease in brain cholinesterase activity in rats; [HSDB] A cholinesterase inhibitor; [CAMEO] See \"CARBAMATE INSECTICIDES.\"",
        "links": [],
        "cross_references": [
          {
            "type": "name_match",
            "text": "headache",
            "confidence": 1.0,
            "uuid": "a474a38d-66ac-44da-92de-de1c781a30e7",
            "name": "headache",
            "url": "https://haz-map.com/Findings/17",
            "category": "findings"
          },
          {
            "type": "name_match",
            "text": "weakness",
            "confidence": 1.0,
            "uuid": "44bfccd5-0f7a-48f7-b4eb-de9a6ef23064",
            "name": "weakness",
            "url": "https://haz-map.com/Findings/83",
            "category": "findings"
          },
          {
            "type": "name_match",
            "text": "miosis",
            "confidence": 1.0,
            "uuid": "c2305936-ca8b-4cc9-b8da-0fe0ef8a21ca",
            "name": "miosis",
            "url": "https://haz-map.com/Findings/118",
            "category": "findings"
          },
          {
            "type": "name_match",
            "text": "carbamate insecticides",
            "confidence": 1.0,
            "uuid": "d406afe4-aed9-49d6-a6fa-726d8c380439",
            "name": "CARBAMATE INSECTICIDES",
            "url": "https://haz-map.com/Agents/33",
            "category": "agents"
          },
          {
            "type": "name_match",
            "text": "choline",
            "confidence": 1.0,
            "uuid": "a21a71e9-9d67-4563-9da2-98c4dcb1b766",
            "name": "Choline",
            "url": "https://haz-map.com/Agents/12978",
            "category": "agents"
          }
        ]
      },
      "restricted": {
        "original_name": "Restricted",
        "value": "No longer registered as a pesticide for use in the US; [HSDB]",
        "links": [],
        "cross_references": []
      },
      "biomedical_references": {
        "original_name": "Biomedical References",
        "value": "Search PubMed",
        "links": [
          {
            "text": "Search PubMed",
            "url": "https://www.ncbi.nlm.nih.gov/pubmed?term=Phenol%2c+3-(1-methylethyl)-%2c+methylcarbamate%20AND%20human%5Bmh%5D%20AND%20%28Occupational%20Diseases%20%5Bmh%5D%20OR%20Occupational%20Exposure%20%5Bmh%5D%29%20%20AND%20%28tox%5Bsb%5D%29&cmd=search"
          }
        ],
        "cross_references": []
      }
    },
    "exposure_assessment": {
      "bei": {
        "original_name": "BEI",
        "value": "Acetylcholinesterase activity in red blood cells = 70% of individual's baseline; Butylcholinesterase activity in serum or plasma = 60% of individual's baseline; Sample at end of shift; [TLVs and BEIs]",
        "links": [],
        "cross_references": [
          {
            "type": "name_match",
            "text": "choline",
            "confidence": 1.0,
            "uuid": "a21a71e9-9d67-4563-9da2-98c4dcb1b766",
            "name": "Choline",
            "url": "https://haz-map.com/Agents/12978",
            "category": "agents"
          }
        ]
      },
      "vapor_pressure": {
        "original_name": "Vapor Pressure",
        "value": "0.00439 mm Hg",
        "links": [],
        "cross_references": []
      }
    },
    "adverse_effects": {
      "other_poison": {
        "original_name": "Other Poison",
        "value": "Carbamate",
        "links": [],
        "cross_references": []
      }
    },
    "diseases_processes_and_activities_linked_to_this_agent": {
      "diseases": {
        "original_name": "Diseases",
        "value": "Occupational diseases associated with exposure to this agent: Organophosphates & carbamates, acute poisoning",
        "links": [
          {
            "text": "Organophosphates & carbamates, acute poisoning",
            "url": "https://haz-map.com/Diseases/66"
          }
        ],
        "cross_references": [
          {
            "type": "url_match",
            "text": "Organophosphates & carbamates, acute poisoning",
            "url": "https://haz-map.com/Diseases/66",
            "confidence": 1.0,
            "uuid": "aea2cba9-fb36-463f-84d8-b819551bb327",
            "name": "Organophosphates & carbamates, acute poisoning",
            "category": "diseases"
          },
          {
            "type": "name_match",
            "text": "organophosphates",
            "confidence": 1.0,
            "uuid": "8d2d239c-20f9-4f02-9916-5e7667b9990c",
            "name": "ORGANOPHOSPHATES",
            "url": "https://haz-map.com/Agents/702",
            "category": "agents"
          }
        ]
      },
      "processes": {
        "original_name": "Processes",
        "value": "Industrial Processes with risk of exposure: Farming (Pesticides)",
        "links": [
          {
            "text": "Farming (Pesticides)",
            "url": "https://haz-map.com/Processes/218"
          }
        ],
        "cross_references": [
          {
            "type": "url_match",
            "text": "Farming (Pesticides)",
            "url": "https://haz-map.com/Processes/218",
            "confidence": 1.0,
            "uuid": "cf1e5815-c9bb-4917-82a5-391848170b7e",
            "name": "Farming (Pesticides)",
            "category": "processes"
          }
        ]
      }
    }
  },
  "cross_references": [
    {
      "type": "url_match",
      "text": "Organophosphates & carbamates, acute poisoning",
      "url": "https://haz-map.com/Diseases/66",
      "confidence": 1.0,
      "uuid": "aea2cba9-fb36-463f-84d8-b819551bb327",
      "name": "Organophosphates & carbamates, acute poisoning",
      "category": "diseases"
    },
    {
      "type": "url_match",
      "text": "Farming (Pesticides)",
      "url": "https://haz-map.com/Processes/218",
      "confidence": 1.0,
      "uuid": "cf1e5815-c9bb-4917-82a5-391848170b7e",
      "name": "Farming (Pesticides)",
      "category": "processes"
    },
    {
      "type": "name_match",
      "text": "headache",
      "confidence": 1.0,
      "uuid": "a474a38d-66ac-44da-92de-de1c781a30e7",
      "name": "headache",
      "url": "https://haz-map.com/Findings/17",
      "category": "findings"
    },
    {
      "type": "name_match",
      "text": "weakness",
      "confidence": 1.0,
      "uuid": "44bfccd5-0f7a-48f7-b4eb-de9a6ef23064",
      "name": "weakness",
      "url": "https://haz-map.com/Findings/83",
      "category": "findings"
    },
    {
      "type": "name_match",
      "text": "miosis",
      "confidence": 1.0,
      "uuid": "c2305936-ca8b-4cc9-b8da-0fe0ef8a21ca",
      "name": "miosis",
      "url": "https://haz-map.com/Findings/118",
      "category": "findings"
    },
    {
      "type": "name_match",
      "text": "carbamate insecticides",
      "confidence": 1.0,
      "uuid": "d406afe4-aed9-49d6-a6fa-726d8c380439",
      "name": "CARBAMATE INSECTICIDES",
      "url": "https://haz-map.com/Agents/33",
      "category": "agents"
    },
    {
      "type": "name_match",
      "text": "phenol",
      "confidence": 1.0,
      "uuid": "03141a03-a7df-4f51-9a37-adde1a7c4b31",
      "name": "Phenol",
      "url": "https://haz-map.com/Agents/84",
      "category": "agents"
    },
    {
      "type": "name_match",
      "text": "organophosphates",
      "confidence": 1.0,
      "uuid": "8d2d239c-20f9-4f02-9916-5e7667b9990c",
      "name": "ORGANOPHOSPHATES",
      "url": "https://haz-map.com/Agents/702",
      "category": "agents"
    },
    {
      "type": "name_match",
      "text": "methyl carbamate",
      "confidence": 1.0,
      "uuid": "25095735-49b1-4267-b344-d478f57808d9",
      "name": "Methyl carbamate",
      "url": "https://haz-map.com/Agents/6075",
      "category": "agents"
    },
    {
      "type": "name_match",
      "text": "phenol, 3-(1-methylethyl)-, methylcarbamate",
      "confidence": 1.0,
      "uuid": "1ccebaee-1450-484d-89b6-642040052517",
      "name": "Phenol, 3-(1-methylethyl)-, methylcarbamate",
      "url": "https://haz-map.com/Agents/6628",
      "category": "agents"
    },
    {
      "type": "name_match",
      "text": "phenyl methylcarbamate",
      "confidence": 1.0,
      "uuid": "d4affaf6-2df5-4c83-8dc7-54a9c7973886",
      "name": "Phenyl methylcarbamate",
      "url": "https://haz-map.com/Agents/6657",
      "category": "agents"
    },
    {
      "type": "name_match",
      "text": "choline",
      "confidence": 1.0,
      "uuid": "a21a71e9-9d67-4563-9da2-98c4dcb1b766",
      "name": "Choline",
      "url": "https://haz-map.com/Agents/12978",
      "category": "agents"
    }
  ],
  "all_links": [
    {
      "text": "Search PubMed",
      "url": "https://www.ncbi.nlm.nih.gov/pubmed?term=Phenol%2c+3-(1-methylethyl)-%2c+methylcarbamate%20AND%20human%5Bmh%5D%20AND%20%28Occupational%20Diseases%20%5Bmh%5D%20OR%20Occupational%20Exposure%20%5Bmh%5D%29%20%20AND%20%28tox%5Bsb%5D%29&cmd=search"
    },
    {
      "text": "Organophosphates & carbamates, acute poisoning",
      "url": "https://haz-map.com/Diseases/66"
    },
    {
      "text": "Farming (Pesticides)",
      "url": "https://haz-map.com/Processes/218"
    }
  ]
}