{
  "metadata": {
    "scraped_from": "https://haz-map.com/Agents/9771",
    "entity_name": "1,3-Cyclohexanediamine",
    "category": "agents",
    "uuid": "1ce87e32-655e-437e-b8f8-52454c51f473",
    "scraped_at": "2025-07-23T20:42:28.179911"
  },
  "parsed_at": "2025-07-24T01:11:19.614951",
  "title": "1,3-Cyclohexanediamine",
  "sections": {
    "general": {
      "agent_name": {
        "original_name": "Agent Name",
        "value": "1,3-Cyclohexanediamine",
        "links": [],
        "cross_references": [
          {
            "type": "name_match",
            "text": "cyclohexane",
            "confidence": 1.0,
            "uuid": "366fabd7-ac2f-461c-969f-62dfe3bf2377",
            "name": "Cyclohexane",
            "url": "https://haz-map.com/Agents/384",
            "category": "agents"
          },
          {
            "type": "name_match",
            "text": "1,3-cyclohexanediamine",
            "confidence": 1.0,
            "uuid": "1ce87e32-655e-437e-b8f8-52454c51f473",
            "name": "1,3-Cyclohexanediamine",
            "url": "https://haz-map.com/Agents/9771",
            "category": "agents"
          },
          {
            "type": "name_match",
            "text": "hexanediamine",
            "confidence": 1.0,
            "uuid": "9fbac336-ceeb-4c0a-9ad4-635f4afe9e8f",
            "name": "Hexanediamine",
            "url": "https://haz-map.com/Agents/14621",
            "category": "agents"
          }
        ]
      },
      "cas_number": {
        "original_name": "CAS Number",
        "value": "3385-21-5",
        "links": [],
        "cross_references": []
      },
      "formula": {
        "original_name": "Formula",
        "value": "C6-H14-N2",
        "links": [],
        "cross_references": []
      },
      "major_category": {
        "original_name": "Major Category",
        "value": "Nitrogen Compounds",
        "links": [],
        "cross_references": [
          {
            "type": "name_match",
            "text": "nitrogen",
            "confidence": 1.0,
            "uuid": "db5e90a9-06d2-45b9-8b81-f345a89b0bc0",
            "name": "Nitrogen",
            "url": "https://haz-map.com/Agents/1072",
            "category": "agents"
          }
        ]
      },
      "synonyms": {
        "original_name": "Synonyms",
        "value": "1,3-Diaminocyclohexane; Cyclohex-1,3-ylenediamine; [ChemIDplus] Hydrogenated m-Phenylenediamine; HMPD; HMPD Technical; [DuPont MSDS] UN2922",
        "links": [],
        "cross_references": [
          {
            "type": "name_match",
            "text": "cyclohexane",
            "confidence": 1.0,
            "uuid": "366fabd7-ac2f-461c-969f-62dfe3bf2377",
            "name": "Cyclohexane",
            "url": "https://haz-map.com/Agents/384",
            "category": "agents"
          },
          {
            "type": "name_match",
            "text": "hydrogen",
            "confidence": 1.0,
            "uuid": "e2d9645f-5559-4d88-b820-fc4710c154f2",
            "name": "Hydrogen",
            "url": "https://haz-map.com/Agents/1070",
            "category": "agents"
          },
          {
            "type": "name_match",
            "text": "m-phenylenediamine",
            "confidence": 1.0,
            "uuid": "3a6f1d2d-6353-4bf1-8f83-18843c001ab8",
            "name": "m-Phenylenediamine",
            "url": "https://haz-map.com/Agents/1667",
            "category": "agents"
          }
        ]
      },
      "category": {
        "original_name": "Category",
        "value": "Amines, Cyclic",
        "links": [],
        "cross_references": []
      },
      "description": {
        "original_name": "Description",
        "value": "Colorless liquid with an ammoniacal odor; [DuPont MSDS]",
        "links": [],
        "cross_references": [
          {
            "type": "name_match",
            "text": "ammonia",
            "confidence": 1.0,
            "uuid": "4a9ab845-a2cc-47e0-ab5c-e53693380800",
            "name": "Ammonia",
            "url": "https://haz-map.com/Agents/291",
            "category": "agents"
          }
        ]
      },
      "comments": {
        "original_name": "Comments",
        "value": "Causes convulsions in oral lethal-dose studies of rats and mice; [RTECS] Causes burns; Inhalation may cause nose and throat irritation; [DuPont MSDS] See \"Cyclohexylamine.\"",
        "links": [],
        "cross_references": [
          {
            "type": "name_match",
            "text": "convulsion",
            "confidence": 1.0,
            "uuid": "af2c36f8-707a-48e3-a62b-1aa07adc9b72",
            "name": "convulsion",
            "url": "https://haz-map.com/Findings/14",
            "category": "findings"
          },
          {
            "type": "name_match",
            "text": "burn",
            "confidence": 1.0,
            "uuid": "63665de5-6376-4918-8dbf-4c10c4d63837",
            "name": "burn",
            "url": "https://haz-map.com/Findings/204",
            "category": "findings"
          },
          {
            "type": "name_match",
            "text": "cyclohexylamine",
            "confidence": 1.0,
            "uuid": "4b55fc89-050d-4cad-9e6c-8b9e91f2b805",
            "name": "Cyclohexylamine",
            "url": "https://haz-map.com/Agents/226",
            "category": "agents"
          },
          {
            "type": "name_match",
            "text": "hexylamine",
            "confidence": 1.0,
            "uuid": "d6024dfe-8865-49e0-9086-0d2662bb2ea8",
            "name": "Hexylamine",
            "url": "https://haz-map.com/Agents/19320",
            "category": "agents"
          }
        ]
      },
      "biomedical_references": {
        "original_name": "Biomedical References",
        "value": "Search PubMed",
        "links": [
          {
            "text": "Search PubMed",
            "url": "https://www.ncbi.nlm.nih.gov/pubmed?term=1%2c3-Cyclohexanediamine%20AND%20human%5Bmh%5D%20AND%20%28Occupational%20Diseases%20%5Bmh%5D%20OR%20Occupational%20Exposure%20%5Bmh%5D%29%20%20AND%20%28tox%5Bsb%5D%29&cmd=search"
          }
        ],
        "cross_references": []
      }
    },
    "exposure_assessment": {
      "lethal_concentration": {
        "original_name": "Lethal Concentration",
        "value": "LCLo (rat) = 2,900 mg/m3/4hr",
        "links": [],
        "cross_references": []
      },
      "explanatory_notes": {
        "original_name": "Explanatory Notes",
        "value": "Vapor pressure = 21 mm Hg at 100 deg C; [DuPont MSDS] The Guide in the Emergency Response Guidebook is for \"Corrosive liquid, toxic, n.o.s.\"",
        "links": [],
        "cross_references": []
      }
    },
    "adverse_effects": {
      "neurotoxin": {
        "original_name": "Neurotoxin",
        "value": "Other CNS neurotoxin",
        "links": [],
        "cross_references": []
      },
      "dermatotoxin": {
        "original_name": "Dermatotoxin",
        "value": "Skin burns",
        "links": [],
        "cross_references": [
          {
            "type": "name_match",
            "text": "burn",
            "confidence": 1.0,
            "uuid": "63665de5-6376-4918-8dbf-4c10c4d63837",
            "name": "burn",
            "url": "https://haz-map.com/Findings/204",
            "category": "findings"
          }
        ]
      }
    },
    "diseases_processes_and_activities_linked_to_this_agent": {
      "other_information": {
        "original_name": "Other Information",
        "value": "No other related information on this agent was found.",
        "links": [],
        "cross_references": []
      }
    }
  },
  "cross_references": [
    {
      "type": "name_match",
      "text": "convulsion",
      "confidence": 1.0,
      "uuid": "af2c36f8-707a-48e3-a62b-1aa07adc9b72",
      "name": "convulsion",
      "url": "https://haz-map.com/Findings/14",
      "category": "findings"
    },
    {
      "type": "name_match",
      "text": "burn",
      "confidence": 1.0,
      "uuid": "63665de5-6376-4918-8dbf-4c10c4d63837",
      "name": "burn",
      "url": "https://haz-map.com/Findings/204",
      "category": "findings"
    },
    {
      "type": "name_match",
      "text": "cyclohexylamine",
      "confidence": 1.0,
      "uuid": "4b55fc89-050d-4cad-9e6c-8b9e91f2b805",
      "name": "Cyclohexylamine",
      "url": "https://haz-map.com/Agents/226",
      "category": "agents"
    },
    {
      "type": "name_match",
      "text": "ammonia",
      "confidence": 1.0,
      "uuid": "4a9ab845-a2cc-47e0-ab5c-e53693380800",
      "name": "Ammonia",
      "url": "https://haz-map.com/Agents/291",
      "category": "agents"
    },
    {
      "type": "name_match",
      "text": "cyclohexane",
      "confidence": 1.0,
      "uuid": "366fabd7-ac2f-461c-969f-62dfe3bf2377",
      "name": "Cyclohexane",
      "url": "https://haz-map.com/Agents/384",
      "category": "agents"
    },
    {
      "type": "name_match",
      "text": "hydrogen",
      "confidence": 1.0,
      "uuid": "e2d9645f-5559-4d88-b820-fc4710c154f2",
      "name": "Hydrogen",
      "url": "https://haz-map.com/Agents/1070",
      "category": "agents"
    },
    {
      "type": "name_match",
      "text": "nitrogen",
      "confidence": 1.0,
      "uuid": "db5e90a9-06d2-45b9-8b81-f345a89b0bc0",
      "name": "Nitrogen",
      "url": "https://haz-map.com/Agents/1072",
      "category": "agents"
    },
    {
      "type": "name_match",
      "text": "m-phenylenediamine",
      "confidence": 1.0,
      "uuid": "3a6f1d2d-6353-4bf1-8f83-18843c001ab8",
      "name": "m-Phenylenediamine",
      "url": "https://haz-map.com/Agents/1667",
      "category": "agents"
    },
    {
      "type": "name_match",
      "text": "1,3-cyclohexanediamine",
      "confidence": 1.0,
      "uuid": "1ce87e32-655e-437e-b8f8-52454c51f473",
      "name": "1,3-Cyclohexanediamine",
      "url": "https://haz-map.com/Agents/9771",
      "category": "agents"
    },
    {
      "type": "name_match",
      "text": "hexanediamine",
      "confidence": 1.0,
      "uuid": "9fbac336-ceeb-4c0a-9ad4-635f4afe9e8f",
      "name": "Hexanediamine",
      "url": "https://haz-map.com/Agents/14621",
      "category": "agents"
    },
    {
      "type": "name_match",
      "text": "hexylamine",
      "confidence": 1.0,
      "uuid": "d6024dfe-8865-49e0-9086-0d2662bb2ea8",
      "name": "Hexylamine",
      "url": "https://haz-map.com/Agents/19320",
      "category": "agents"
    }
  ],
  "all_links": [
    {
      "text": "Search PubMed",
      "url": "https://www.ncbi.nlm.nih.gov/pubmed?term=1%2c3-Cyclohexanediamine%20AND%20human%5Bmh%5D%20AND%20%28Occupational%20Diseases%20%5Bmh%5D%20OR%20Occupational%20Exposure%20%5Bmh%5D%29%20%20AND%20%28tox%5Bsb%5D%29&cmd=search"
    }
  ]
}