{
  "metadata": {
    "scraped_from": "https://haz-map.com/Agents/2482",
    "entity_name": "2-Nitro-p-toluidine",
    "category": "agents",
    "uuid": "1d121222-2dee-4b6f-9582-bb37af4ac812",
    "scraped_at": "2025-07-23T19:13:45.374977"
  },
  "parsed_at": "2025-07-24T00:59:15.757741",
  "title": "2-Nitro-p-toluidine",
  "sections": {
    "general": {
      "agent_name": {
        "original_name": "Agent Name",
        "value": "2-Nitro-p-toluidine",
        "links": [],
        "cross_references": [
          {
            "type": "name_match",
            "text": "p-toluidine",
            "confidence": 1.0,
            "uuid": "0bec36ed-78fe-4ab4-ae71-02439e6b5bee",
            "name": "p-Toluidine",
            "url": "https://haz-map.com/Agents/439",
            "category": "agents"
          },
          {
            "type": "name_match",
            "text": "2-nitro-p-toluidine",
            "confidence": 1.0,
            "uuid": "1d121222-2dee-4b6f-9582-bb37af4ac812",
            "name": "2-Nitro-p-toluidine",
            "url": "https://haz-map.com/Agents/2482",
            "category": "agents"
          }
        ]
      },
      "cas_number": {
        "original_name": "CAS Number",
        "value": "89-62-3",
        "links": [],
        "cross_references": []
      },
      "formula": {
        "original_name": "Formula",
        "value": "C7-H8-N2-O2",
        "links": [],
        "cross_references": []
      },
      "major_category": {
        "original_name": "Major Category",
        "value": "Nitrogen Compounds",
        "links": [],
        "cross_references": [
          {
            "type": "name_match",
            "text": "nitrogen",
            "confidence": 1.0,
            "uuid": "db5e90a9-06d2-45b9-8b81-f345a89b0bc0",
            "name": "Nitrogen",
            "url": "https://haz-map.com/Agents/1072",
            "category": "agents"
          }
        ]
      },
      "synonyms": {
        "original_name": "Synonyms",
        "value": "1-Amino-2-nitro-4-methylbenzene; 2-Nitro-4-methylaniline; 2-Nitro-p-toluidine; 3-Nitro-4-aminotoluene; 3-Nitro-4-toluidine; 4-Amino-3-nitrotoluene; 4-Methyl-2-nitroaniline; 4-Methyl-2-nitrobenzenamine; 4-Methyl-6-nitroaniline; Amarthol Fast Red GL Base; Amarthol Fast Red GL Salt; Azoamine Red A; Azobase NAT; Azoene Fast Red Red GL Salt; Azofix Red GL Salt; Azoic Diazo Component 8; Benzenamine, 4-methyl-2-nitro-; C.I. 37110; C.I. Azoic Diazo Component 8; Devol Red G; Devol Red Salt G; Diazo Fast Red GL; Fast Red 3NT Base; Fast Red 3NT Salt; Fast Red Base GL; Fast Red Base JL; Fast Red G Base; Fast Red GL; Fast Red GL Base; Fast Red MGL Base; HD Fast Red GL Base; Hiltonil Fast Red GL Base; Hiltosal Fast Red GL Salt; Lake Red G Base; Lithosol Scarlet Base M; Lithosol Scarlet Base MB; Lithosol Scarlet Base MBW; Lithosol Scarlet Base MW; MNPT; Mitsui Red GL Base; Naphthanil Red G Base; Naphtoelan Fast Red GL Base; Red Base Ciba VII; Red Base Irga VII; Red Base NGL; Red G Base; Red G Salt; Red Salt Ciba VII; Red Salt Irga VII; Sanyo Fast Red GL Base; Shinnippon Fast Red GL Base; Toyo Fast Red GL Base; Tulabase Fast Red GL; p-Toluidine, 2-nitro-; [ChemIDplus] UN2660",
        "links": [],
        "cross_references": [
          {
            "type": "name_match",
            "text": "benzene",
            "confidence": 1.0,
            "uuid": "b05124de-5f34-4c14-8f04-ccb20c3780d9",
            "name": "Benzene",
            "url": "https://haz-map.com/Agents/5",
            "category": "agents"
          },
          {
            "type": "name_match",
            "text": "toluene",
            "confidence": 1.0,
            "uuid": "0a34d5de-e924-4c47-aff5-7ae8e48c6772",
            "name": "Toluene",
            "url": "https://haz-map.com/Agents/83",
            "category": "agents"
          },
          {
            "type": "name_match",
            "text": "aniline",
            "confidence": 1.0,
            "uuid": "e4932692-8d9c-4a98-8c5c-81e55b12aedf",
            "name": "Aniline",
            "url": "https://haz-map.com/Agents/296",
            "category": "agents"
          },
          {
            "type": "name_match",
            "text": "p-toluidine",
            "confidence": 1.0,
            "uuid": "0bec36ed-78fe-4ab4-ae71-02439e6b5bee",
            "name": "p-Toluidine",
            "url": "https://haz-map.com/Agents/439",
            "category": "agents"
          },
          {
            "type": "name_match",
            "text": "ht",
            "confidence": 1.0,
            "uuid": "764df367-8d53-4a11-81a2-31ccfe122a8d",
            "name": "HT",
            "url": "https://haz-map.com/Agents/2168",
            "category": "agents"
          },
          {
            "type": "name_match",
            "text": "2-nitro-p-toluidine",
            "confidence": 1.0,
            "uuid": "1d121222-2dee-4b6f-9582-bb37af4ac812",
            "name": "2-Nitro-p-toluidine",
            "url": "https://haz-map.com/Agents/2482",
            "category": "agents"
          },
          {
            "type": "name_match",
            "text": "2-nitroaniline",
            "confidence": 1.0,
            "uuid": "6d7d6515-4d7d-48cf-be15-e1f1ce18006a",
            "name": "2-Nitroaniline",
            "url": "https://haz-map.com/Agents/3149",
            "category": "agents"
          }
        ]
      },
      "category": {
        "original_name": "Category",
        "value": "Nitroanilines",
        "links": [],
        "cross_references": [
          {
            "type": "name_match",
            "text": "aniline",
            "confidence": 1.0,
            "uuid": "e4932692-8d9c-4a98-8c5c-81e55b12aedf",
            "name": "Aniline",
            "url": "https://haz-map.com/Agents/296",
            "category": "agents"
          }
        ]
      },
      "description": {
        "original_name": "Description",
        "value": "Red to bright-orange solid; [CAMEO]",
        "links": [],
        "cross_references": [
          {
            "type": "name_match",
            "text": "ht",
            "confidence": 1.0,
            "uuid": "764df367-8d53-4a11-81a2-31ccfe122a8d",
            "name": "HT",
            "url": "https://haz-map.com/Agents/2168",
            "category": "agents"
          }
        ]
      },
      "sourcesuses": {
        "original_name": "Sources/Uses",
        "value": "Used as intermediate for dyes and pigments; [Hawley]",
        "links": [],
        "cross_references": []
      },
      "comments": {
        "original_name": "Comments",
        "value": "A skin, eye, and respiratory tract irritant; [CAMEO] Toxic by ingestion; May be harmful if absorbed through skin or inhaled; May cause methemoglobinemia; \"Stable under recommended storage conditions.\" [MSDSonline]",
        "links": [],
        "cross_references": [
          {
            "type": "name_match",
            "text": "methemoglobin",
            "confidence": 1.0,
            "uuid": "afb7ebf5-d2a3-4e60-8d2e-3a19456344ee",
            "name": "Methemoglobin",
            "url": "https://haz-map.com/Agents/15467",
            "category": "agents"
          },
          {
            "type": "fuzzy_match",
            "text": "methemoglobinemia",
            "matched_name": "Methemoglobinemia, acute",
            "confidence": 0.7208333333333333,
            "uuid": "473a44bd-cf11-4710-a769-e8e2b25ba317",
            "category": "diseases",
            "url": "https://haz-map.com/Diseases/210"
          }
        ]
      },
      "biomedical_references": {
        "original_name": "Biomedical References",
        "value": "Search PubMed",
        "links": [
          {
            "text": "Search PubMed",
            "url": "https://www.ncbi.nlm.nih.gov/pubmed?term=2-Nitro-p-toluidine%20AND%20human%5Bmh%5D%20AND%20%28Occupational%20Diseases%20%5Bmh%5D%20OR%20Occupational%20Exposure%20%5Bmh%5D%29%20%20AND%20%28tox%5Bsb%5D%29&cmd=search"
          }
        ],
        "cross_references": []
      }
    },
    "exposure_assessment": {
      "vapor_pressure": {
        "original_name": "Vapor Pressure",
        "value": "0.000972 mm Hg",
        "links": [],
        "cross_references": []
      },
      "explanatory_notes": {
        "original_name": "Explanatory Notes",
        "value": "Flash point = 315 deg F; [CAMEO] mp = 115-116 deg C; [MSDSonline]",
        "links": [],
        "cross_references": [
          {
            "type": "name_match",
            "text": "ash",
            "confidence": 1.0,
            "uuid": "68b360f1-5ad0-4337-bea0-d7adca2961b5",
            "name": "Ash",
            "url": "https://haz-map.com/Agents/965",
            "category": "agents"
          }
        ]
      },
      "nfpa": {
        "original_name": "NFPA",
        "value": "must be preheated",
        "links": [],
        "cross_references": []
      }
    },
    "adverse_effects": {
      "methemoglobinemia": {
        "original_name": "Methemoglobinemia",
        "value": "MetHgb is secondary toxic effect",
        "links": [],
        "cross_references": []
      }
    },
    "diseases_processes_and_activities_linked_to_this_agent": {
      "other_information": {
        "original_name": "Other Information",
        "value": "No other related information on this agent was found.",
        "links": [],
        "cross_references": []
      }
    }
  },
  "cross_references": [
    {
      "type": "name_match",
      "text": "benzene",
      "confidence": 1.0,
      "uuid": "b05124de-5f34-4c14-8f04-ccb20c3780d9",
      "name": "Benzene",
      "url": "https://haz-map.com/Agents/5",
      "category": "agents"
    },
    {
      "type": "name_match",
      "text": "toluene",
      "confidence": 1.0,
      "uuid": "0a34d5de-e924-4c47-aff5-7ae8e48c6772",
      "name": "Toluene",
      "url": "https://haz-map.com/Agents/83",
      "category": "agents"
    },
    {
      "type": "name_match",
      "text": "aniline",
      "confidence": 1.0,
      "uuid": "e4932692-8d9c-4a98-8c5c-81e55b12aedf",
      "name": "Aniline",
      "url": "https://haz-map.com/Agents/296",
      "category": "agents"
    },
    {
      "type": "name_match",
      "text": "p-toluidine",
      "confidence": 1.0,
      "uuid": "0bec36ed-78fe-4ab4-ae71-02439e6b5bee",
      "name": "p-Toluidine",
      "url": "https://haz-map.com/Agents/439",
      "category": "agents"
    },
    {
      "type": "name_match",
      "text": "ash",
      "confidence": 1.0,
      "uuid": "68b360f1-5ad0-4337-bea0-d7adca2961b5",
      "name": "Ash",
      "url": "https://haz-map.com/Agents/965",
      "category": "agents"
    },
    {
      "type": "name_match",
      "text": "nitrogen",
      "confidence": 1.0,
      "uuid": "db5e90a9-06d2-45b9-8b81-f345a89b0bc0",
      "name": "Nitrogen",
      "url": "https://haz-map.com/Agents/1072",
      "category": "agents"
    },
    {
      "type": "name_match",
      "text": "ht",
      "confidence": 1.0,
      "uuid": "764df367-8d53-4a11-81a2-31ccfe122a8d",
      "name": "HT",
      "url": "https://haz-map.com/Agents/2168",
      "category": "agents"
    },
    {
      "type": "name_match",
      "text": "2-nitro-p-toluidine",
      "confidence": 1.0,
      "uuid": "1d121222-2dee-4b6f-9582-bb37af4ac812",
      "name": "2-Nitro-p-toluidine",
      "url": "https://haz-map.com/Agents/2482",
      "category": "agents"
    },
    {
      "type": "name_match",
      "text": "2-nitroaniline",
      "confidence": 1.0,
      "uuid": "6d7d6515-4d7d-48cf-be15-e1f1ce18006a",
      "name": "2-Nitroaniline",
      "url": "https://haz-map.com/Agents/3149",
      "category": "agents"
    },
    {
      "type": "name_match",
      "text": "methemoglobin",
      "confidence": 1.0,
      "uuid": "afb7ebf5-d2a3-4e60-8d2e-3a19456344ee",
      "name": "Methemoglobin",
      "url": "https://haz-map.com/Agents/15467",
      "category": "agents"
    },
    {
      "type": "fuzzy_match",
      "text": "methemoglobinemia",
      "matched_name": "Methemoglobinemia, acute",
      "confidence": 0.7208333333333333,
      "uuid": "473a44bd-cf11-4710-a769-e8e2b25ba317",
      "category": "diseases",
      "url": "https://haz-map.com/Diseases/210"
    }
  ],
  "all_links": [
    {
      "text": "Search PubMed",
      "url": "https://www.ncbi.nlm.nih.gov/pubmed?term=2-Nitro-p-toluidine%20AND%20human%5Bmh%5D%20AND%20%28Occupational%20Diseases%20%5Bmh%5D%20OR%20Occupational%20Exposure%20%5Bmh%5D%29%20%20AND%20%28tox%5Bsb%5D%29&cmd=search"
    }
  ]
}