{
  "metadata": {
    "scraped_from": "https://haz-map.com/Agents/19085",
    "entity_name": "Dihydromyrcene",
    "category": "agents",
    "uuid": "1d176c61-b143-4006-8b8e-937972b1150b",
    "scraped_at": "2025-07-23T21:59:32.233555"
  },
  "parsed_at": "2025-07-24T01:15:51.464533",
  "title": "Dihydromyrcene",
  "sections": {
    "general": {
      "agent_name": {
        "original_name": "Agent Name",
        "value": "Dihydromyrcene",
        "links": [],
        "cross_references": [
          {
            "type": "name_match",
            "text": "myrcene",
            "confidence": 1.0,
            "uuid": "028a9d7d-6602-4136-bf25-70deab0283ed",
            "name": "Myrcene",
            "url": "https://haz-map.com/Agents/6217",
            "category": "agents"
          },
          {
            "type": "name_match",
            "text": "dihydromyrcene",
            "confidence": 1.0,
            "uuid": "1d176c61-b143-4006-8b8e-937972b1150b",
            "name": "Dihydromyrcene",
            "url": "https://haz-map.com/Agents/19085",
            "category": "agents"
          }
        ]
      },
      "cas_number": {
        "original_name": "CAS Number",
        "value": "2436-90-0",
        "links": [],
        "cross_references": []
      },
      "formula": {
        "original_name": "Formula",
        "value": "C10-H18",
        "links": [],
        "cross_references": []
      },
      "major_category": {
        "original_name": "Major Category",
        "value": "Biological Agents",
        "links": [],
        "cross_references": []
      },
      "synonyms": {
        "original_name": "Synonyms",
        "value": "3,7-Dimethylocta-1,6-diene; 1,6-Octadiene, 3,7-dimethyl-; 3,7-Dimethyl-1,6-octadiene; Citronellene; [ChemIDplus] UN2319",
        "links": [],
        "cross_references": [
          {
            "type": "name_match",
            "text": "octadiene",
            "confidence": 1.0,
            "uuid": "1c5a8b36-be1a-4a27-beee-c85bdd9789c7",
            "name": "Octadiene",
            "url": "https://haz-map.com/Agents/16220",
            "category": "agents"
          }
        ]
      },
      "category": {
        "original_name": "Category",
        "value": "Terpenes",
        "links": [],
        "cross_references": [
          {
            "type": "name_match",
            "text": "terpenes",
            "confidence": 1.0,
            "uuid": "0a11dd9e-f81d-477b-b44c-85ca49ab02f4",
            "name": "TERPENES",
            "url": "https://haz-map.com/Agents/817",
            "category": "agents"
          }
        ]
      },
      "description": {
        "original_name": "Description",
        "value": "Liquid; [EPA ChAMP: Hazard Characterization: Monoterpene Hydrocarbons Category - 2009] Clear colorless liquid; [Sigma-Aldrich MSDS]",
        "links": [],
        "cross_references": [
          {
            "type": "name_match",
            "text": "carbon",
            "confidence": 1.0,
            "uuid": "b53f8815-ee80-40ef-b4aa-3b000e17dab5",
            "name": "Carbon",
            "url": "https://haz-map.com/Agents/1891",
            "category": "agents"
          },
          {
            "type": "fuzzy_match",
            "text": "hydrocarbons",
            "matched_name": "Hydrocarbons, C>3",
            "confidence": 0.7100840336134454,
            "uuid": "8eaa37ac-3931-44e4-9242-2734127fd661",
            "category": "agents",
            "url": "https://haz-map.com/Agents/14795"
          }
        ]
      },
      "sourcesuses": {
        "original_name": "Sources/Uses",
        "value": "Monoterpene hydrocarbons are found in all plants and common in foods; Used as intermediates, odor agents, flavoring agents, and solvents for cleaning and degreasing in products including soaps, detergents, automotive care products, rubber and plastic products, polishes, and sanitation products; [EPA ChAMP: Hazard Characterization: Monoterpene Hydrocarbons Category - 2009]",
        "links": [],
        "cross_references": [
          {
            "type": "name_match",
            "text": "carbon",
            "confidence": 1.0,
            "uuid": "b53f8815-ee80-40ef-b4aa-3b000e17dab5",
            "name": "Carbon",
            "url": "https://haz-map.com/Agents/1891",
            "category": "agents"
          },
          {
            "type": "fuzzy_match",
            "text": "hydrocarbons",
            "matched_name": "Hydrocarbons, C>3",
            "confidence": 0.7100840336134454,
            "uuid": "8eaa37ac-3931-44e4-9242-2734127fd661",
            "category": "agents",
            "url": "https://haz-map.com/Agents/14795"
          }
        ]
      },
      "comments": {
        "original_name": "Comments",
        "value": "Skin sensitization in guinea pigs and humans; Histopathological liver changes in repeated-dose oral studies of mice at 1,000 mg/kg/day; [EPA ChAMP: Hazard Characterization: Monoterpene Hydrocarbons Category - 2009] See \"Myrcene.\"",
        "links": [],
        "cross_references": [
          {
            "type": "name_match",
            "text": "carbon",
            "confidence": 1.0,
            "uuid": "b53f8815-ee80-40ef-b4aa-3b000e17dab5",
            "name": "Carbon",
            "url": "https://haz-map.com/Agents/1891",
            "category": "agents"
          },
          {
            "type": "name_match",
            "text": "myrcene",
            "confidence": 1.0,
            "uuid": "028a9d7d-6602-4136-bf25-70deab0283ed",
            "name": "Myrcene",
            "url": "https://haz-map.com/Agents/6217",
            "category": "agents"
          },
          {
            "type": "fuzzy_match",
            "text": "hydrocarbons",
            "matched_name": "Hydrocarbons, C>3",
            "confidence": 0.7100840336134454,
            "uuid": "8eaa37ac-3931-44e4-9242-2734127fd661",
            "category": "agents",
            "url": "https://haz-map.com/Agents/14795"
          }
        ]
      },
      "biomedical_references": {
        "original_name": "Biomedical References",
        "value": "Search PubMed",
        "links": [
          {
            "text": "Search PubMed",
            "url": "https://www.ncbi.nlm.nih.gov/pubmed?term=Dihydromyrcene%20AND%20human%5Bmh%5D%20AND%20%28Occupational%20Diseases%20%5Bmh%5D%20OR%20Occupational%20Exposure%20%5Bmh%5D%29%20%20AND%20%28tox%5Bsb%5D%29&cmd=search"
          }
        ],
        "cross_references": []
      }
    },
    "exposure_assessment": {
      "vapor_pressure": {
        "original_name": "Vapor Pressure",
        "value": "2.57 mm Hg",
        "links": [],
        "cross_references": []
      },
      "explanatory_notes": {
        "original_name": "Explanatory Notes",
        "value": "The Guide in the Emergency Response Guidebook is for \"Terpene hydrocarbons, n.o.s.\"",
        "links": [],
        "cross_references": [
          {
            "type": "name_match",
            "text": "carbon",
            "confidence": 1.0,
            "uuid": "b53f8815-ee80-40ef-b4aa-3b000e17dab5",
            "name": "Carbon",
            "url": "https://haz-map.com/Agents/1891",
            "category": "agents"
          },
          {
            "type": "fuzzy_match",
            "text": "hydrocarbons",
            "matched_name": "Hydrocarbons, C>3",
            "confidence": 0.7100840336134454,
            "uuid": "8eaa37ac-3931-44e4-9242-2734127fd661",
            "category": "agents",
            "url": "https://haz-map.com/Agents/14795"
          }
        ]
      }
    },
    "adverse_effects": {
      "skin_sensitizer": {
        "original_name": "Skin Sensitizer",
        "value": "Yes",
        "links": [],
        "cross_references": []
      },
      "neurotoxin": {
        "original_name": "Neurotoxin",
        "value": "Acute solvent syndrome",
        "links": [],
        "cross_references": []
      },
      "hepatotoxin": {
        "original_name": "Hepatotoxin",
        "value": "Hepatoxic (a) from occupational exposure (secondary effect) or (b) in animal studies or in humans after ingestion",
        "links": [],
        "cross_references": []
      }
    },
    "diseases_processes_and_activities_linked_to_this_agent": {
      "diseases": {
        "original_name": "Diseases",
        "value": "Occupational diseases associated with exposure to this agent: Contact dermatitis, allergic Solvents, acute toxic effect",
        "links": [
          {
            "text": "Contact dermatitis, allergic",
            "url": "https://haz-map.com/Diseases/18"
          },
          {
            "text": "Solvents, acute toxic effect",
            "url": "https://haz-map.com/Diseases/326"
          }
        ],
        "cross_references": [
          {
            "type": "url_match",
            "text": "Contact dermatitis, allergic",
            "url": "https://haz-map.com/Diseases/18",
            "confidence": 1.0,
            "uuid": "c9499de0-9aa1-41bf-8753-cd5b28a63e29",
            "name": "Contact dermatitis, allergic",
            "category": "diseases"
          },
          {
            "type": "url_match",
            "text": "Solvents, acute toxic effect",
            "url": "https://haz-map.com/Diseases/326",
            "confidence": 1.0,
            "uuid": "581e90e3-9d0c-45f0-aa6c-3468c28da129",
            "name": "Solvents, acute toxic effect",
            "category": "diseases"
          },
          {
            "type": "name_match",
            "text": "dermatitis",
            "confidence": 1.0,
            "uuid": "fe9c05f2-b19f-4ceb-ac7a-ffb7d7a0cae0",
            "name": "dermatitis",
            "url": "https://haz-map.com/Findings/59",
            "category": "findings"
          }
        ]
      },
      "processes": {
        "original_name": "Processes",
        "value": "Industrial Processes with risk of exposure: Metal Degreasing",
        "links": [
          {
            "text": "Metal Degreasing",
            "url": "https://haz-map.com/Processes/9"
          }
        ],
        "cross_references": [
          {
            "type": "url_match",
            "text": "Metal Degreasing",
            "url": "https://haz-map.com/Processes/9",
            "confidence": 1.0,
            "uuid": "7f7d1988-b456-403f-a356-245ce5458f96",
            "name": "Metal Degreasing",
            "category": "processes"
          }
        ]
      }
    }
  },
  "cross_references": [
    {
      "type": "url_match",
      "text": "Contact dermatitis, allergic",
      "url": "https://haz-map.com/Diseases/18",
      "confidence": 1.0,
      "uuid": "c9499de0-9aa1-41bf-8753-cd5b28a63e29",
      "name": "Contact dermatitis, allergic",
      "category": "diseases"
    },
    {
      "type": "url_match",
      "text": "Solvents, acute toxic effect",
      "url": "https://haz-map.com/Diseases/326",
      "confidence": 1.0,
      "uuid": "581e90e3-9d0c-45f0-aa6c-3468c28da129",
      "name": "Solvents, acute toxic effect",
      "category": "diseases"
    },
    {
      "type": "url_match",
      "text": "Metal Degreasing",
      "url": "https://haz-map.com/Processes/9",
      "confidence": 1.0,
      "uuid": "7f7d1988-b456-403f-a356-245ce5458f96",
      "name": "Metal Degreasing",
      "category": "processes"
    },
    {
      "type": "name_match",
      "text": "dermatitis",
      "confidence": 1.0,
      "uuid": "fe9c05f2-b19f-4ceb-ac7a-ffb7d7a0cae0",
      "name": "dermatitis",
      "url": "https://haz-map.com/Findings/59",
      "category": "findings"
    },
    {
      "type": "name_match",
      "text": "terpenes",
      "confidence": 1.0,
      "uuid": "0a11dd9e-f81d-477b-b44c-85ca49ab02f4",
      "name": "TERPENES",
      "url": "https://haz-map.com/Agents/817",
      "category": "agents"
    },
    {
      "type": "name_match",
      "text": "carbon",
      "confidence": 1.0,
      "uuid": "b53f8815-ee80-40ef-b4aa-3b000e17dab5",
      "name": "Carbon",
      "url": "https://haz-map.com/Agents/1891",
      "category": "agents"
    },
    {
      "type": "name_match",
      "text": "myrcene",
      "confidence": 1.0,
      "uuid": "028a9d7d-6602-4136-bf25-70deab0283ed",
      "name": "Myrcene",
      "url": "https://haz-map.com/Agents/6217",
      "category": "agents"
    },
    {
      "type": "name_match",
      "text": "octadiene",
      "confidence": 1.0,
      "uuid": "1c5a8b36-be1a-4a27-beee-c85bdd9789c7",
      "name": "Octadiene",
      "url": "https://haz-map.com/Agents/16220",
      "category": "agents"
    },
    {
      "type": "name_match",
      "text": "dihydromyrcene",
      "confidence": 1.0,
      "uuid": "1d176c61-b143-4006-8b8e-937972b1150b",
      "name": "Dihydromyrcene",
      "url": "https://haz-map.com/Agents/19085",
      "category": "agents"
    },
    {
      "type": "fuzzy_match",
      "text": "hydrocarbons",
      "matched_name": "Hydrocarbons, C>3",
      "confidence": 0.7100840336134454,
      "uuid": "8eaa37ac-3931-44e4-9242-2734127fd661",
      "category": "agents",
      "url": "https://haz-map.com/Agents/14795"
    }
  ],
  "all_links": [
    {
      "text": "Search PubMed",
      "url": "https://www.ncbi.nlm.nih.gov/pubmed?term=Dihydromyrcene%20AND%20human%5Bmh%5D%20AND%20%28Occupational%20Diseases%20%5Bmh%5D%20OR%20Occupational%20Exposure%20%5Bmh%5D%29%20%20AND%20%28tox%5Bsb%5D%29&cmd=search"
    },
    {
      "text": "Contact dermatitis, allergic",
      "url": "https://haz-map.com/Diseases/18"
    },
    {
      "text": "Solvents, acute toxic effect",
      "url": "https://haz-map.com/Diseases/326"
    },
    {
      "text": "Metal Degreasing",
      "url": "https://haz-map.com/Processes/9"
    }
  ]
}