{
  "metadata": {
    "scraped_from": "https://haz-map.com/Agents/5116",
    "entity_name": "Erucic acid",
    "category": "agents",
    "uuid": "1d2bb129-048b-4e88-9dd0-8cb9ce22dd07",
    "scraped_at": "2025-07-23T19:49:08.603394"
  },
  "parsed_at": "2025-07-24T00:57:30.439571",
  "title": "Erucic acid",
  "sections": {
    "general": {
      "agent_name": {
        "original_name": "Agent Name",
        "value": "Erucic acid",
        "links": [],
        "cross_references": [
          {
            "type": "name_match",
            "text": "erucic acid",
            "confidence": 1.0,
            "uuid": "1d2bb129-048b-4e88-9dd0-8cb9ce22dd07",
            "name": "Erucic acid",
            "url": "https://haz-map.com/Agents/5116",
            "category": "agents"
          }
        ]
      },
      "cas_number": {
        "original_name": "CAS Number",
        "value": "112-86-7",
        "links": [],
        "cross_references": []
      },
      "formula": {
        "original_name": "Formula",
        "value": "C22-H42-O2",
        "links": [],
        "cross_references": []
      },
      "major_category": {
        "original_name": "Major Category",
        "value": "Other Classes",
        "links": [],
        "cross_references": []
      },
      "synonyms": {
        "original_name": "Synonyms",
        "value": "13-cis-Docosenoic acid; Hystrene 2290; Z-13-Docosenoic acid; cis-13-Docosenoic acid; delta13-cis-Docosenoic acid; delta13:14-Docosenoic acid; (Z)-Docos-13-enoic acid; 13-Docosenoic acid, (13Z)-; 13-Docosenoic acid, (Z)-; [ChemIDplus]",
        "links": [],
        "cross_references": []
      },
      "category": {
        "original_name": "Category",
        "value": "Organic Acids",
        "links": [],
        "cross_references": []
      },
      "description": {
        "original_name": "Description",
        "value": "Solid; mp = 33.8 deg C; [Merck Index] Fine white crystals; [MSDSonline]",
        "links": [],
        "cross_references": []
      },
      "sourcesuses": {
        "original_name": "Sources/Uses",
        "value": "Isolated from the fats and oils of mustard seed, rapeseed, and crambe seed; [Hawley] Used as lubricant additive and chemical intermediate; [HSDB]",
        "links": [],
        "cross_references": [
          {
            "type": "name_match",
            "text": "mica",
            "confidence": 1.0,
            "uuid": "433f26f1-c399-4596-b179-ce3843cfd465",
            "name": "Mica",
            "url": "https://haz-map.com/Agents/621",
            "category": "agents"
          }
        ]
      },
      "comments": {
        "original_name": "Comments",
        "value": "Caused asymptomatic thrombocytopenia in patients receiving Lorenzo's oil (erucic acid and oleic acid); Low platelet count reversed within 2-3 weeks of discontinuing erucic acid; Rabbits fed 40 cal% rapeseed oil versus 40 cal% sunflower oil for 84 weeks developed myocardial fibrosis, hepatic cirrhosis, and increased serum cholesterol; [HSDB] An irritant; Targets the liver and heart; [MSDSonline]",
        "links": [],
        "cross_references": [
          {
            "type": "name_match",
            "text": "thrombocytopenia",
            "confidence": 1.0,
            "uuid": "4258714e-a280-4437-922e-e8092f274e32",
            "name": "thrombocytopenia",
            "url": "https://haz-map.com/Findings/39",
            "category": "findings"
          },
          {
            "type": "name_match",
            "text": "erucic acid",
            "confidence": 1.0,
            "uuid": "1d2bb129-048b-4e88-9dd0-8cb9ce22dd07",
            "name": "Erucic acid",
            "url": "https://haz-map.com/Agents/5116",
            "category": "agents"
          },
          {
            "type": "name_match",
            "text": "oleic acid",
            "confidence": 1.0,
            "uuid": "92fd92b6-f74c-4bd2-b9f1-919fbad882ae",
            "name": "Oleic acid",
            "url": "https://haz-map.com/Agents/6455",
            "category": "agents"
          },
          {
            "type": "name_match",
            "text": "cholesterol",
            "confidence": 1.0,
            "uuid": "3e9e7ae0-82d3-48a0-b599-722a89aa7bfc",
            "name": "Cholesterol",
            "url": "https://haz-map.com/Agents/12966",
            "category": "agents"
          }
        ]
      },
      "biomedical_references": {
        "original_name": "Biomedical References",
        "value": "Search PubMed",
        "links": [
          {
            "text": "Search PubMed",
            "url": "https://www.ncbi.nlm.nih.gov/pubmed?term=Erucic+acid%20AND%20human%5Bmh%5D%20AND%20%28Occupational%20Diseases%20%5Bmh%5D%20OR%20Occupational%20Exposure%20%5Bmh%5D%29%20%20AND%20%28tox%5Bsb%5D%29&cmd=search"
          }
        ],
        "cross_references": []
      }
    },
    "exposure_assessment": {
      "vapor_pressure": {
        "original_name": "Vapor Pressure",
        "value": "1.15E-06 mm Hg",
        "links": [],
        "cross_references": []
      }
    },
    "adverse_effects": {
      "hepatotoxin": {
        "original_name": "Hepatotoxin",
        "value": "Hepatoxic (a) from occupational exposure (secondary effect) or (b) in animal studies or in humans after ingestion",
        "links": [],
        "cross_references": []
      }
    },
    "diseases_processes_and_activities_linked_to_this_agent": {
      "processes": {
        "original_name": "Processes",
        "value": "Industrial Processes with risk of exposure: Textiles (Fiber & Fabric Manufacturing)",
        "links": [
          {
            "text": "Textiles (Fiber & Fabric Manufacturing)",
            "url": "https://haz-map.com/Processes/135"
          }
        ],
        "cross_references": [
          {
            "type": "url_match",
            "text": "Textiles (Fiber & Fabric Manufacturing)",
            "url": "https://haz-map.com/Processes/135",
            "confidence": 1.0,
            "uuid": "43ebdcdb-bb09-4402-87b6-ae8cf169dddd",
            "name": "Textiles (Fiber & Fabric Manufacturing)",
            "category": "processes"
          }
        ]
      }
    }
  },
  "cross_references": [
    {
      "type": "url_match",
      "text": "Textiles (Fiber & Fabric Manufacturing)",
      "url": "https://haz-map.com/Processes/135",
      "confidence": 1.0,
      "uuid": "43ebdcdb-bb09-4402-87b6-ae8cf169dddd",
      "name": "Textiles (Fiber & Fabric Manufacturing)",
      "category": "processes"
    },
    {
      "type": "name_match",
      "text": "thrombocytopenia",
      "confidence": 1.0,
      "uuid": "4258714e-a280-4437-922e-e8092f274e32",
      "name": "thrombocytopenia",
      "url": "https://haz-map.com/Findings/39",
      "category": "findings"
    },
    {
      "type": "name_match",
      "text": "mica",
      "confidence": 1.0,
      "uuid": "433f26f1-c399-4596-b179-ce3843cfd465",
      "name": "Mica",
      "url": "https://haz-map.com/Agents/621",
      "category": "agents"
    },
    {
      "type": "name_match",
      "text": "erucic acid",
      "confidence": 1.0,
      "uuid": "1d2bb129-048b-4e88-9dd0-8cb9ce22dd07",
      "name": "Erucic acid",
      "url": "https://haz-map.com/Agents/5116",
      "category": "agents"
    },
    {
      "type": "name_match",
      "text": "oleic acid",
      "confidence": 1.0,
      "uuid": "92fd92b6-f74c-4bd2-b9f1-919fbad882ae",
      "name": "Oleic acid",
      "url": "https://haz-map.com/Agents/6455",
      "category": "agents"
    },
    {
      "type": "name_match",
      "text": "cholesterol",
      "confidence": 1.0,
      "uuid": "3e9e7ae0-82d3-48a0-b599-722a89aa7bfc",
      "name": "Cholesterol",
      "url": "https://haz-map.com/Agents/12966",
      "category": "agents"
    }
  ],
  "all_links": [
    {
      "text": "Search PubMed",
      "url": "https://www.ncbi.nlm.nih.gov/pubmed?term=Erucic+acid%20AND%20human%5Bmh%5D%20AND%20%28Occupational%20Diseases%20%5Bmh%5D%20OR%20Occupational%20Exposure%20%5Bmh%5D%29%20%20AND%20%28tox%5Bsb%5D%29&cmd=search"
    },
    {
      "text": "Textiles (Fiber & Fabric Manufacturing)",
      "url": "https://haz-map.com/Processes/135"
    }
  ]
}