{
  "metadata": {
    "scraped_from": "https://haz-map.com/Agents/2914",
    "entity_name": "Stearyl alcohol",
    "category": "agents",
    "uuid": "1d71d7e2-1885-4381-ae3f-ed9fb2a00641",
    "scraped_at": "2025-07-23T19:20:54.526144"
  },
  "parsed_at": "2025-07-24T01:12:22.436338",
  "title": "Stearyl alcohol",
  "sections": {
    "general": {
      "agent_name": {
        "original_name": "Agent Name",
        "value": "Stearyl alcohol",
        "links": [],
        "cross_references": [
          {
            "type": "name_match",
            "text": "tea",
            "confidence": 1.0,
            "uuid": "773409e5-ac1a-4c9e-9470-9667ca82091c",
            "name": "Tea",
            "url": "https://haz-map.com/Agents/878",
            "category": "agents"
          },
          {
            "type": "name_match",
            "text": "stearyl alcohol",
            "confidence": 1.0,
            "uuid": "1d71d7e2-1885-4381-ae3f-ed9fb2a00641",
            "name": "Stearyl alcohol",
            "url": "https://haz-map.com/Agents/2914",
            "category": "agents"
          }
        ]
      },
      "alternative_name": {
        "original_name": "Alternative Name",
        "value": "1-Octadecanol",
        "links": [],
        "cross_references": []
      },
      "cas_number": {
        "original_name": "CAS Number",
        "value": "112-92-5",
        "links": [],
        "cross_references": []
      },
      "formula": {
        "original_name": "Formula",
        "value": "C18-H38-O",
        "links": [],
        "cross_references": []
      },
      "major_category": {
        "original_name": "Major Category",
        "value": "Other Classes",
        "links": [],
        "cross_references": []
      },
      "synonyms": {
        "original_name": "Synonyms",
        "value": "1-Octadecanol; 1-Hydroxyoctadecane; Adol 68; Alcohol stearylicus; Alcohol(C18); Aldol 62; Alfol 18; Atalco S; C18 alcohol; CO-1895; CO-1897; Cachalot S-43; Crodacol-S; Decyl octyl alcohol; Dytol E-46; Fatty alcohol(C18); Lanol S; Lorol 28; Octadecanol; Octadecyl alcohol; Octadecylalkohol; Polaax; Sipol S; Siponol S; Siponol SC; Stearic alcohol; Stearol; Stenol; Steraffine; USP XIII stearyl alcohol; n-1-Octadecanol; n-Octadecanol; n-Octadecyl alcohol; [ChemIDplus]",
        "links": [],
        "cross_references": [
          {
            "type": "name_match",
            "text": "tea",
            "confidence": 1.0,
            "uuid": "773409e5-ac1a-4c9e-9470-9667ca82091c",
            "name": "Tea",
            "url": "https://haz-map.com/Agents/878",
            "category": "agents"
          },
          {
            "type": "name_match",
            "text": "octadecane",
            "confidence": 1.0,
            "uuid": "b225cac9-ed31-4c8b-82c2-1687df01fe67",
            "name": "Octadecane",
            "url": "https://haz-map.com/Agents/1908",
            "category": "agents"
          },
          {
            "type": "name_match",
            "text": "stearyl alcohol",
            "confidence": 1.0,
            "uuid": "1d71d7e2-1885-4381-ae3f-ed9fb2a00641",
            "name": "Stearyl alcohol",
            "url": "https://haz-map.com/Agents/2914",
            "category": "agents"
          }
        ]
      },
      "category": {
        "original_name": "Category",
        "value": "Alcohols and Polyols, Other",
        "links": [],
        "cross_references": []
      },
      "description": {
        "original_name": "Description",
        "value": "White solid; [Hawley]",
        "links": [],
        "cross_references": []
      },
      "sourcesuses": {
        "original_name": "Sources/Uses",
        "value": "Used as a substitute for cetyl alcohol in pharmaceutical dispensing; in cosmetic creams and perfumery; in textile oils and finishes; as an antifoam agent; and in lubricants, resins, and surface active agents; Synthetic stearyl alcohol has been approved as a direct and indirect food additive ingredient and as an ingredient in over-the-counter drugs; [HSDB]",
        "links": [],
        "cross_references": [
          {
            "type": "name_match",
            "text": "tea",
            "confidence": 1.0,
            "uuid": "773409e5-ac1a-4c9e-9470-9667ca82091c",
            "name": "Tea",
            "url": "https://haz-map.com/Agents/878",
            "category": "agents"
          },
          {
            "type": "name_match",
            "text": "cetyl alcohol",
            "confidence": 1.0,
            "uuid": "ecc78178-8f91-489b-b318-466be569eca4",
            "name": "Cetyl alcohol",
            "url": "https://haz-map.com/Agents/2890",
            "category": "agents"
          },
          {
            "type": "name_match",
            "text": "stearyl alcohol",
            "confidence": 1.0,
            "uuid": "1d71d7e2-1885-4381-ae3f-ed9fb2a00641",
            "name": "Stearyl alcohol",
            "url": "https://haz-map.com/Agents/2914",
            "category": "agents"
          }
        ]
      },
      "comments": {
        "original_name": "Comments",
        "value": "Higher alcohols are not highly toxic in the industrial setting; Can cause liver injury, somnolence, and respiratory depression in experimental animals; [HSDB] Causes somnolence in lethal-dose feeding studies of rats; [RTECS] No listed effects of short-term or long-term exposure; \"Health effects of exposure to the substance have been investigated extensively but none have been found.\" [ICSC] An irritant; [MSDSonline]",
        "links": [],
        "cross_references": []
      },
      "biomedical_references": {
        "original_name": "Biomedical References",
        "value": "Search PubMed",
        "links": [
          {
            "text": "Search PubMed",
            "url": "https://www.ncbi.nlm.nih.gov/pubmed?term=Stearyl+alcohol%20AND%20human%5Bmh%5D%20AND%20%28Occupational%20Diseases%20%5Bmh%5D%20OR%20Occupational%20Exposure%20%5Bmh%5D%29%20%20AND%20%28tox%5Bsb%5D%29&cmd=search"
          }
        ],
        "cross_references": []
      }
    },
    "exposure_assessment": {
      "vapor_pressure": {
        "original_name": "Vapor Pressure",
        "value": "2.7E-06 mm Hg",
        "links": [],
        "cross_references": []
      },
      "explanatory_notes": {
        "original_name": "Explanatory Notes",
        "value": "Flash point = 200 deg C; [HSDB]; VP from ChemIDplus;",
        "links": [],
        "cross_references": [
          {
            "type": "name_match",
            "text": "ash",
            "confidence": 1.0,
            "uuid": "68b360f1-5ad0-4337-bea0-d7adca2961b5",
            "name": "Ash",
            "url": "https://haz-map.com/Agents/965",
            "category": "agents"
          }
        ]
      }
    },
    "adverse_effects": {
      "neurotoxin": {
        "original_name": "Neurotoxin",
        "value": "Acute solvent syndrome",
        "links": [],
        "cross_references": []
      },
      "hepatotoxin": {
        "original_name": "Hepatotoxin",
        "value": "Hepatoxic (a) from occupational exposure (secondary effect) or (b) in animal studies or in humans after ingestion",
        "links": [],
        "cross_references": []
      }
    },
    "diseases_processes_and_activities_linked_to_this_agent": {
      "diseases": {
        "original_name": "Diseases",
        "value": "Occupational diseases associated with exposure to this agent: Solvents, acute toxic effect",
        "links": [
          {
            "text": "Solvents, acute toxic effect",
            "url": "https://haz-map.com/Diseases/326"
          }
        ],
        "cross_references": [
          {
            "type": "url_match",
            "text": "Solvents, acute toxic effect",
            "url": "https://haz-map.com/Diseases/326",
            "confidence": 1.0,
            "uuid": "581e90e3-9d0c-45f0-aa6c-3468c28da129",
            "name": "Solvents, acute toxic effect",
            "category": "diseases"
          }
        ]
      },
      "processes": {
        "original_name": "Processes",
        "value": "Industrial Processes with risk of exposure: Textiles (Printing, Dyeing, or Finishing)",
        "links": [
          {
            "text": "Textiles (Printing, Dyeing, or Finishing)",
            "url": "https://haz-map.com/Processes/235"
          }
        ],
        "cross_references": []
      }
    }
  },
  "cross_references": [
    {
      "type": "url_match",
      "text": "Solvents, acute toxic effect",
      "url": "https://haz-map.com/Diseases/326",
      "confidence": 1.0,
      "uuid": "581e90e3-9d0c-45f0-aa6c-3468c28da129",
      "name": "Solvents, acute toxic effect",
      "category": "diseases"
    },
    {
      "type": "name_match",
      "text": "tea",
      "confidence": 1.0,
      "uuid": "773409e5-ac1a-4c9e-9470-9667ca82091c",
      "name": "Tea",
      "url": "https://haz-map.com/Agents/878",
      "category": "agents"
    },
    {
      "type": "name_match",
      "text": "ash",
      "confidence": 1.0,
      "uuid": "68b360f1-5ad0-4337-bea0-d7adca2961b5",
      "name": "Ash",
      "url": "https://haz-map.com/Agents/965",
      "category": "agents"
    },
    {
      "type": "name_match",
      "text": "octadecane",
      "confidence": 1.0,
      "uuid": "b225cac9-ed31-4c8b-82c2-1687df01fe67",
      "name": "Octadecane",
      "url": "https://haz-map.com/Agents/1908",
      "category": "agents"
    },
    {
      "type": "name_match",
      "text": "cetyl alcohol",
      "confidence": 1.0,
      "uuid": "ecc78178-8f91-489b-b318-466be569eca4",
      "name": "Cetyl alcohol",
      "url": "https://haz-map.com/Agents/2890",
      "category": "agents"
    },
    {
      "type": "name_match",
      "text": "stearyl alcohol",
      "confidence": 1.0,
      "uuid": "1d71d7e2-1885-4381-ae3f-ed9fb2a00641",
      "name": "Stearyl alcohol",
      "url": "https://haz-map.com/Agents/2914",
      "category": "agents"
    }
  ],
  "all_links": [
    {
      "text": "Search PubMed",
      "url": "https://www.ncbi.nlm.nih.gov/pubmed?term=Stearyl+alcohol%20AND%20human%5Bmh%5D%20AND%20%28Occupational%20Diseases%20%5Bmh%5D%20OR%20Occupational%20Exposure%20%5Bmh%5D%29%20%20AND%20%28tox%5Bsb%5D%29&cmd=search"
    },
    {
      "text": "Solvents, acute toxic effect",
      "url": "https://haz-map.com/Diseases/326"
    },
    {
      "text": "Textiles (Printing, Dyeing, or Finishing)",
      "url": "https://haz-map.com/Processes/235"
    }
  ]
}