{
  "metadata": {
    "scraped_from": "https://haz-map.com/Agents/10992",
    "entity_name": "3,4-Diaminobenzoic acid",
    "category": "agents",
    "uuid": "1d8cc8fc-6128-4ebb-b73c-ddb13b8bd2f9",
    "scraped_at": "2025-07-23T20:55:00.934323"
  },
  "parsed_at": "2025-07-24T00:59:59.813522",
  "title": "3,4-Diaminobenzoic acid",
  "sections": {
    "general": {
      "agent_name": {
        "original_name": "Agent Name",
        "value": "3,4-Diaminobenzoic acid",
        "links": [],
        "cross_references": [
          {
            "type": "name_match",
            "text": "benzoic acid",
            "confidence": 1.0,
            "uuid": "d2c5d3be-d826-4f55-bc32-7b16821aef40",
            "name": "Benzoic acid",
            "url": "https://haz-map.com/Agents/1883",
            "category": "agents"
          },
          {
            "type": "name_match",
            "text": "3,4-diaminobenzoic acid",
            "confidence": 1.0,
            "uuid": "1d8cc8fc-6128-4ebb-b73c-ddb13b8bd2f9",
            "name": "3,4-Diaminobenzoic acid",
            "url": "https://haz-map.com/Agents/10992",
            "category": "agents"
          }
        ]
      },
      "cas_number": {
        "original_name": "CAS Number",
        "value": "619-05-6",
        "links": [],
        "cross_references": []
      },
      "formula": {
        "original_name": "Formula",
        "value": "C7-H8-N2-O2",
        "links": [],
        "cross_references": []
      },
      "major_category": {
        "original_name": "Major Category",
        "value": "Other Classes",
        "links": [],
        "cross_references": []
      },
      "synonyms": {
        "original_name": "Synonyms",
        "value": "Benzoic acid, 3,4-diamino-; [ChemIDplus]",
        "links": [],
        "cross_references": [
          {
            "type": "name_match",
            "text": "benzoic acid",
            "confidence": 1.0,
            "uuid": "d2c5d3be-d826-4f55-bc32-7b16821aef40",
            "name": "Benzoic acid",
            "url": "https://haz-map.com/Agents/1883",
            "category": "agents"
          }
        ]
      },
      "category": {
        "original_name": "Category",
        "value": "Benzoic Acid Derivatives",
        "links": [],
        "cross_references": [
          {
            "type": "name_match",
            "text": "benzoic acid",
            "confidence": 1.0,
            "uuid": "d2c5d3be-d826-4f55-bc32-7b16821aef40",
            "name": "Benzoic acid",
            "url": "https://haz-map.com/Agents/1883",
            "category": "agents"
          }
        ]
      },
      "description": {
        "original_name": "Description",
        "value": "Grey or brown powder; [Alfa Aesar MSDS]",
        "links": [],
        "cross_references": []
      },
      "comments": {
        "original_name": "Comments",
        "value": "A skin and strong eye irritant; [Alfa Aesar MSDS] See \"3,4-Diaminotoluene.\"",
        "links": [],
        "cross_references": [
          {
            "type": "name_match",
            "text": "toluene",
            "confidence": 1.0,
            "uuid": "0a34d5de-e924-4c47-aff5-7ae8e48c6772",
            "name": "Toluene",
            "url": "https://haz-map.com/Agents/83",
            "category": "agents"
          },
          {
            "type": "name_match",
            "text": "3,4-diaminotoluene",
            "confidence": 1.0,
            "uuid": "36bf48eb-52da-41fd-a8d9-1971d32994c3",
            "name": "3,4-Diaminotoluene",
            "url": "https://haz-map.com/Agents/3192",
            "category": "agents"
          },
          {
            "type": "fuzzy_match",
            "text": "4-diaminotoluene",
            "matched_name": "2,4-Diaminotoluene",
            "confidence": 0.873015873015873,
            "uuid": "734a22a6-4542-4388-b6ef-5eb9c61fa055",
            "category": "agents",
            "url": "https://haz-map.com/Agents/437"
          }
        ]
      },
      "biomedical_references": {
        "original_name": "Biomedical References",
        "value": "Search PubMed",
        "links": [
          {
            "text": "Search PubMed",
            "url": "https://www.ncbi.nlm.nih.gov/pubmed?term=3%2c4-Diaminobenzoic+acid%20AND%20human%5Bmh%5D%20AND%20%28Occupational%20Diseases%20%5Bmh%5D%20OR%20Occupational%20Exposure%20%5Bmh%5D%29%20%20AND%20%28tox%5Bsb%5D%29&cmd=search"
          }
        ],
        "cross_references": []
      }
    },
    "exposure_assessment": {
      "vapor_pressure": {
        "original_name": "Vapor Pressure",
        "value": "9.56E-06 mm Hg",
        "links": [],
        "cross_references": []
      }
    },
    "diseases_processes_and_activities_linked_to_this_agent": {
      "other_information": {
        "original_name": "Other Information",
        "value": "No other related information on this agent was found.",
        "links": [],
        "cross_references": []
      }
    }
  },
  "cross_references": [
    {
      "type": "name_match",
      "text": "toluene",
      "confidence": 1.0,
      "uuid": "0a34d5de-e924-4c47-aff5-7ae8e48c6772",
      "name": "Toluene",
      "url": "https://haz-map.com/Agents/83",
      "category": "agents"
    },
    {
      "type": "name_match",
      "text": "benzoic acid",
      "confidence": 1.0,
      "uuid": "d2c5d3be-d826-4f55-bc32-7b16821aef40",
      "name": "Benzoic acid",
      "url": "https://haz-map.com/Agents/1883",
      "category": "agents"
    },
    {
      "type": "name_match",
      "text": "3,4-diaminotoluene",
      "confidence": 1.0,
      "uuid": "36bf48eb-52da-41fd-a8d9-1971d32994c3",
      "name": "3,4-Diaminotoluene",
      "url": "https://haz-map.com/Agents/3192",
      "category": "agents"
    },
    {
      "type": "name_match",
      "text": "3,4-diaminobenzoic acid",
      "confidence": 1.0,
      "uuid": "1d8cc8fc-6128-4ebb-b73c-ddb13b8bd2f9",
      "name": "3,4-Diaminobenzoic acid",
      "url": "https://haz-map.com/Agents/10992",
      "category": "agents"
    },
    {
      "type": "fuzzy_match",
      "text": "4-diaminotoluene",
      "matched_name": "2,4-Diaminotoluene",
      "confidence": 0.873015873015873,
      "uuid": "734a22a6-4542-4388-b6ef-5eb9c61fa055",
      "category": "agents",
      "url": "https://haz-map.com/Agents/437"
    }
  ],
  "all_links": [
    {
      "text": "Search PubMed",
      "url": "https://www.ncbi.nlm.nih.gov/pubmed?term=3%2c4-Diaminobenzoic+acid%20AND%20human%5Bmh%5D%20AND%20%28Occupational%20Diseases%20%5Bmh%5D%20OR%20Occupational%20Exposure%20%5Bmh%5D%29%20%20AND%20%28tox%5Bsb%5D%29&cmd=search"
    }
  ]
}