{
  "metadata": {
    "scraped_from": "https://haz-map.com/Agents/18194",
    "entity_name": "Tridecanoic acid, methyl ester",
    "category": "agents",
    "uuid": "1dc71482-984f-4b79-a266-fc5858340346",
    "scraped_at": "2025-07-23T21:53:47.956564"
  },
  "parsed_at": "2025-07-24T01:15:03.763461",
  "title": "Tridecanoic acid, methyl ester",
  "sections": {
    "general": {
      "agent_name": {
        "original_name": "Agent Name",
        "value": "Tridecanoic acid, methyl ester",
        "links": [],
        "cross_references": [
          {
            "type": "name_match",
            "text": "tridecanoic acid",
            "confidence": 1.0,
            "uuid": "9353f506-ae9a-401f-b3f5-8d0e64a146dc",
            "name": "Tridecanoic acid",
            "url": "https://haz-map.com/Agents/18193",
            "category": "agents"
          },
          {
            "type": "name_match",
            "text": "tridecanoic acid, methyl ester",
            "confidence": 1.0,
            "uuid": "1dc71482-984f-4b79-a266-fc5858340346",
            "name": "Tridecanoic acid, methyl ester",
            "url": "https://haz-map.com/Agents/18194",
            "category": "agents"
          }
        ]
      },
      "cas_number": {
        "original_name": "CAS Number",
        "value": "1731-88-0",
        "links": [],
        "cross_references": []
      },
      "formula": {
        "original_name": "Formula",
        "value": "C14-H28-O2",
        "links": [],
        "cross_references": []
      },
      "major_category": {
        "original_name": "Major Category",
        "value": "Other Classes",
        "links": [],
        "cross_references": []
      },
      "synonyms": {
        "original_name": "Synonyms",
        "value": "Methyl n-tridecanoate; Methyl tridecanoate; Tridecanoic acid methyl ester; [ChemIDplus]",
        "links": [],
        "cross_references": [
          {
            "type": "name_match",
            "text": "tridecanoic acid",
            "confidence": 1.0,
            "uuid": "9353f506-ae9a-401f-b3f5-8d0e64a146dc",
            "name": "Tridecanoic acid",
            "url": "https://haz-map.com/Agents/18193",
            "category": "agents"
          },
          {
            "type": "fuzzy_match",
            "text": "tridecanoic acid methyl ester",
            "matched_name": "Tridecanoic acid, methyl ester",
            "confidence": 0.9520833333333334,
            "uuid": "1dc71482-984f-4b79-a266-fc5858340346",
            "category": "agents",
            "url": "https://haz-map.com/Agents/18194"
          }
        ]
      },
      "category": {
        "original_name": "Category",
        "value": "Esters, Other",
        "links": [],
        "cross_references": []
      },
      "description": {
        "original_name": "Description",
        "value": "Clear colorless liquid; [Sigma-Aldrich MSDS]",
        "links": [],
        "cross_references": []
      },
      "comments": {
        "original_name": "Comments",
        "value": "Intravenous LDLo (mouse) = 48 mg/kg; [RTECS] An irritant; [Sigma-Aldrich MSDS]",
        "links": [],
        "cross_references": []
      },
      "biomedical_references": {
        "original_name": "Biomedical References",
        "value": "Search PubMed",
        "links": [
          {
            "text": "Search PubMed",
            "url": "https://www.ncbi.nlm.nih.gov/pubmed?term=Tridecanoic+acid%2c+methyl+ester%20AND%20human%5Bmh%5D%20AND%20%28Occupational%20Diseases%20%5Bmh%5D%20OR%20Occupational%20Exposure%20%5Bmh%5D%29%20%20AND%20%28tox%5Bsb%5D%29&cmd=search"
          }
        ],
        "cross_references": []
      }
    },
    "exposure_assessment": {
      "vapor_pressure": {
        "original_name": "Vapor Pressure",
        "value": "0.00129 mm Hg",
        "links": [],
        "cross_references": []
      }
    },
    "diseases_processes_and_activities_linked_to_this_agent": {
      "other_information": {
        "original_name": "Other Information",
        "value": "No other related information on this agent was found.",
        "links": [],
        "cross_references": []
      }
    }
  },
  "cross_references": [
    {
      "type": "name_match",
      "text": "tridecanoic acid",
      "confidence": 1.0,
      "uuid": "9353f506-ae9a-401f-b3f5-8d0e64a146dc",
      "name": "Tridecanoic acid",
      "url": "https://haz-map.com/Agents/18193",
      "category": "agents"
    },
    {
      "type": "name_match",
      "text": "tridecanoic acid, methyl ester",
      "confidence": 1.0,
      "uuid": "1dc71482-984f-4b79-a266-fc5858340346",
      "name": "Tridecanoic acid, methyl ester",
      "url": "https://haz-map.com/Agents/18194",
      "category": "agents"
    }
  ],
  "all_links": [
    {
      "text": "Search PubMed",
      "url": "https://www.ncbi.nlm.nih.gov/pubmed?term=Tridecanoic+acid%2c+methyl+ester%20AND%20human%5Bmh%5D%20AND%20%28Occupational%20Diseases%20%5Bmh%5D%20OR%20Occupational%20Exposure%20%5Bmh%5D%29%20%20AND%20%28tox%5Bsb%5D%29&cmd=search"
    }
  ]
}