{
  "metadata": {
    "scraped_from": "https://haz-map.com/Agents/11285",
    "entity_name": "5-Nitrosalicylic acid",
    "category": "agents",
    "uuid": "1e30f625-6b92-4562-8d4b-427ef5540d3a",
    "scraped_at": "2025-07-23T20:57:45.618974"
  },
  "parsed_at": "2025-07-24T00:58:12.215516",
  "title": "5-Nitrosalicylic acid",
  "sections": {
    "general": {
      "agent_name": {
        "original_name": "Agent Name",
        "value": "5-Nitrosalicylic acid",
        "links": [],
        "cross_references": [
          {
            "type": "name_match",
            "text": "salicylic acid",
            "confidence": 1.0,
            "uuid": "8a628207-ea97-4f5a-8ad4-dce124203ade",
            "name": "Salicylic acid",
            "url": "https://haz-map.com/Agents/1914",
            "category": "agents"
          },
          {
            "type": "name_match",
            "text": "5-nitrosalicylic acid",
            "confidence": 1.0,
            "uuid": "1e30f625-6b92-4562-8d4b-427ef5540d3a",
            "name": "5-Nitrosalicylic acid",
            "url": "https://haz-map.com/Agents/11285",
            "category": "agents"
          }
        ]
      },
      "cas_number": {
        "original_name": "CAS Number",
        "value": "96-97-9",
        "links": [],
        "cross_references": []
      },
      "formula": {
        "original_name": "Formula",
        "value": "C7-H5-N-O5",
        "links": [],
        "cross_references": []
      },
      "major_category": {
        "original_name": "Major Category",
        "value": "Nitrogen Compounds",
        "links": [],
        "cross_references": [
          {
            "type": "name_match",
            "text": "nitrogen",
            "confidence": 1.0,
            "uuid": "db5e90a9-06d2-45b9-8b81-f345a89b0bc0",
            "name": "Nitrogen",
            "url": "https://haz-map.com/Agents/1072",
            "category": "agents"
          }
        ]
      },
      "synonyms": {
        "original_name": "Synonyms",
        "value": "2-Hydroxy-5-nitrobenzoic acid; 5-Nitro-2-hydroxybenzoic acid; Anilotic acid; Benzoic acid, 2-hydroxy-5-nitro-; Salicylic acid, 5-nitro- (8CI); [ChemIDplus]",
        "links": [],
        "cross_references": [
          {
            "type": "name_match",
            "text": "benzoic acid",
            "confidence": 1.0,
            "uuid": "d2c5d3be-d826-4f55-bc32-7b16821aef40",
            "name": "Benzoic acid",
            "url": "https://haz-map.com/Agents/1883",
            "category": "agents"
          },
          {
            "type": "name_match",
            "text": "salicylic acid",
            "confidence": 1.0,
            "uuid": "8a628207-ea97-4f5a-8ad4-dce124203ade",
            "name": "Salicylic acid",
            "url": "https://haz-map.com/Agents/1914",
            "category": "agents"
          },
          {
            "type": "name_match",
            "text": "hydroxybenzoic acid",
            "confidence": 1.0,
            "uuid": "c0fe1112-f757-4a77-a4ed-4b5a9997c734",
            "name": "Hydroxybenzoic acid",
            "url": "https://haz-map.com/Agents/14820",
            "category": "agents"
          }
        ]
      },
      "category": {
        "original_name": "Category",
        "value": "Nitrobenzoic Acids",
        "links": [],
        "cross_references": [
          {
            "type": "name_match",
            "text": "benzoic acid",
            "confidence": 1.0,
            "uuid": "d2c5d3be-d826-4f55-bc32-7b16821aef40",
            "name": "Benzoic acid",
            "url": "https://haz-map.com/Agents/1883",
            "category": "agents"
          }
        ]
      },
      "description": {
        "original_name": "Description",
        "value": "Yellowish solid; [Merck Index] Tan or orange powder; [Alfa Aesar MSDS]",
        "links": [],
        "cross_references": []
      },
      "comments": {
        "original_name": "Comments",
        "value": "A skin and strong eye irritant; [Alfa Aesar MSDS]",
        "links": [],
        "cross_references": []
      },
      "biomedical_references": {
        "original_name": "Biomedical References",
        "value": "Search PubMed",
        "links": [
          {
            "text": "Search PubMed",
            "url": "https://www.ncbi.nlm.nih.gov/pubmed?term=5-Nitrosalicylic+acid%20AND%20human%5Bmh%5D%20AND%20%28Occupational%20Diseases%20%5Bmh%5D%20OR%20Occupational%20Exposure%20%5Bmh%5D%29%20%20AND%20%28tox%5Bsb%5D%29&cmd=search"
          }
        ],
        "cross_references": []
      }
    },
    "exposure_assessment": {
      "vapor_pressure": {
        "original_name": "Vapor Pressure",
        "value": "1.16E-06 mm Hg",
        "links": [],
        "cross_references": []
      }
    },
    "diseases_processes_and_activities_linked_to_this_agent": {
      "other_information": {
        "original_name": "Other Information",
        "value": "No other related information on this agent was found.",
        "links": [],
        "cross_references": []
      }
    }
  },
  "cross_references": [
    {
      "type": "name_match",
      "text": "nitrogen",
      "confidence": 1.0,
      "uuid": "db5e90a9-06d2-45b9-8b81-f345a89b0bc0",
      "name": "Nitrogen",
      "url": "https://haz-map.com/Agents/1072",
      "category": "agents"
    },
    {
      "type": "name_match",
      "text": "benzoic acid",
      "confidence": 1.0,
      "uuid": "d2c5d3be-d826-4f55-bc32-7b16821aef40",
      "name": "Benzoic acid",
      "url": "https://haz-map.com/Agents/1883",
      "category": "agents"
    },
    {
      "type": "name_match",
      "text": "salicylic acid",
      "confidence": 1.0,
      "uuid": "8a628207-ea97-4f5a-8ad4-dce124203ade",
      "name": "Salicylic acid",
      "url": "https://haz-map.com/Agents/1914",
      "category": "agents"
    },
    {
      "type": "name_match",
      "text": "5-nitrosalicylic acid",
      "confidence": 1.0,
      "uuid": "1e30f625-6b92-4562-8d4b-427ef5540d3a",
      "name": "5-Nitrosalicylic acid",
      "url": "https://haz-map.com/Agents/11285",
      "category": "agents"
    },
    {
      "type": "name_match",
      "text": "hydroxybenzoic acid",
      "confidence": 1.0,
      "uuid": "c0fe1112-f757-4a77-a4ed-4b5a9997c734",
      "name": "Hydroxybenzoic acid",
      "url": "https://haz-map.com/Agents/14820",
      "category": "agents"
    }
  ],
  "all_links": [
    {
      "text": "Search PubMed",
      "url": "https://www.ncbi.nlm.nih.gov/pubmed?term=5-Nitrosalicylic+acid%20AND%20human%5Bmh%5D%20AND%20%28Occupational%20Diseases%20%5Bmh%5D%20OR%20Occupational%20Exposure%20%5Bmh%5D%29%20%20AND%20%28tox%5Bsb%5D%29&cmd=search"
    }
  ]
}