{
  "metadata": {
    "scraped_from": "https://haz-map.com/Agents/7679",
    "entity_name": "Undecylbenzene",
    "category": "agents",
    "uuid": "1e31ff00-41be-4b49-a59d-c26c9ea8b706",
    "scraped_at": "2025-07-23T20:15:42.524119"
  },
  "parsed_at": "2025-07-24T01:10:25.665270",
  "title": "Undecylbenzene",
  "sections": {
    "general": {
      "agent_name": {
        "original_name": "Agent Name",
        "value": "Undecylbenzene",
        "links": [],
        "cross_references": [
          {
            "type": "name_match",
            "text": "benzene",
            "confidence": 1.0,
            "uuid": "b05124de-5f34-4c14-8f04-ccb20c3780d9",
            "name": "Benzene",
            "url": "https://haz-map.com/Agents/5",
            "category": "agents"
          },
          {
            "type": "name_match",
            "text": "decylbenzene",
            "confidence": 1.0,
            "uuid": "1502f3a9-9676-4452-8457-99a2b0057594",
            "name": "Decylbenzene",
            "url": "https://haz-map.com/Agents/4670",
            "category": "agents"
          },
          {
            "type": "name_match",
            "text": "undecylbenzene",
            "confidence": 1.0,
            "uuid": "1e31ff00-41be-4b49-a59d-c26c9ea8b706",
            "name": "Undecylbenzene",
            "url": "https://haz-map.com/Agents/7679",
            "category": "agents"
          }
        ]
      },
      "cas_number": {
        "original_name": "CAS Number",
        "value": "6742-54-7",
        "links": [],
        "cross_references": []
      },
      "formula": {
        "original_name": "Formula",
        "value": "C17-H28",
        "links": [],
        "cross_references": []
      },
      "major_category": {
        "original_name": "Major Category",
        "value": "Other Classes",
        "links": [],
        "cross_references": []
      },
      "synonyms": {
        "original_name": "Synonyms",
        "value": "1-Phenylundecane; Benzene, undecyl-; Undecane, 1-phenyl-; Undecanylbenzene; n-Undecylbenzene; [ChemIDplus]",
        "links": [],
        "cross_references": [
          {
            "type": "name_match",
            "text": "benzene",
            "confidence": 1.0,
            "uuid": "b05124de-5f34-4c14-8f04-ccb20c3780d9",
            "name": "Benzene",
            "url": "https://haz-map.com/Agents/5",
            "category": "agents"
          },
          {
            "type": "name_match",
            "text": "undecane",
            "confidence": 1.0,
            "uuid": "88158023-ae31-4548-a174-0b1b4cbf252b",
            "name": "Undecane",
            "url": "https://haz-map.com/Agents/1919",
            "category": "agents"
          },
          {
            "type": "name_match",
            "text": "decylbenzene",
            "confidence": 1.0,
            "uuid": "1502f3a9-9676-4452-8457-99a2b0057594",
            "name": "Decylbenzene",
            "url": "https://haz-map.com/Agents/4670",
            "category": "agents"
          },
          {
            "type": "name_match",
            "text": "undecylbenzene",
            "confidence": 1.0,
            "uuid": "1e31ff00-41be-4b49-a59d-c26c9ea8b706",
            "name": "Undecylbenzene",
            "url": "https://haz-map.com/Agents/7679",
            "category": "agents"
          }
        ]
      },
      "category": {
        "original_name": "Category",
        "value": "Aromatic Hydrocarbons",
        "links": [],
        "cross_references": [
          {
            "type": "name_match",
            "text": "carbon",
            "confidence": 1.0,
            "uuid": "b53f8815-ee80-40ef-b4aa-3b000e17dab5",
            "name": "Carbon",
            "url": "https://haz-map.com/Agents/1891",
            "category": "agents"
          },
          {
            "type": "fuzzy_match",
            "text": "aromatic hydrocarbons",
            "matched_name": "Aromatic hydrocarbons, C9-C11",
            "confidence": 0.7509578544061303,
            "uuid": "1e86d79b-784d-40c4-8412-39a4432a7a75",
            "category": "agents",
            "url": "https://haz-map.com/Agents/20258"
          },
          {
            "type": "fuzzy_match",
            "text": "hydrocarbons",
            "matched_name": "Hydrocarbons, C>3",
            "confidence": 0.7100840336134454,
            "uuid": "8eaa37ac-3931-44e4-9242-2734127fd661",
            "category": "agents",
            "url": "https://haz-map.com/Agents/14795"
          }
        ]
      },
      "description": {
        "original_name": "Description",
        "value": "Colorless liquid; [CAMEO]",
        "links": [],
        "cross_references": []
      },
      "sourcesuses": {
        "original_name": "Sources/Uses",
        "value": "Used in detergents; in mixture as intermediate for linear alkylbenzene sulfonates; [HSDB] Primarily found commercially in mixtures of long-chain linear alkylbenzenes (alkyl group having from 10 to 16 carbon atoms); 98% of these mixtures used to make the detergent surfactant linear alkylbenzene sulfonate (LAS); [eChemPortal: SIDSUNEP]",
        "links": [],
        "cross_references": [
          {
            "type": "name_match",
            "text": "benzene",
            "confidence": 1.0,
            "uuid": "b05124de-5f34-4c14-8f04-ccb20c3780d9",
            "name": "Benzene",
            "url": "https://haz-map.com/Agents/5",
            "category": "agents"
          },
          {
            "type": "name_match",
            "text": "carbon",
            "confidence": 1.0,
            "uuid": "b53f8815-ee80-40ef-b4aa-3b000e17dab5",
            "name": "Carbon",
            "url": "https://haz-map.com/Agents/1891",
            "category": "agents"
          }
        ]
      },
      "comments": {
        "original_name": "Comments",
        "value": "May cause mild eye irritation; [CAMEO] May cause moderate skin irritation, based on animal studies; [CHEMINFO] \"Linear alkylbenzenes are not acutely toxic.\" [OECD SIDS: Benzene, C10-C16 alkyl derivatives - 1995] May cause irritation; [MSDSonline]",
        "links": [],
        "cross_references": [
          {
            "type": "name_match",
            "text": "benzene",
            "confidence": 1.0,
            "uuid": "b05124de-5f34-4c14-8f04-ccb20c3780d9",
            "name": "Benzene",
            "url": "https://haz-map.com/Agents/5",
            "category": "agents"
          }
        ]
      },
      "biomedical_references": {
        "original_name": "Biomedical References",
        "value": "Search PubMed",
        "links": [
          {
            "text": "Search PubMed",
            "url": "https://www.ncbi.nlm.nih.gov/pubmed?term=Undecylbenzene%20AND%20human%5Bmh%5D%20AND%20%28Occupational%20Diseases%20%5Bmh%5D%20OR%20Occupational%20Exposure%20%5Bmh%5D%29%20%20AND%20%28tox%5Bsb%5D%29&cmd=search"
          }
        ],
        "cross_references": []
      }
    },
    "exposure_assessment": {
      "vapor_pressure": {
        "original_name": "Vapor Pressure",
        "value": "0.000242 mm Hg",
        "links": [],
        "cross_references": []
      }
    },
    "diseases_processes_and_activities_linked_to_this_agent": {
      "other_information": {
        "original_name": "Other Information",
        "value": "No other related information on this agent was found.",
        "links": [],
        "cross_references": []
      }
    }
  },
  "cross_references": [
    {
      "type": "name_match",
      "text": "benzene",
      "confidence": 1.0,
      "uuid": "b05124de-5f34-4c14-8f04-ccb20c3780d9",
      "name": "Benzene",
      "url": "https://haz-map.com/Agents/5",
      "category": "agents"
    },
    {
      "type": "name_match",
      "text": "carbon",
      "confidence": 1.0,
      "uuid": "b53f8815-ee80-40ef-b4aa-3b000e17dab5",
      "name": "Carbon",
      "url": "https://haz-map.com/Agents/1891",
      "category": "agents"
    },
    {
      "type": "name_match",
      "text": "undecane",
      "confidence": 1.0,
      "uuid": "88158023-ae31-4548-a174-0b1b4cbf252b",
      "name": "Undecane",
      "url": "https://haz-map.com/Agents/1919",
      "category": "agents"
    },
    {
      "type": "name_match",
      "text": "decylbenzene",
      "confidence": 1.0,
      "uuid": "1502f3a9-9676-4452-8457-99a2b0057594",
      "name": "Decylbenzene",
      "url": "https://haz-map.com/Agents/4670",
      "category": "agents"
    },
    {
      "type": "name_match",
      "text": "undecylbenzene",
      "confidence": 1.0,
      "uuid": "1e31ff00-41be-4b49-a59d-c26c9ea8b706",
      "name": "Undecylbenzene",
      "url": "https://haz-map.com/Agents/7679",
      "category": "agents"
    },
    {
      "type": "fuzzy_match",
      "text": "aromatic hydrocarbons",
      "matched_name": "Aromatic hydrocarbons, C9-C11",
      "confidence": 0.7509578544061303,
      "uuid": "1e86d79b-784d-40c4-8412-39a4432a7a75",
      "category": "agents",
      "url": "https://haz-map.com/Agents/20258"
    },
    {
      "type": "fuzzy_match",
      "text": "hydrocarbons",
      "matched_name": "Hydrocarbons, C>3",
      "confidence": 0.7100840336134454,
      "uuid": "8eaa37ac-3931-44e4-9242-2734127fd661",
      "category": "agents",
      "url": "https://haz-map.com/Agents/14795"
    }
  ],
  "all_links": [
    {
      "text": "Search PubMed",
      "url": "https://www.ncbi.nlm.nih.gov/pubmed?term=Undecylbenzene%20AND%20human%5Bmh%5D%20AND%20%28Occupational%20Diseases%20%5Bmh%5D%20OR%20Occupational%20Exposure%20%5Bmh%5D%29%20%20AND%20%28tox%5Bsb%5D%29&cmd=search"
    }
  ]
}