{
  "metadata": {
    "scraped_from": "https://haz-map.com/Agents/7479",
    "entity_name": "trans-1,2-Diphenylethylene",
    "category": "agents",
    "uuid": "1ed482a6-0cf3-4336-a601-a1f2d82bb010",
    "scraped_at": "2025-07-23T20:13:05.485873"
  },
  "parsed_at": "2025-07-24T00:51:49.342636",
  "title": "trans-1,2-Diphenylethylene",
  "sections": {
    "general": {
      "agent_name": {
        "original_name": "Agent Name",
        "value": "trans-1,2-Diphenylethylene",
        "links": [],
        "cross_references": [
          {
            "type": "name_match",
            "text": "ethylene",
            "confidence": 1.0,
            "uuid": "958eacc0-5135-4b62-bb93-6df972bf552f",
            "name": "Ethylene",
            "url": "https://haz-map.com/Agents/1076",
            "category": "agents"
          },
          {
            "type": "name_match",
            "text": "trans-1,2-diphenylethylene",
            "confidence": 1.0,
            "uuid": "1ed482a6-0cf3-4336-a601-a1f2d82bb010",
            "name": "trans-1,2-Diphenylethylene",
            "url": "https://haz-map.com/Agents/7479",
            "category": "agents"
          },
          {
            "type": "name_match",
            "text": "1,2-diphenylethylene",
            "confidence": 1.0,
            "uuid": "510e21b0-434c-41c0-b28f-1efee35235bd",
            "name": "1,2-Diphenylethylene",
            "url": "https://haz-map.com/Agents/17732",
            "category": "agents"
          },
          {
            "type": "fuzzy_match",
            "text": "2-diphenylethylene",
            "matched_name": "cis-1,2-Diphenylethylene",
            "confidence": 0.7416666666666667,
            "uuid": "979c6df7-dcaf-4113-a48e-b5780c67d062",
            "category": "agents",
            "url": "https://haz-map.com/Agents/4431"
          }
        ]
      },
      "alternative_name": {
        "original_name": "Alternative Name",
        "value": "trans-Stilbene",
        "links": [],
        "cross_references": []
      },
      "cas_number": {
        "original_name": "CAS Number",
        "value": "103-30-0",
        "links": [],
        "cross_references": []
      },
      "formula": {
        "original_name": "Formula",
        "value": "C14-H12",
        "links": [],
        "cross_references": []
      },
      "major_category": {
        "original_name": "Major Category",
        "value": "Other Classes",
        "links": [],
        "cross_references": []
      },
      "synonyms": {
        "original_name": "Synonyms",
        "value": "trans-Stilbene; (E)-1,1'-(1,2-Ethenediyl)bisbenzene; (E)-1,2-Diphenylethylene; (E)-Stilbene; Benzene, 1,1'-(1,2-ethenediyl)bis-, (E)-; trans-1,2-Diphenylethene; trans-Diphenylethene; trans-alpha,beta-Diphenylethylene; Benzene, 1,1'-(1E)-1,2-ethenediylbis-; Stilbene, (E)-; [ChemIDplus]",
        "links": [],
        "cross_references": [
          {
            "type": "name_match",
            "text": "benzene",
            "confidence": 1.0,
            "uuid": "b05124de-5f34-4c14-8f04-ccb20c3780d9",
            "name": "Benzene",
            "url": "https://haz-map.com/Agents/5",
            "category": "agents"
          },
          {
            "type": "name_match",
            "text": "ethylene",
            "confidence": 1.0,
            "uuid": "958eacc0-5135-4b62-bb93-6df972bf552f",
            "name": "Ethylene",
            "url": "https://haz-map.com/Agents/1076",
            "category": "agents"
          },
          {
            "type": "name_match",
            "text": "1,2-diphenylethylene",
            "confidence": 1.0,
            "uuid": "510e21b0-434c-41c0-b28f-1efee35235bd",
            "name": "1,2-Diphenylethylene",
            "url": "https://haz-map.com/Agents/17732",
            "category": "agents"
          },
          {
            "type": "fuzzy_match",
            "text": "2-diphenylethylene",
            "matched_name": "cis-1,2-Diphenylethylene",
            "confidence": 0.7416666666666667,
            "uuid": "979c6df7-dcaf-4113-a48e-b5780c67d062",
            "category": "agents",
            "url": "https://haz-map.com/Agents/4431"
          }
        ]
      },
      "category": {
        "original_name": "Category",
        "value": "Aromatic Hydrocarbons",
        "links": [],
        "cross_references": [
          {
            "type": "name_match",
            "text": "carbon",
            "confidence": 1.0,
            "uuid": "b53f8815-ee80-40ef-b4aa-3b000e17dab5",
            "name": "Carbon",
            "url": "https://haz-map.com/Agents/1891",
            "category": "agents"
          },
          {
            "type": "fuzzy_match",
            "text": "aromatic hydrocarbons",
            "matched_name": "Aromatic hydrocarbons, C9-C11",
            "confidence": 0.7509578544061303,
            "uuid": "1e86d79b-784d-40c4-8412-39a4432a7a75",
            "category": "agents",
            "url": "https://haz-map.com/Agents/20258"
          },
          {
            "type": "fuzzy_match",
            "text": "hydrocarbons",
            "matched_name": "Hydrocarbons, C>3",
            "confidence": 0.7100840336134454,
            "uuid": "8eaa37ac-3931-44e4-9242-2734127fd661",
            "category": "agents",
            "url": "https://haz-map.com/Agents/14795"
          }
        ]
      },
      "description": {
        "original_name": "Description",
        "value": "Colorless or pale yellow solid; [HSDB] Off-white solid with blue fluorescence; [CAMEO] White or off-white crystalline solid; [MSDSonline]",
        "links": [],
        "cross_references": [
          {
            "type": "fuzzy_match",
            "text": "crystalline",
            "matched_name": "Silica, crystalline",
            "confidence": 0.7061403508771931,
            "uuid": "f920e8a2-46df-41b7-af8d-0368a777251e",
            "category": "agents",
            "url": "https://haz-map.com/Agents/427"
          }
        ]
      },
      "sourcesuses": {
        "original_name": "Sources/Uses",
        "value": "Used to make dyes and optical bleaches; as phosphors and scintillators (crystal forms); [HSDB]",
        "links": [],
        "cross_references": []
      },
      "comments": {
        "original_name": "Comments",
        "value": "Toxic effects in animal studies include inflammation, scarring, or necrosis of the bladder; [RTECS] May cause irritation; [MSDSonline] See \"cis-1,2-Diphenylethylene.\"",
        "links": [],
        "cross_references": [
          {
            "type": "name_match",
            "text": "ethylene",
            "confidence": 1.0,
            "uuid": "958eacc0-5135-4b62-bb93-6df972bf552f",
            "name": "Ethylene",
            "url": "https://haz-map.com/Agents/1076",
            "category": "agents"
          },
          {
            "type": "name_match",
            "text": "cis-1,2-diphenylethylene",
            "confidence": 1.0,
            "uuid": "979c6df7-dcaf-4113-a48e-b5780c67d062",
            "name": "cis-1,2-Diphenylethylene",
            "url": "https://haz-map.com/Agents/4431",
            "category": "agents"
          },
          {
            "type": "name_match",
            "text": "dde",
            "confidence": 1.0,
            "uuid": "88506fb4-e7b1-4bde-a283-917057f67fc2",
            "name": "DDE",
            "url": "https://haz-map.com/Agents/4656",
            "category": "agents"
          },
          {
            "type": "name_match",
            "text": "1,2-diphenylethylene",
            "confidence": 1.0,
            "uuid": "510e21b0-434c-41c0-b28f-1efee35235bd",
            "name": "1,2-Diphenylethylene",
            "url": "https://haz-map.com/Agents/17732",
            "category": "agents"
          }
        ]
      },
      "biomedical_references": {
        "original_name": "Biomedical References",
        "value": "Search PubMed",
        "links": [
          {
            "text": "Search PubMed",
            "url": "https://www.ncbi.nlm.nih.gov/pubmed?term=trans-1%2c2-Diphenylethylene%20AND%20human%5Bmh%5D%20AND%20%28Occupational%20Diseases%20%5Bmh%5D%20OR%20Occupational%20Exposure%20%5Bmh%5D%29%20%20AND%20%28tox%5Bsb%5D%29&cmd=search"
          }
        ],
        "cross_references": []
      }
    },
    "exposure_assessment": {
      "vapor_pressure": {
        "original_name": "Vapor Pressure",
        "value": "0.000881 mm Hg",
        "links": [],
        "cross_references": []
      }
    },
    "diseases_processes_and_activities_linked_to_this_agent": {
      "other_information": {
        "original_name": "Other Information",
        "value": "No other related information on this agent was found.",
        "links": [],
        "cross_references": []
      }
    }
  },
  "cross_references": [
    {
      "type": "name_match",
      "text": "benzene",
      "confidence": 1.0,
      "uuid": "b05124de-5f34-4c14-8f04-ccb20c3780d9",
      "name": "Benzene",
      "url": "https://haz-map.com/Agents/5",
      "category": "agents"
    },
    {
      "type": "name_match",
      "text": "ethylene",
      "confidence": 1.0,
      "uuid": "958eacc0-5135-4b62-bb93-6df972bf552f",
      "name": "Ethylene",
      "url": "https://haz-map.com/Agents/1076",
      "category": "agents"
    },
    {
      "type": "name_match",
      "text": "carbon",
      "confidence": 1.0,
      "uuid": "b53f8815-ee80-40ef-b4aa-3b000e17dab5",
      "name": "Carbon",
      "url": "https://haz-map.com/Agents/1891",
      "category": "agents"
    },
    {
      "type": "name_match",
      "text": "cis-1,2-diphenylethylene",
      "confidence": 1.0,
      "uuid": "979c6df7-dcaf-4113-a48e-b5780c67d062",
      "name": "cis-1,2-Diphenylethylene",
      "url": "https://haz-map.com/Agents/4431",
      "category": "agents"
    },
    {
      "type": "name_match",
      "text": "dde",
      "confidence": 1.0,
      "uuid": "88506fb4-e7b1-4bde-a283-917057f67fc2",
      "name": "DDE",
      "url": "https://haz-map.com/Agents/4656",
      "category": "agents"
    },
    {
      "type": "name_match",
      "text": "trans-1,2-diphenylethylene",
      "confidence": 1.0,
      "uuid": "1ed482a6-0cf3-4336-a601-a1f2d82bb010",
      "name": "trans-1,2-Diphenylethylene",
      "url": "https://haz-map.com/Agents/7479",
      "category": "agents"
    },
    {
      "type": "name_match",
      "text": "1,2-diphenylethylene",
      "confidence": 1.0,
      "uuid": "510e21b0-434c-41c0-b28f-1efee35235bd",
      "name": "1,2-Diphenylethylene",
      "url": "https://haz-map.com/Agents/17732",
      "category": "agents"
    },
    {
      "type": "fuzzy_match",
      "text": "aromatic hydrocarbons",
      "matched_name": "Aromatic hydrocarbons, C9-C11",
      "confidence": 0.7509578544061303,
      "uuid": "1e86d79b-784d-40c4-8412-39a4432a7a75",
      "category": "agents",
      "url": "https://haz-map.com/Agents/20258"
    },
    {
      "type": "fuzzy_match",
      "text": "hydrocarbons",
      "matched_name": "Hydrocarbons, C>3",
      "confidence": 0.7100840336134454,
      "uuid": "8eaa37ac-3931-44e4-9242-2734127fd661",
      "category": "agents",
      "url": "https://haz-map.com/Agents/14795"
    },
    {
      "type": "fuzzy_match",
      "text": "crystalline",
      "matched_name": "Silica, crystalline",
      "confidence": 0.7061403508771931,
      "uuid": "f920e8a2-46df-41b7-af8d-0368a777251e",
      "category": "agents",
      "url": "https://haz-map.com/Agents/427"
    }
  ],
  "all_links": [
    {
      "text": "Search PubMed",
      "url": "https://www.ncbi.nlm.nih.gov/pubmed?term=trans-1%2c2-Diphenylethylene%20AND%20human%5Bmh%5D%20AND%20%28Occupational%20Diseases%20%5Bmh%5D%20OR%20Occupational%20Exposure%20%5Bmh%5D%29%20%20AND%20%28tox%5Bsb%5D%29&cmd=search"
    }
  ]
}