{
  "metadata": {
    "scraped_from": "https://haz-map.com/Agents/3381",
    "entity_name": "Acetal",
    "category": "agents",
    "uuid": "1ee09b5b-04fd-47c0-ab34-a2d9db740bcb",
    "scraped_at": "2025-07-23T19:28:26.248460"
  },
  "parsed_at": "2025-07-24T01:03:57.677671",
  "title": "Acetal",
  "sections": {
    "general": {
      "agent_name": {
        "original_name": "Agent Name",
        "value": "Acetal",
        "links": [],
        "cross_references": [
          {
            "type": "name_match",
            "text": "acetal",
            "confidence": 1.0,
            "uuid": "1ee09b5b-04fd-47c0-ab34-a2d9db740bcb",
            "name": "Acetal",
            "url": "https://haz-map.com/Agents/3381",
            "category": "agents"
          }
        ]
      },
      "cas_number": {
        "original_name": "CAS Number",
        "value": "105-57-7",
        "links": [],
        "cross_references": []
      },
      "formula": {
        "original_name": "Formula",
        "value": "C6-H14-O2",
        "links": [],
        "cross_references": []
      },
      "major_category": {
        "original_name": "Major Category",
        "value": "Other Classes",
        "links": [],
        "cross_references": []
      },
      "synonyms": {
        "original_name": "Synonyms",
        "value": "1,1-Diaethoxy-aethan [German]; 1,1-Diethoxy-ethaan [Dutch]; 1,1-Diethoxyethane; 1,1-Dietossietano [Italian]; Acetaal [Dutch]; Acetal (natural); Acetal diethylique [French]; Acetaldehyde diethyl acetal; Acetaldehyde ethyl acetal; Acetale [Italian]; Acetol; Diaethylacetal [German]; Diethyl acetal; Diethylacetal; Ethane, 1,1-diethoxy-; Ethylidene diethyl ether; Ethylidenediethyl ether; [ChemIDplus] UN1088",
        "links": [],
        "cross_references": [
          {
            "type": "name_match",
            "text": "acetaldehyde",
            "confidence": 1.0,
            "uuid": "fe4656a6-c05e-430a-bdd9-e053a298707a",
            "name": "Acetaldehyde",
            "url": "https://haz-map.com/Agents/94",
            "category": "agents"
          },
          {
            "type": "name_match",
            "text": "ethyl ether",
            "confidence": 1.0,
            "uuid": "c95edddc-9ad3-44f8-bafa-78e0bd19db3a",
            "name": "Ethyl ether",
            "url": "https://haz-map.com/Agents/455",
            "category": "agents"
          },
          {
            "type": "name_match",
            "text": "ethane",
            "confidence": 1.0,
            "uuid": "5162cc8c-dfb9-4060-81ac-38a8cec7f9dd",
            "name": "Ethane",
            "url": "https://haz-map.com/Agents/1075",
            "category": "agents"
          },
          {
            "type": "name_match",
            "text": "tali",
            "confidence": 1.0,
            "uuid": "8c3a0f99-2143-4122-b539-ec5cc49596b0",
            "name": "Tali",
            "url": "https://haz-map.com/Agents/1128",
            "category": "agents"
          },
          {
            "type": "name_match",
            "text": "acetal",
            "confidence": 1.0,
            "uuid": "1ee09b5b-04fd-47c0-ab34-a2d9db740bcb",
            "name": "Acetal",
            "url": "https://haz-map.com/Agents/3381",
            "category": "agents"
          },
          {
            "type": "name_match",
            "text": "acetol",
            "confidence": 1.0,
            "uuid": "318a7fe4-f35f-42f5-a124-1814a156e5fb",
            "name": "Acetol",
            "url": "https://haz-map.com/Agents/9704",
            "category": "agents"
          }
        ]
      },
      "category": {
        "original_name": "Category",
        "value": "Acetals",
        "links": [],
        "cross_references": [
          {
            "type": "name_match",
            "text": "acetal",
            "confidence": 1.0,
            "uuid": "1ee09b5b-04fd-47c0-ab34-a2d9db740bcb",
            "name": "Acetal",
            "url": "https://haz-map.com/Agents/3381",
            "category": "agents"
          }
        ]
      },
      "description": {
        "original_name": "Description",
        "value": "Colorless, volatile liquid with an agreeable odor; [Hawley]",
        "links": [],
        "cross_references": []
      },
      "sourcesuses": {
        "original_name": "Sources/Uses",
        "value": "Used as a solvent for perfumes, flavors, and cosmetics; [HSDB] Used as an herbicide; [eChemPortal: ERMA]",
        "links": [],
        "cross_references": []
      },
      "comments": {
        "original_name": "Comments",
        "value": "Highly flammable; Inhalation of high concentrations can cause CNS depression; [Hawley] Hydrolyzed in the stomach to acetaldehyde and ethyl alcohol; [HSDB] Forms heat-sensitive explosive peroxides on contact with air; An upper respiratory tract irritant; [CAMEO] A mild skin and eye irritant, based on animal studies; [CHEMINFO] A skin, eye, and respiratory tract irritant; \"Exposure may result in lowering of consciousness.\" [ICSC] Safe when used as a flavoring agent in food; [JECFA] An irritant; [MSDSonline]",
        "links": [],
        "cross_references": [
          {
            "type": "name_match",
            "text": "acetaldehyde",
            "confidence": 1.0,
            "uuid": "fe4656a6-c05e-430a-bdd9-e053a298707a",
            "name": "Acetaldehyde",
            "url": "https://haz-map.com/Agents/94",
            "category": "agents"
          },
          {
            "type": "name_match",
            "text": "ethyl alcohol",
            "confidence": 1.0,
            "uuid": "9e039165-5b7c-44a7-afb2-dcf3c15e7a99",
            "name": "Ethyl alcohol",
            "url": "https://haz-map.com/Agents/481",
            "category": "agents"
          },
          {
            "type": "name_match",
            "text": "acetal",
            "confidence": 1.0,
            "uuid": "1ee09b5b-04fd-47c0-ab34-a2d9db740bcb",
            "name": "Acetal",
            "url": "https://haz-map.com/Agents/3381",
            "category": "agents"
          }
        ]
      },
      "biomedical_references": {
        "original_name": "Biomedical References",
        "value": "Search PubMed",
        "links": [
          {
            "text": "Search PubMed",
            "url": "https://www.ncbi.nlm.nih.gov/pubmed?term=Acetal%20AND%20human%5Bmh%5D%20AND%20%28Occupational%20Diseases%20%5Bmh%5D%20OR%20Occupational%20Exposure%20%5Bmh%5D%29%20%20AND%20%28tox%5Bsb%5D%29&cmd=search"
          }
        ],
        "cross_references": []
      }
    },
    "exposure_assessment": {
      "vapor_pressure": {
        "original_name": "Vapor Pressure",
        "value": "27.6 mm Hg",
        "links": [],
        "cross_references": []
      },
      "lethal_concentration": {
        "original_name": "Lethal Concentration",
        "value": "LCLo (rat) = 4,000 ppm/4h",
        "links": [],
        "cross_references": []
      },
      "explanatory_notes": {
        "original_name": "Explanatory Notes",
        "value": "Flash point = -20.5 deg C; [Hawley] VP from ChemIDplus;",
        "links": [],
        "cross_references": [
          {
            "type": "name_match",
            "text": "ash",
            "confidence": 1.0,
            "uuid": "68b360f1-5ad0-4337-bea0-d7adca2961b5",
            "name": "Ash",
            "url": "https://haz-map.com/Agents/965",
            "category": "agents"
          }
        ]
      },
      "nfpa": {
        "original_name": "NFPA",
        "value": "may ignite at ambient temp",
        "links": [],
        "cross_references": []
      }
    },
    "adverse_effects": {
      "neurotoxin": {
        "original_name": "Neurotoxin",
        "value": "Other CNS neurotoxin",
        "links": [],
        "cross_references": []
      }
    },
    "diseases_processes_and_activities_linked_to_this_agent": {
      "processes": {
        "original_name": "Processes",
        "value": "Industrial Processes with risk of exposure: Farming (Pesticides)",
        "links": [
          {
            "text": "Farming (Pesticides)",
            "url": "https://haz-map.com/Processes/218"
          }
        ],
        "cross_references": [
          {
            "type": "url_match",
            "text": "Farming (Pesticides)",
            "url": "https://haz-map.com/Processes/218",
            "confidence": 1.0,
            "uuid": "cf1e5815-c9bb-4917-82a5-391848170b7e",
            "name": "Farming (Pesticides)",
            "category": "processes"
          }
        ]
      }
    }
  },
  "cross_references": [
    {
      "type": "url_match",
      "text": "Farming (Pesticides)",
      "url": "https://haz-map.com/Processes/218",
      "confidence": 1.0,
      "uuid": "cf1e5815-c9bb-4917-82a5-391848170b7e",
      "name": "Farming (Pesticides)",
      "category": "processes"
    },
    {
      "type": "name_match",
      "text": "acetaldehyde",
      "confidence": 1.0,
      "uuid": "fe4656a6-c05e-430a-bdd9-e053a298707a",
      "name": "Acetaldehyde",
      "url": "https://haz-map.com/Agents/94",
      "category": "agents"
    },
    {
      "type": "name_match",
      "text": "ethyl ether",
      "confidence": 1.0,
      "uuid": "c95edddc-9ad3-44f8-bafa-78e0bd19db3a",
      "name": "Ethyl ether",
      "url": "https://haz-map.com/Agents/455",
      "category": "agents"
    },
    {
      "type": "name_match",
      "text": "ethyl alcohol",
      "confidence": 1.0,
      "uuid": "9e039165-5b7c-44a7-afb2-dcf3c15e7a99",
      "name": "Ethyl alcohol",
      "url": "https://haz-map.com/Agents/481",
      "category": "agents"
    },
    {
      "type": "name_match",
      "text": "ash",
      "confidence": 1.0,
      "uuid": "68b360f1-5ad0-4337-bea0-d7adca2961b5",
      "name": "Ash",
      "url": "https://haz-map.com/Agents/965",
      "category": "agents"
    },
    {
      "type": "name_match",
      "text": "ethane",
      "confidence": 1.0,
      "uuid": "5162cc8c-dfb9-4060-81ac-38a8cec7f9dd",
      "name": "Ethane",
      "url": "https://haz-map.com/Agents/1075",
      "category": "agents"
    },
    {
      "type": "name_match",
      "text": "tali",
      "confidence": 1.0,
      "uuid": "8c3a0f99-2143-4122-b539-ec5cc49596b0",
      "name": "Tali",
      "url": "https://haz-map.com/Agents/1128",
      "category": "agents"
    },
    {
      "type": "name_match",
      "text": "acetal",
      "confidence": 1.0,
      "uuid": "1ee09b5b-04fd-47c0-ab34-a2d9db740bcb",
      "name": "Acetal",
      "url": "https://haz-map.com/Agents/3381",
      "category": "agents"
    },
    {
      "type": "name_match",
      "text": "acetol",
      "confidence": 1.0,
      "uuid": "318a7fe4-f35f-42f5-a124-1814a156e5fb",
      "name": "Acetol",
      "url": "https://haz-map.com/Agents/9704",
      "category": "agents"
    }
  ],
  "all_links": [
    {
      "text": "Search PubMed",
      "url": "https://www.ncbi.nlm.nih.gov/pubmed?term=Acetal%20AND%20human%5Bmh%5D%20AND%20%28Occupational%20Diseases%20%5Bmh%5D%20OR%20Occupational%20Exposure%20%5Bmh%5D%29%20%20AND%20%28tox%5Bsb%5D%29&cmd=search"
    },
    {
      "text": "Farming (Pesticides)",
      "url": "https://haz-map.com/Processes/218"
    }
  ]
}