{
  "metadata": {
    "scraped_from": "https://haz-map.com/Agents/19593",
    "entity_name": "2-Ethoxyethyl methacrylate",
    "category": "agents",
    "uuid": "1f0925ca-ef59-4134-9998-50785e497016",
    "scraped_at": "2025-07-23T22:09:07.146668"
  },
  "parsed_at": "2025-07-24T00:51:23.836077",
  "title": "2-Ethoxyethyl methacrylate",
  "sections": {
    "general": {
      "agent_name": {
        "original_name": "Agent Name",
        "value": "2-Ethoxyethyl methacrylate",
        "links": [],
        "cross_references": [
          {
            "type": "name_match",
            "text": "ethyl methacrylate",
            "confidence": 1.0,
            "uuid": "c6fffbc1-19c8-4d59-a80f-43c99fc33e11",
            "name": "Ethyl methacrylate",
            "url": "https://haz-map.com/Agents/825",
            "category": "agents"
          },
          {
            "type": "name_match",
            "text": "2-ethoxyethyl methacrylate",
            "confidence": 1.0,
            "uuid": "1f0925ca-ef59-4134-9998-50785e497016",
            "name": "2-Ethoxyethyl methacrylate",
            "url": "https://haz-map.com/Agents/19593",
            "category": "agents"
          }
        ]
      },
      "cas_number": {
        "original_name": "CAS Number",
        "value": "2370-63-0",
        "links": [],
        "cross_references": []
      },
      "formula": {
        "original_name": "Formula",
        "value": "C8-H14-O3",
        "links": [],
        "cross_references": []
      },
      "major_category": {
        "original_name": "Major Category",
        "value": "Plastics & Rubber",
        "links": [],
        "cross_references": []
      },
      "synonyms": {
        "original_name": "Synonyms",
        "value": "2-Ethoxy ethyl methacrylate; Ethoxyethyl methacrylate; Methacrylic acid, 2-ethoxyethyl ester; 2-Propenoic acid, 2-methyl-, 2-ethoxyethyl ester; [ChemIDplus] NORSOCRYL 2-Ethoxyethyl Methacrylate; [Atofina MSDS] UN1993",
        "links": [],
        "cross_references": [
          {
            "type": "name_match",
            "text": "acrylic acid",
            "confidence": 1.0,
            "uuid": "c8e65755-0f00-4e14-91fe-d4fa705d17da",
            "name": "Acrylic acid",
            "url": "https://haz-map.com/Agents/67",
            "category": "agents"
          },
          {
            "type": "name_match",
            "text": "methacrylic acid",
            "confidence": 1.0,
            "uuid": "cbb89ac5-c6fb-4f8e-9a25-8dce1702dff5",
            "name": "Methacrylic acid",
            "url": "https://haz-map.com/Agents/215",
            "category": "agents"
          },
          {
            "type": "name_match",
            "text": "ethyl methacrylate",
            "confidence": 1.0,
            "uuid": "c6fffbc1-19c8-4d59-a80f-43c99fc33e11",
            "name": "Ethyl methacrylate",
            "url": "https://haz-map.com/Agents/825",
            "category": "agents"
          },
          {
            "type": "name_match",
            "text": "2-ethoxyethyl methacrylate",
            "confidence": 1.0,
            "uuid": "1f0925ca-ef59-4134-9998-50785e497016",
            "name": "2-Ethoxyethyl methacrylate",
            "url": "https://haz-map.com/Agents/19593",
            "category": "agents"
          }
        ]
      },
      "category": {
        "original_name": "Category",
        "value": "(Meth)acrylates",
        "links": [],
        "cross_references": []
      },
      "description": {
        "original_name": "Description",
        "value": "Colorless liquid with a fruity odor; [Atofina MSDS]",
        "links": [],
        "cross_references": []
      },
      "sourcesuses": {
        "original_name": "Sources/Uses",
        "value": "Used as an intermediate; [Atofina MSDS]",
        "links": [],
        "cross_references": []
      },
      "comments": {
        "original_name": "Comments",
        "value": "Stabilized with 500 ppm butylated hydroxytoluene (CAS# 128-37-0); Causes essentially no eye and mild skin irritation in rabbits; Not a skin sensitizer in guinea pigs; [Atofina MSDS] See \"n-Butyl methacrylate.\"",
        "links": [],
        "cross_references": [
          {
            "type": "name_match",
            "text": "toluene",
            "confidence": 1.0,
            "uuid": "0a34d5de-e924-4c47-aff5-7ae8e48c6772",
            "name": "Toluene",
            "url": "https://haz-map.com/Agents/83",
            "category": "agents"
          },
          {
            "type": "name_match",
            "text": "butylated hydroxytoluene",
            "confidence": 1.0,
            "uuid": "30b3b14d-abf5-4589-a525-777c122abd63",
            "name": "Butylated hydroxytoluene",
            "url": "https://haz-map.com/Agents/393",
            "category": "agents"
          },
          {
            "type": "name_match",
            "text": "butylate",
            "confidence": 1.0,
            "uuid": "b12d0560-252c-45cd-b876-db833a25c2a7",
            "name": "Butylate",
            "url": "https://haz-map.com/Agents/4040",
            "category": "agents"
          },
          {
            "type": "name_match",
            "text": "n-butyl methacrylate",
            "confidence": 1.0,
            "uuid": "3aff603c-da9a-47e2-a440-7b32765ebf18",
            "name": "n-Butyl methacrylate",
            "url": "https://haz-map.com/Agents/6004",
            "category": "agents"
          }
        ]
      },
      "biomedical_references": {
        "original_name": "Biomedical References",
        "value": "Search PubMed",
        "links": [
          {
            "text": "Search PubMed",
            "url": "https://www.ncbi.nlm.nih.gov/pubmed?term=2-Ethoxyethyl+methacrylate%20AND%20human%5Bmh%5D%20AND%20%28Occupational%20Diseases%20%5Bmh%5D%20OR%20Occupational%20Exposure%20%5Bmh%5D%29%20%20AND%20%28tox%5Bsb%5D%29&cmd=search"
          }
        ],
        "cross_references": []
      }
    },
    "exposure_assessment": {
      "vapor_pressure": {
        "original_name": "Vapor Pressure",
        "value": "1.1 mm Hg",
        "links": [],
        "cross_references": []
      },
      "explanatory_notes": {
        "original_name": "Explanatory Notes",
        "value": "The Guide in the Emergency Response Guidebook is for \"Combustible liquid, n.o.s.\"",
        "links": [],
        "cross_references": []
      }
    },
    "diseases_processes_and_activities_linked_to_this_agent": {
      "other_information": {
        "original_name": "Other Information",
        "value": "No other related information on this agent was found.",
        "links": [],
        "cross_references": []
      }
    }
  },
  "cross_references": [
    {
      "type": "name_match",
      "text": "acrylic acid",
      "confidence": 1.0,
      "uuid": "c8e65755-0f00-4e14-91fe-d4fa705d17da",
      "name": "Acrylic acid",
      "url": "https://haz-map.com/Agents/67",
      "category": "agents"
    },
    {
      "type": "name_match",
      "text": "toluene",
      "confidence": 1.0,
      "uuid": "0a34d5de-e924-4c47-aff5-7ae8e48c6772",
      "name": "Toluene",
      "url": "https://haz-map.com/Agents/83",
      "category": "agents"
    },
    {
      "type": "name_match",
      "text": "methacrylic acid",
      "confidence": 1.0,
      "uuid": "cbb89ac5-c6fb-4f8e-9a25-8dce1702dff5",
      "name": "Methacrylic acid",
      "url": "https://haz-map.com/Agents/215",
      "category": "agents"
    },
    {
      "type": "name_match",
      "text": "butylated hydroxytoluene",
      "confidence": 1.0,
      "uuid": "30b3b14d-abf5-4589-a525-777c122abd63",
      "name": "Butylated hydroxytoluene",
      "url": "https://haz-map.com/Agents/393",
      "category": "agents"
    },
    {
      "type": "name_match",
      "text": "ethyl methacrylate",
      "confidence": 1.0,
      "uuid": "c6fffbc1-19c8-4d59-a80f-43c99fc33e11",
      "name": "Ethyl methacrylate",
      "url": "https://haz-map.com/Agents/825",
      "category": "agents"
    },
    {
      "type": "name_match",
      "text": "butylate",
      "confidence": 1.0,
      "uuid": "b12d0560-252c-45cd-b876-db833a25c2a7",
      "name": "Butylate",
      "url": "https://haz-map.com/Agents/4040",
      "category": "agents"
    },
    {
      "type": "name_match",
      "text": "n-butyl methacrylate",
      "confidence": 1.0,
      "uuid": "3aff603c-da9a-47e2-a440-7b32765ebf18",
      "name": "n-Butyl methacrylate",
      "url": "https://haz-map.com/Agents/6004",
      "category": "agents"
    },
    {
      "type": "name_match",
      "text": "2-ethoxyethyl methacrylate",
      "confidence": 1.0,
      "uuid": "1f0925ca-ef59-4134-9998-50785e497016",
      "name": "2-Ethoxyethyl methacrylate",
      "url": "https://haz-map.com/Agents/19593",
      "category": "agents"
    }
  ],
  "all_links": [
    {
      "text": "Search PubMed",
      "url": "https://www.ncbi.nlm.nih.gov/pubmed?term=2-Ethoxyethyl+methacrylate%20AND%20human%5Bmh%5D%20AND%20%28Occupational%20Diseases%20%5Bmh%5D%20OR%20Occupational%20Exposure%20%5Bmh%5D%29%20%20AND%20%28tox%5Bsb%5D%29&cmd=search"
    }
  ]
}