{
  "metadata": {
    "scraped_from": "https://haz-map.com/Agents/19477",
    "entity_name": "2,4-Hexadien-1-ol",
    "category": "agents",
    "uuid": "1f0b82c4-81ba-4b59-97f0-92a868cf4e71",
    "scraped_at": "2025-07-23T22:06:55.496009"
  },
  "parsed_at": "2025-07-24T01:00:15.123561",
  "title": "2,4-Hexadien-1-ol",
  "sections": {
    "general": {
      "agent_name": {
        "original_name": "Agent Name",
        "value": "2,4-Hexadien-1-ol",
        "links": [],
        "cross_references": [
          {
            "type": "name_match",
            "text": "2,4-hexadien-1-ol",
            "confidence": 1.0,
            "uuid": "1f0b82c4-81ba-4b59-97f0-92a868cf4e71",
            "name": "2,4-Hexadien-1-ol",
            "url": "https://haz-map.com/Agents/19477",
            "category": "agents"
          }
        ]
      },
      "cas_number": {
        "original_name": "CAS Number",
        "value": "111-28-4",
        "links": [],
        "cross_references": []
      },
      "formula": {
        "original_name": "Formula",
        "value": "C6-H10-O",
        "links": [],
        "cross_references": []
      },
      "major_category": {
        "original_name": "Major Category",
        "value": "Other Classes",
        "links": [],
        "cross_references": []
      },
      "synonyms": {
        "original_name": "Synonyms",
        "value": "1-Hydroxy-2,4-hexadiene; 2,4-Hexadienol; Hexacose; Hexadenol; Hexakose; Hexene-ol; Hexenol; 2,4-Hexadien-1-ol; [ChemIDplus]",
        "links": [],
        "cross_references": [
          {
            "type": "name_match",
            "text": "hexene",
            "confidence": 1.0,
            "uuid": "592a6801-2d0b-441f-b3f6-6d67971256b7",
            "name": "Hexene",
            "url": "https://haz-map.com/Agents/5534",
            "category": "agents"
          },
          {
            "type": "name_match",
            "text": "2,4-hexadiene",
            "confidence": 1.0,
            "uuid": "23468ff8-0423-4fb4-b9eb-67daea26eab9",
            "name": "2,4-Hexadiene",
            "url": "https://haz-map.com/Agents/9627",
            "category": "agents"
          },
          {
            "type": "name_match",
            "text": "2,4-hexadien-1-ol",
            "confidence": 1.0,
            "uuid": "1f0b82c4-81ba-4b59-97f0-92a868cf4e71",
            "name": "2,4-Hexadien-1-ol",
            "url": "https://haz-map.com/Agents/19477",
            "category": "agents"
          },
          {
            "type": "fuzzy_match",
            "text": "4-hexadiene",
            "matched_name": "1,4-Hexadiene",
            "confidence": 0.8321678321678322,
            "uuid": "27e54e37-45f9-4894-93be-fbd4c02e9bd6",
            "category": "agents",
            "url": "https://haz-map.com/Agents/7914"
          }
        ]
      },
      "category": {
        "original_name": "Category",
        "value": "Alcohols and Polyols, Other",
        "links": [],
        "cross_references": []
      },
      "description": {
        "original_name": "Description",
        "value": "Solid with an agreeable odor of freshly cut grass; mp = 30.5-31.5 deg C; [Merck Index] Colorless solid with a green herbal odor; [Bedoukian Research MSDS]",
        "links": [],
        "cross_references": []
      },
      "sourcesuses": {
        "original_name": "Sources/Uses",
        "value": "Used as a reagent in organic chemistry; [Merck Index] Used as a flavoring agent; [FDA]",
        "links": [],
        "cross_references": []
      },
      "comments": {
        "original_name": "Comments",
        "value": "A severe eye and moderate skin irritant; Causes gastrointestinal changes in oral lethal-dose studies of rats; [RTECS] This CAS number refers to the unspecified stereoisomer; Unstable in air; An irritant; [Merck Index] A skin and eye irritant; Harmful by skin absorption; [Bedoukian Research MSDS]",
        "links": [],
        "cross_references": []
      },
      "biomedical_references": {
        "original_name": "Biomedical References",
        "value": "Search PubMed",
        "links": [
          {
            "text": "Search PubMed",
            "url": "https://www.ncbi.nlm.nih.gov/pubmed?term=2%2c4-Hexadien-1-ol%20AND%20human%5Bmh%5D%20AND%20%28Occupational%20Diseases%20%5Bmh%5D%20OR%20Occupational%20Exposure%20%5Bmh%5D%29%20%20AND%20%28tox%5Bsb%5D%29&cmd=search"
          }
        ],
        "cross_references": []
      }
    },
    "exposure_assessment": {
      "vapor_pressure": {
        "original_name": "Vapor Pressure",
        "value": "0.0243 mm Hg",
        "links": [],
        "cross_references": []
      }
    },
    "diseases_processes_and_activities_linked_to_this_agent": {
      "other_information": {
        "original_name": "Other Information",
        "value": "No other related information on this agent was found.",
        "links": [],
        "cross_references": []
      }
    }
  },
  "cross_references": [
    {
      "type": "name_match",
      "text": "hexene",
      "confidence": 1.0,
      "uuid": "592a6801-2d0b-441f-b3f6-6d67971256b7",
      "name": "Hexene",
      "url": "https://haz-map.com/Agents/5534",
      "category": "agents"
    },
    {
      "type": "name_match",
      "text": "2,4-hexadiene",
      "confidence": 1.0,
      "uuid": "23468ff8-0423-4fb4-b9eb-67daea26eab9",
      "name": "2,4-Hexadiene",
      "url": "https://haz-map.com/Agents/9627",
      "category": "agents"
    },
    {
      "type": "name_match",
      "text": "2,4-hexadien-1-ol",
      "confidence": 1.0,
      "uuid": "1f0b82c4-81ba-4b59-97f0-92a868cf4e71",
      "name": "2,4-Hexadien-1-ol",
      "url": "https://haz-map.com/Agents/19477",
      "category": "agents"
    },
    {
      "type": "fuzzy_match",
      "text": "4-hexadiene",
      "matched_name": "1,4-Hexadiene",
      "confidence": 0.8321678321678322,
      "uuid": "27e54e37-45f9-4894-93be-fbd4c02e9bd6",
      "category": "agents",
      "url": "https://haz-map.com/Agents/7914"
    }
  ],
  "all_links": [
    {
      "text": "Search PubMed",
      "url": "https://www.ncbi.nlm.nih.gov/pubmed?term=2%2c4-Hexadien-1-ol%20AND%20human%5Bmh%5D%20AND%20%28Occupational%20Diseases%20%5Bmh%5D%20OR%20Occupational%20Exposure%20%5Bmh%5D%29%20%20AND%20%28tox%5Bsb%5D%29&cmd=search"
    }
  ]
}