{
  "metadata": {
    "scraped_from": "https://haz-map.com/Agents/18352",
    "entity_name": "Pivalaldehyde",
    "category": "agents",
    "uuid": "1ffda1ec-d23f-4f56-ab9f-438a459b272a",
    "scraped_at": "2025-07-23T21:54:42.004901"
  },
  "parsed_at": "2025-07-24T00:54:42.824045",
  "title": "Pivalaldehyde",
  "sections": {
    "general": {
      "agent_name": {
        "original_name": "Agent Name",
        "value": "Pivalaldehyde",
        "links": [],
        "cross_references": [
          {
            "type": "name_match",
            "text": "pivalaldehyde",
            "confidence": 1.0,
            "uuid": "1ffda1ec-d23f-4f56-ab9f-438a459b272a",
            "name": "Pivalaldehyde",
            "url": "https://haz-map.com/Agents/18352",
            "category": "agents"
          }
        ]
      },
      "alternative_name": {
        "original_name": "Alternative Name",
        "value": "Trimethylacetaldehyde",
        "links": [],
        "cross_references": [
          {
            "type": "name_match",
            "text": "acetaldehyde",
            "confidence": 1.0,
            "uuid": "fe4656a6-c05e-430a-bdd9-e053a298707a",
            "name": "Acetaldehyde",
            "url": "https://haz-map.com/Agents/94",
            "category": "agents"
          },
          {
            "type": "name_match",
            "text": "acetal",
            "confidence": 1.0,
            "uuid": "1ee09b5b-04fd-47c0-ab34-a2d9db740bcb",
            "name": "Acetal",
            "url": "https://haz-map.com/Agents/3381",
            "category": "agents"
          }
        ]
      },
      "cas_number": {
        "original_name": "CAS Number",
        "value": "630-19-3",
        "links": [],
        "cross_references": []
      },
      "formula": {
        "original_name": "Formula",
        "value": "C5-H10-O",
        "links": [],
        "cross_references": []
      },
      "major_category": {
        "original_name": "Major Category",
        "value": "Other Classes",
        "links": [],
        "cross_references": []
      },
      "synonyms": {
        "original_name": "Synonyms",
        "value": "Pivaldehyde; Propanal, 2,2-dimethyl-; 2,2-Dimethylpropanal; 2,2-Dimethylpropionaldehyde; alpha,alpha-Dimethylpropanal; alpha,alpha-Dimethylpropionaldehyde; Neopentanal; Pivalic aldehyde; Trimethylacetaldehyde; [ChemIDplus] Neopentaldehyde; tert-Pentanal; [Merck Index] UN1989",
        "links": [],
        "cross_references": [
          {
            "type": "name_match",
            "text": "acetaldehyde",
            "confidence": 1.0,
            "uuid": "fe4656a6-c05e-430a-bdd9-e053a298707a",
            "name": "Acetaldehyde",
            "url": "https://haz-map.com/Agents/94",
            "category": "agents"
          },
          {
            "type": "name_match",
            "text": "propionaldehyde",
            "confidence": 1.0,
            "uuid": "bd19a1f0-19d2-4374-a727-484287733d4e",
            "name": "Propionaldehyde",
            "url": "https://haz-map.com/Agents/102",
            "category": "agents"
          },
          {
            "type": "name_match",
            "text": "acetal",
            "confidence": 1.0,
            "uuid": "1ee09b5b-04fd-47c0-ab34-a2d9db740bcb",
            "name": "Acetal",
            "url": "https://haz-map.com/Agents/3381",
            "category": "agents"
          },
          {
            "type": "fuzzy_match",
            "text": "2-dimethylpropionaldehyde",
            "matched_name": "3-Hydroxy-2,2-dimethylpropionaldehyde",
            "confidence": 0.7545045045045045,
            "uuid": "7c66488d-2da8-423f-85d4-c97489762e9c",
            "category": "agents",
            "url": "https://haz-map.com/Agents/3233"
          }
        ]
      },
      "category": {
        "original_name": "Category",
        "value": "Aldehydes",
        "links": [],
        "cross_references": [
          {
            "type": "name_match",
            "text": "aldehydes",
            "confidence": 1.0,
            "uuid": "60ff52e0-7c53-4dd0-99cf-f775cfcfed59",
            "name": "ALDEHYDES",
            "url": "https://haz-map.com/Agents/719",
            "category": "agents"
          }
        ]
      },
      "description": {
        "original_name": "Description",
        "value": "Colorless liquid; [Merck Index] mp = 6 deg C; [Alfa Aesar MSDS]",
        "links": [],
        "cross_references": []
      },
      "sourcesuses": {
        "original_name": "Sources/Uses",
        "value": "Used as a reagent in synthetic organic chemistry; [Merck Index]",
        "links": [],
        "cross_references": []
      },
      "comments": {
        "original_name": "Comments",
        "value": "An irritant; [Alfa Aesar MSDS]",
        "links": [],
        "cross_references": []
      },
      "biomedical_references": {
        "original_name": "Biomedical References",
        "value": "Search PubMed",
        "links": [
          {
            "text": "Search PubMed",
            "url": "https://www.ncbi.nlm.nih.gov/pubmed?term=Pivalaldehyde%20AND%20human%5Bmh%5D%20AND%20%28Occupational%20Diseases%20%5Bmh%5D%20OR%20Occupational%20Exposure%20%5Bmh%5D%29%20%20AND%20%28tox%5Bsb%5D%29&cmd=search"
          }
        ],
        "cross_references": []
      }
    },
    "exposure_assessment": {
      "vapor_pressure": {
        "original_name": "Vapor Pressure",
        "value": "71.2 mm Hg",
        "links": [],
        "cross_references": []
      },
      "explanatory_notes": {
        "original_name": "Explanatory Notes",
        "value": "The Guide in the Emergency Response Guidebook is for \"Aldehydes, n.o.s.\"",
        "links": [],
        "cross_references": [
          {
            "type": "name_match",
            "text": "aldehydes",
            "confidence": 1.0,
            "uuid": "60ff52e0-7c53-4dd0-99cf-f775cfcfed59",
            "name": "ALDEHYDES",
            "url": "https://haz-map.com/Agents/719",
            "category": "agents"
          }
        ]
      }
    },
    "diseases_processes_and_activities_linked_to_this_agent": {
      "other_information": {
        "original_name": "Other Information",
        "value": "No other related information on this agent was found.",
        "links": [],
        "cross_references": []
      }
    }
  },
  "cross_references": [
    {
      "type": "name_match",
      "text": "acetaldehyde",
      "confidence": 1.0,
      "uuid": "fe4656a6-c05e-430a-bdd9-e053a298707a",
      "name": "Acetaldehyde",
      "url": "https://haz-map.com/Agents/94",
      "category": "agents"
    },
    {
      "type": "name_match",
      "text": "propionaldehyde",
      "confidence": 1.0,
      "uuid": "bd19a1f0-19d2-4374-a727-484287733d4e",
      "name": "Propionaldehyde",
      "url": "https://haz-map.com/Agents/102",
      "category": "agents"
    },
    {
      "type": "name_match",
      "text": "aldehydes",
      "confidence": 1.0,
      "uuid": "60ff52e0-7c53-4dd0-99cf-f775cfcfed59",
      "name": "ALDEHYDES",
      "url": "https://haz-map.com/Agents/719",
      "category": "agents"
    },
    {
      "type": "name_match",
      "text": "acetal",
      "confidence": 1.0,
      "uuid": "1ee09b5b-04fd-47c0-ab34-a2d9db740bcb",
      "name": "Acetal",
      "url": "https://haz-map.com/Agents/3381",
      "category": "agents"
    },
    {
      "type": "name_match",
      "text": "pivalaldehyde",
      "confidence": 1.0,
      "uuid": "1ffda1ec-d23f-4f56-ab9f-438a459b272a",
      "name": "Pivalaldehyde",
      "url": "https://haz-map.com/Agents/18352",
      "category": "agents"
    },
    {
      "type": "fuzzy_match",
      "text": "2-dimethylpropionaldehyde",
      "matched_name": "3-Hydroxy-2,2-dimethylpropionaldehyde",
      "confidence": 0.7545045045045045,
      "uuid": "7c66488d-2da8-423f-85d4-c97489762e9c",
      "category": "agents",
      "url": "https://haz-map.com/Agents/3233"
    }
  ],
  "all_links": [
    {
      "text": "Search PubMed",
      "url": "https://www.ncbi.nlm.nih.gov/pubmed?term=Pivalaldehyde%20AND%20human%5Bmh%5D%20AND%20%28Occupational%20Diseases%20%5Bmh%5D%20OR%20Occupational%20Exposure%20%5Bmh%5D%29%20%20AND%20%28tox%5Bsb%5D%29&cmd=search"
    }
  ]
}