{
  "metadata": {
    "scraped_from": "https://haz-map.com/Agents/11668",
    "entity_name": "6-Dodecanone",
    "category": "agents",
    "uuid": "203ceec9-2323-47df-a504-a7e76a9ce895",
    "scraped_at": "2025-07-23T21:02:45.011637"
  },
  "parsed_at": "2025-07-24T00:51:35.865323",
  "title": "6-Dodecanone",
  "sections": {
    "general": {
      "agent_name": {
        "original_name": "Agent Name",
        "value": "6-Dodecanone",
        "links": [],
        "cross_references": [
          {
            "type": "name_match",
            "text": "6-dodecanone",
            "confidence": 1.0,
            "uuid": "203ceec9-2323-47df-a504-a7e76a9ce895",
            "name": "6-Dodecanone",
            "url": "https://haz-map.com/Agents/11668",
            "category": "agents"
          }
        ]
      },
      "cas_number": {
        "original_name": "CAS Number",
        "value": "6064-27-3",
        "links": [],
        "cross_references": []
      },
      "formula": {
        "original_name": "Formula",
        "value": "C12-H24-O",
        "links": [],
        "cross_references": []
      },
      "major_category": {
        "original_name": "Major Category",
        "value": "Other Classes",
        "links": [],
        "cross_references": []
      },
      "category": {
        "original_name": "Category",
        "value": "Aliphatic Ketones, Other",
        "links": [],
        "cross_references": []
      },
      "description": {
        "original_name": "Description",
        "value": "Melting point = 9 deg C; [ChemSampCo MSDS]",
        "links": [],
        "cross_references": []
      },
      "comments": {
        "original_name": "Comments",
        "value": "A skin and eye irritant; [ChemSampCo MSDS]",
        "links": [],
        "cross_references": []
      },
      "biomedical_references": {
        "original_name": "Biomedical References",
        "value": "Search PubMed",
        "links": [
          {
            "text": "Search PubMed",
            "url": "https://www.ncbi.nlm.nih.gov/pubmed?term=6-Dodecanone%20AND%20human%5Bmh%5D%20AND%20%28Occupational%20Diseases%20%5Bmh%5D%20OR%20Occupational%20Exposure%20%5Bmh%5D%29%20%20AND%20%28tox%5Bsb%5D%29&cmd=search"
          }
        ],
        "cross_references": []
      }
    },
    "diseases_processes_and_activities_linked_to_this_agent": {
      "other_information": {
        "original_name": "Other Information",
        "value": "No other related information on this agent was found.",
        "links": [],
        "cross_references": []
      }
    }
  },
  "cross_references": [
    {
      "type": "name_match",
      "text": "6-dodecanone",
      "confidence": 1.0,
      "uuid": "203ceec9-2323-47df-a504-a7e76a9ce895",
      "name": "6-Dodecanone",
      "url": "https://haz-map.com/Agents/11668",
      "category": "agents"
    }
  ],
  "all_links": [
    {
      "text": "Search PubMed",
      "url": "https://www.ncbi.nlm.nih.gov/pubmed?term=6-Dodecanone%20AND%20human%5Bmh%5D%20AND%20%28Occupational%20Diseases%20%5Bmh%5D%20OR%20Occupational%20Exposure%20%5Bmh%5D%29%20%20AND%20%28tox%5Bsb%5D%29&cmd=search"
    }
  ]
}