{
  "metadata": {
    "scraped_from": "https://haz-map.com/Agents/1400",
    "entity_name": "Dichloroacetyl chloride",
    "category": "agents",
    "uuid": "20681c71-9cef-4b75-9310-2e8ec25332f3",
    "scraped_at": "2025-07-23T18:58:13.066900"
  },
  "parsed_at": "2025-07-24T00:59:00.679652",
  "title": "Dichloroacetyl chloride",
  "sections": {
    "general": {
      "agent_name": {
        "original_name": "Agent Name",
        "value": "Dichloroacetyl chloride",
        "links": [],
        "cross_references": [
          {
            "type": "name_match",
            "text": "chloroacetyl chloride",
            "confidence": 1.0,
            "uuid": "a7ed40a4-5554-4135-a207-6189a699f7d2",
            "name": "Chloroacetyl chloride",
            "url": "https://haz-map.com/Agents/354",
            "category": "agents"
          },
          {
            "type": "name_match",
            "text": "acetyl chloride",
            "confidence": 1.0,
            "uuid": "4344d69e-7f30-4ea8-9f6a-c3906f464fde",
            "name": "Acetyl chloride",
            "url": "https://haz-map.com/Agents/1375",
            "category": "agents"
          },
          {
            "type": "name_match",
            "text": "dichloroacetyl chloride",
            "confidence": 1.0,
            "uuid": "20681c71-9cef-4b75-9310-2e8ec25332f3",
            "name": "Dichloroacetyl chloride",
            "url": "https://haz-map.com/Agents/1400",
            "category": "agents"
          }
        ]
      },
      "cas_number": {
        "original_name": "CAS Number",
        "value": "79-36-7",
        "links": [],
        "cross_references": []
      },
      "formula": {
        "original_name": "Formula",
        "value": "C2-H-Cl3-O",
        "links": [],
        "cross_references": []
      },
      "major_category": {
        "original_name": "Major Category",
        "value": "Toxic Gases & Vapors",
        "links": [],
        "cross_references": []
      },
      "synonyms": {
        "original_name": "Synonyms",
        "value": "2,2-Dichloroacetyl chloride; alpha,alpha-Dichloroacetyl chloride; Dichloroacetyl chloride; Dichloroethanoyl chloride;",
        "links": [],
        "cross_references": [
          {
            "type": "name_match",
            "text": "chloroacetyl chloride",
            "confidence": 1.0,
            "uuid": "a7ed40a4-5554-4135-a207-6189a699f7d2",
            "name": "Chloroacetyl chloride",
            "url": "https://haz-map.com/Agents/354",
            "category": "agents"
          },
          {
            "type": "name_match",
            "text": "acetyl chloride",
            "confidence": 1.0,
            "uuid": "4344d69e-7f30-4ea8-9f6a-c3906f464fde",
            "name": "Acetyl chloride",
            "url": "https://haz-map.com/Agents/1375",
            "category": "agents"
          },
          {
            "type": "name_match",
            "text": "dichloroacetyl chloride",
            "confidence": 1.0,
            "uuid": "20681c71-9cef-4b75-9310-2e8ec25332f3",
            "name": "Dichloroacetyl chloride",
            "url": "https://haz-map.com/Agents/1400",
            "category": "agents"
          }
        ]
      },
      "category": {
        "original_name": "Category",
        "value": "Acid Halides",
        "links": [],
        "cross_references": []
      },
      "description": {
        "original_name": "Description",
        "value": "Liquid with a penetrating odor; [HSDB]",
        "links": [],
        "cross_references": []
      },
      "sourcesuses": {
        "original_name": "Sources/Uses",
        "value": "Used as a chemical intermediate; [HSDB]",
        "links": [],
        "cross_references": [
          {
            "type": "name_match",
            "text": "mica",
            "confidence": 1.0,
            "uuid": "433f26f1-c399-4596-b179-ce3843cfd465",
            "name": "Mica",
            "url": "https://haz-map.com/Agents/621",
            "category": "agents"
          }
        ]
      },
      "comments": {
        "original_name": "Comments",
        "value": "Highly corrosive to skin; [Quick CPC] \"Tear drawing.\" High inhalation exposure can cause pulmonary edema; [ICSC]",
        "links": [],
        "cross_references": [
          {
            "type": "name_match",
            "text": "pulmonary edema",
            "confidence": 1.0,
            "uuid": "ee39114e-c922-40fd-9588-a532de404962",
            "name": "pulmonary edema",
            "url": "https://haz-map.com/Findings/186",
            "category": "findings"
          },
          {
            "type": "name_match",
            "text": "tea",
            "confidence": 1.0,
            "uuid": "773409e5-ac1a-4c9e-9470-9667ca82091c",
            "name": "Tea",
            "url": "https://haz-map.com/Agents/878",
            "category": "agents"
          }
        ]
      },
      "biomedical_references": {
        "original_name": "Biomedical References",
        "value": "Search PubMed",
        "links": [
          {
            "text": "Search PubMed",
            "url": "https://www.ncbi.nlm.nih.gov/pubmed?term=Dichloroacetyl+chloride%20AND%20human%5Bmh%5D%20AND%20%28Occupational%20Diseases%20%5Bmh%5D%20OR%20Occupational%20Exposure%20%5Bmh%5D%29%20%20AND%20%28tox%5Bsb%5D%29&cmd=search"
          }
        ],
        "cross_references": []
      }
    },
    "exposure_assessment": {
      "vapor_pressure": {
        "original_name": "Vapor Pressure",
        "value": "23 mm Hg",
        "links": [],
        "cross_references": []
      },
      "explanatory_notes": {
        "original_name": "Explanatory Notes",
        "value": "VP from ICSC (kPa at 20 deg C: 3.1);",
        "links": [],
        "cross_references": []
      },
      "nfpa": {
        "original_name": "NFPA",
        "value": "high ambient temp required",
        "links": [],
        "cross_references": []
      }
    },
    "adverse_effects": {
      "lachrymator": {
        "original_name": "Lachrymator",
        "value": "Yes",
        "links": [],
        "cross_references": []
      },
      "toxic_pneumonitis": {
        "original_name": "Toxic Pneumonitis",
        "value": "Yes",
        "links": [],
        "cross_references": []
      },
      "dermatotoxin": {
        "original_name": "Dermatotoxin",
        "value": "Skin burns",
        "links": [],
        "cross_references": [
          {
            "type": "name_match",
            "text": "burn",
            "confidence": 1.0,
            "uuid": "63665de5-6376-4918-8dbf-4c10c4d63837",
            "name": "burn",
            "url": "https://haz-map.com/Findings/204",
            "category": "findings"
          }
        ]
      }
    },
    "diseases_processes_and_activities_linked_to_this_agent": {
      "processes": {
        "original_name": "Processes",
        "value": "Industrial Processes with risk of exposure: Toxic Gas from Spilling Chemical in Water",
        "links": [
          {
            "text": "Toxic Gas from Spilling Chemical in Water",
            "url": "https://haz-map.com/Processes/256"
          }
        ],
        "cross_references": [
          {
            "type": "name_match",
            "text": "mica",
            "confidence": 1.0,
            "uuid": "433f26f1-c399-4596-b179-ce3843cfd465",
            "name": "Mica",
            "url": "https://haz-map.com/Agents/621",
            "category": "agents"
          },
          {
            "type": "name_match",
            "text": "water",
            "confidence": 1.0,
            "uuid": "6f2a7557-dfd2-49bc-9b4b-a93cd8e225d4",
            "name": "Water",
            "url": "https://haz-map.com/Agents/18668",
            "category": "agents"
          }
        ]
      }
    }
  },
  "cross_references": [
    {
      "type": "name_match",
      "text": "pulmonary edema",
      "confidence": 1.0,
      "uuid": "ee39114e-c922-40fd-9588-a532de404962",
      "name": "pulmonary edema",
      "url": "https://haz-map.com/Findings/186",
      "category": "findings"
    },
    {
      "type": "name_match",
      "text": "burn",
      "confidence": 1.0,
      "uuid": "63665de5-6376-4918-8dbf-4c10c4d63837",
      "name": "burn",
      "url": "https://haz-map.com/Findings/204",
      "category": "findings"
    },
    {
      "type": "name_match",
      "text": "chloroacetyl chloride",
      "confidence": 1.0,
      "uuid": "a7ed40a4-5554-4135-a207-6189a699f7d2",
      "name": "Chloroacetyl chloride",
      "url": "https://haz-map.com/Agents/354",
      "category": "agents"
    },
    {
      "type": "name_match",
      "text": "mica",
      "confidence": 1.0,
      "uuid": "433f26f1-c399-4596-b179-ce3843cfd465",
      "name": "Mica",
      "url": "https://haz-map.com/Agents/621",
      "category": "agents"
    },
    {
      "type": "name_match",
      "text": "tea",
      "confidence": 1.0,
      "uuid": "773409e5-ac1a-4c9e-9470-9667ca82091c",
      "name": "Tea",
      "url": "https://haz-map.com/Agents/878",
      "category": "agents"
    },
    {
      "type": "name_match",
      "text": "acetyl chloride",
      "confidence": 1.0,
      "uuid": "4344d69e-7f30-4ea8-9f6a-c3906f464fde",
      "name": "Acetyl chloride",
      "url": "https://haz-map.com/Agents/1375",
      "category": "agents"
    },
    {
      "type": "name_match",
      "text": "dichloroacetyl chloride",
      "confidence": 1.0,
      "uuid": "20681c71-9cef-4b75-9310-2e8ec25332f3",
      "name": "Dichloroacetyl chloride",
      "url": "https://haz-map.com/Agents/1400",
      "category": "agents"
    },
    {
      "type": "name_match",
      "text": "water",
      "confidence": 1.0,
      "uuid": "6f2a7557-dfd2-49bc-9b4b-a93cd8e225d4",
      "name": "Water",
      "url": "https://haz-map.com/Agents/18668",
      "category": "agents"
    }
  ],
  "all_links": [
    {
      "text": "Search PubMed",
      "url": "https://www.ncbi.nlm.nih.gov/pubmed?term=Dichloroacetyl+chloride%20AND%20human%5Bmh%5D%20AND%20%28Occupational%20Diseases%20%5Bmh%5D%20OR%20Occupational%20Exposure%20%5Bmh%5D%29%20%20AND%20%28tox%5Bsb%5D%29&cmd=search"
    },
    {
      "text": "Toxic Gas from Spilling Chemical in Water",
      "url": "https://haz-map.com/Processes/256"
    }
  ]
}