{
  "metadata": {
    "scraped_from": "https://haz-map.com/Agents/7597",
    "entity_name": "Tri-n-octyl trimellitate",
    "category": "agents",
    "uuid": "20b8b92a-9b3d-4123-b4ec-1690dd7c9e73",
    "scraped_at": "2025-07-23T20:14:40.568339"
  },
  "parsed_at": "2025-07-24T01:01:02.502793",
  "title": "Tri-n-octyl trimellitate",
  "sections": {
    "general": {
      "agent_name": {
        "original_name": "Agent Name",
        "value": "Tri-n-octyl trimellitate",
        "links": [],
        "cross_references": [
          {
            "type": "name_match",
            "text": "tri-n-octyl trimellitate",
            "confidence": 1.0,
            "uuid": "20b8b92a-9b3d-4123-b4ec-1690dd7c9e73",
            "name": "Tri-n-octyl trimellitate",
            "url": "https://haz-map.com/Agents/7597",
            "category": "agents"
          }
        ]
      },
      "cas_number": {
        "original_name": "CAS Number",
        "value": "89-04-3",
        "links": [],
        "cross_references": []
      },
      "formula": {
        "original_name": "Formula",
        "value": "C33-H54-O6",
        "links": [],
        "cross_references": []
      },
      "major_category": {
        "original_name": "Major Category",
        "value": "Plastics & Rubber",
        "links": [],
        "cross_references": []
      },
      "synonyms": {
        "original_name": "Synonyms",
        "value": "PX 338; TOTM; Trimex N 08; Trioctyl trimellitate; 1,2,4-Benzenetricarboxylic acid, 1,2,4-trioctyl ester; 1,2,4-Benzenetricarboxylic acid, trioctyl ester; Trioctyl benzene-1,2,4-tricarboxylate; Benzene tricarboxylic acid, trioctyl ester; [ChemIDplus]",
        "links": [],
        "cross_references": [
          {
            "type": "name_match",
            "text": "benzene",
            "confidence": 1.0,
            "uuid": "b05124de-5f34-4c14-8f04-ccb20c3780d9",
            "name": "Benzene",
            "url": "https://haz-map.com/Agents/5",
            "category": "agents"
          }
        ]
      },
      "category": {
        "original_name": "Category",
        "value": "Other Plasticizers",
        "links": [],
        "cross_references": []
      },
      "sourcesuses": {
        "original_name": "Sources/Uses",
        "value": "Plasticizer in vinyl applications; [http://www.neuchem.com/content/view/121/34/]",
        "links": [],
        "cross_references": [
          {
            "type": "name_match",
            "text": "ht",
            "confidence": 1.0,
            "uuid": "764df367-8d53-4a11-81a2-31ccfe122a8d",
            "name": "HT",
            "url": "https://haz-map.com/Agents/2168",
            "category": "agents"
          }
        ]
      },
      "biomedical_references": {
        "original_name": "Biomedical References",
        "value": "Search PubMed",
        "links": [
          {
            "text": "Search PubMed",
            "url": "https://www.ncbi.nlm.nih.gov/pubmed?term=Tri-n-octyl+trimellitate%20AND%20human%5Bmh%5D%20AND%20%28Occupational%20Diseases%20%5Bmh%5D%20OR%20Occupational%20Exposure%20%5Bmh%5D%29%20%20AND%20%28tox%5Bsb%5D%29&cmd=search"
          }
        ],
        "cross_references": []
      }
    },
    "exposure_assessment": {
      "vapor_pressure": {
        "original_name": "Vapor Pressure",
        "value": "5.3E-12 mm Hg",
        "links": [],
        "cross_references": []
      }
    },
    "diseases_processes_and_activities_linked_to_this_agent": {
      "other_information": {
        "original_name": "Other Information",
        "value": "No other related information on this agent was found.",
        "links": [],
        "cross_references": []
      }
    }
  },
  "cross_references": [
    {
      "type": "name_match",
      "text": "benzene",
      "confidence": 1.0,
      "uuid": "b05124de-5f34-4c14-8f04-ccb20c3780d9",
      "name": "Benzene",
      "url": "https://haz-map.com/Agents/5",
      "category": "agents"
    },
    {
      "type": "name_match",
      "text": "ht",
      "confidence": 1.0,
      "uuid": "764df367-8d53-4a11-81a2-31ccfe122a8d",
      "name": "HT",
      "url": "https://haz-map.com/Agents/2168",
      "category": "agents"
    },
    {
      "type": "name_match",
      "text": "tri-n-octyl trimellitate",
      "confidence": 1.0,
      "uuid": "20b8b92a-9b3d-4123-b4ec-1690dd7c9e73",
      "name": "Tri-n-octyl trimellitate",
      "url": "https://haz-map.com/Agents/7597",
      "category": "agents"
    }
  ],
  "all_links": [
    {
      "text": "Search PubMed",
      "url": "https://www.ncbi.nlm.nih.gov/pubmed?term=Tri-n-octyl+trimellitate%20AND%20human%5Bmh%5D%20AND%20%28Occupational%20Diseases%20%5Bmh%5D%20OR%20Occupational%20Exposure%20%5Bmh%5D%29%20%20AND%20%28tox%5Bsb%5D%29&cmd=search"
    }
  ]
}