{
  "metadata": {
    "scraped_from": "https://haz-map.com/Agents/1007",
    "entity_name": "4-Chloro-3,5-xylenol",
    "category": "agents",
    "uuid": "20df57ff-3c55-4a30-854a-42f414ffc757",
    "scraped_at": "2025-07-23T18:51:27.752924"
  },
  "parsed_at": "2025-07-24T01:01:43.704772",
  "title": "4-Chloro-3,5-xylenol",
  "sections": {
    "general": {
      "agent_name": {
        "original_name": "Agent Name",
        "value": "4-Chloro-3,5-xylenol",
        "links": [],
        "cross_references": [
          {
            "type": "name_match",
            "text": "4-chloro-3,5-xylenol",
            "confidence": 1.0,
            "uuid": "20df57ff-3c55-4a30-854a-42f414ffc757",
            "name": "4-Chloro-3,5-xylenol",
            "url": "https://haz-map.com/Agents/1007",
            "category": "agents"
          },
          {
            "type": "name_match",
            "text": "xylenol",
            "confidence": 1.0,
            "uuid": "b3841b62-71db-4e83-86de-5a0182f482a9",
            "name": "Xylenol",
            "url": "https://haz-map.com/Agents/1442",
            "category": "agents"
          }
        ]
      },
      "cas_number": {
        "original_name": "CAS Number",
        "value": "88-04-0",
        "links": [],
        "cross_references": []
      },
      "formula": {
        "original_name": "Formula",
        "value": "C8-H9-Cl-O",
        "links": [],
        "cross_references": []
      },
      "major_category": {
        "original_name": "Major Category",
        "value": "Other Uses",
        "links": [],
        "cross_references": []
      },
      "synonyms": {
        "original_name": "Synonyms",
        "value": "2-Chloro-5-hydroxy-1,3-dimethylbenzene; 2-Chloro-5-hydroxy-m-xylene; 2-Chloro-m-xylenol; 3,5-Dimethyl-4-chlorophenol; 4-Chloro-1-hydroxy-3,5-dimethylbenzene; 4-Chloro-3,5-dimethylphenol; 4-Chloro-3,5-xylenol; 4-Chloro-m-xylenol; Benzytol; Chloro-xylenol; Chloroxylenolum [INN-Latin]; Chlorxylenolum; Clorossilenolo [DCIT]; Cloroxilenol [INN-Spanish]; Desson; Dettol; Dettol, liquid antiseptic; Espadol; Husept Extra; Nipacide MX; Ottasept; Ottasept Extra; PCMX; Phenol, 4-chloro-3,5-dimethyl-; RBA 777; Septiderm-Hydrochloride; Willenol V; p-Chloro-3,5-xylenol; p-Chloro-m-xylenol; [ChemIDplus]",
        "links": [],
        "cross_references": [
          {
            "type": "name_match",
            "text": "benzene",
            "confidence": 1.0,
            "uuid": "b05124de-5f34-4c14-8f04-ccb20c3780d9",
            "name": "Benzene",
            "url": "https://haz-map.com/Agents/5",
            "category": "agents"
          },
          {
            "type": "name_match",
            "text": "phenol",
            "confidence": 1.0,
            "uuid": "03141a03-a7df-4f51-9a37-adde1a7c4b31",
            "name": "Phenol",
            "url": "https://haz-map.com/Agents/84",
            "category": "agents"
          },
          {
            "type": "name_match",
            "text": "4-chloro-3,5-xylenol",
            "confidence": 1.0,
            "uuid": "20df57ff-3c55-4a30-854a-42f414ffc757",
            "name": "4-Chloro-3,5-xylenol",
            "url": "https://haz-map.com/Agents/1007",
            "category": "agents"
          },
          {
            "type": "name_match",
            "text": "xylenol",
            "confidence": 1.0,
            "uuid": "b3841b62-71db-4e83-86de-5a0182f482a9",
            "name": "Xylenol",
            "url": "https://haz-map.com/Agents/1442",
            "category": "agents"
          },
          {
            "type": "name_match",
            "text": "3,5-dimethylphenol",
            "confidence": 1.0,
            "uuid": "ffb14c2b-57f9-495d-9a6e-f6ee2ca79837",
            "name": "3,5-Dimethylphenol",
            "url": "https://haz-map.com/Agents/3208",
            "category": "agents"
          },
          {
            "type": "name_match",
            "text": "4-chlorophenol",
            "confidence": 1.0,
            "uuid": "68860eb9-ad59-4031-9952-3aa0643ccf34",
            "name": "4-Chlorophenol",
            "url": "https://haz-map.com/Agents/3294",
            "category": "agents"
          },
          {
            "type": "name_match",
            "text": "m-xylene",
            "confidence": 1.0,
            "uuid": "6e70ec96-2a83-4a6c-84c5-45b1d8cc4824",
            "name": "m-Xylene",
            "url": "https://haz-map.com/Agents/15725",
            "category": "agents"
          },
          {
            "type": "fuzzy_match",
            "text": "5-dimethylphenol",
            "matched_name": "2,5-Dimethylphenol",
            "confidence": 0.8777777777777778,
            "uuid": "362c1d56-559e-4727-a680-7e24502f0a7d",
            "category": "agents",
            "url": "https://haz-map.com/Agents/3027"
          }
        ]
      },
      "category": {
        "original_name": "Category",
        "value": "Biocides/Disinfectants",
        "links": [],
        "cross_references": []
      },
      "description": {
        "original_name": "Description",
        "value": "Crystals from benzene; [HSDB]",
        "links": [],
        "cross_references": [
          {
            "type": "name_match",
            "text": "benzene",
            "confidence": 1.0,
            "uuid": "b05124de-5f34-4c14-8f04-ccb20c3780d9",
            "name": "Benzene",
            "url": "https://haz-map.com/Agents/5",
            "category": "agents"
          }
        ]
      },
      "sourcesuses": {
        "original_name": "Sources/Uses",
        "value": "PCMX is one of the biocides commonly used in metalworking fluids. [Occupational Exposure to Metalworking Fluids. DHHS (NIOSH) Publication No. 98-102, 1998, Table 4-1]",
        "links": [],
        "cross_references": []
      },
      "comments": {
        "original_name": "Comments",
        "value": "\"Chloroxylenol is a very popular household and hospital disinfectant, and the authors have seen housekeepers who developed allergic contact dermatitis from this preservative in liquid soaps.\" [Marks, p. 141]",
        "links": [],
        "cross_references": [
          {
            "type": "name_match",
            "text": "dermatitis",
            "confidence": 1.0,
            "uuid": "fe9c05f2-b19f-4ceb-ac7a-ffb7d7a0cae0",
            "name": "dermatitis",
            "url": "https://haz-map.com/Findings/59",
            "category": "findings"
          },
          {
            "type": "name_match",
            "text": "xylenol",
            "confidence": 1.0,
            "uuid": "b3841b62-71db-4e83-86de-5a0182f482a9",
            "name": "Xylenol",
            "url": "https://haz-map.com/Agents/1442",
            "category": "agents"
          },
          {
            "type": "fuzzy_match",
            "text": "contact dermatitis",
            "matched_name": "Contact dermatitis, allergic",
            "confidence": 0.7214285714285715,
            "uuid": "c9499de0-9aa1-41bf-8753-cd5b28a63e29",
            "category": "diseases",
            "url": "https://haz-map.com/Diseases/18"
          }
        ]
      },
      "reference_link_1": {
        "original_name": "Reference Link #1",
        "value": "EPA Pesticide Chemical Search",
        "links": [
          {
            "text": "EPA Pesticide Chemical Search",
            "url": "https://iaspub.epa.gov/apex/pesticides/f?p=CHEMICALSEARCH:1:"
          }
        ],
        "cross_references": [
          {
            "type": "name_match",
            "text": "mica",
            "confidence": 1.0,
            "uuid": "433f26f1-c399-4596-b179-ce3843cfd465",
            "name": "Mica",
            "url": "https://haz-map.com/Agents/621",
            "category": "agents"
          }
        ]
      },
      "biomedical_references": {
        "original_name": "Biomedical References",
        "value": "Search PubMed",
        "links": [
          {
            "text": "Search PubMed",
            "url": "https://www.ncbi.nlm.nih.gov/pubmed?term=4-Chloro-3%2c5-xylenol%20AND%20human%5Bmh%5D%20AND%20%28Occupational%20Diseases%20%5Bmh%5D%20OR%20Occupational%20Exposure%20%5Bmh%5D%29%20%20AND%20%28tox%5Bsb%5D%29&cmd=search"
          }
        ],
        "cross_references": []
      }
    },
    "exposure_assessment": {
      "vapor_pressure": {
        "original_name": "Vapor Pressure",
        "value": "0.0018 mm Hg",
        "links": [],
        "cross_references": []
      },
      "explanatory_notes": {
        "original_name": "Explanatory Notes",
        "value": "VP from HSDB;",
        "links": [],
        "cross_references": []
      }
    },
    "adverse_effects": {
      "skin_sensitizer": {
        "original_name": "Skin Sensitizer",
        "value": "Yes",
        "links": [],
        "cross_references": []
      }
    },
    "diseases_processes_and_activities_linked_to_this_agent": {
      "diseases": {
        "original_name": "Diseases",
        "value": "Occupational diseases associated with exposure to this agent: Contact dermatitis, allergic",
        "links": [
          {
            "text": "Contact dermatitis, allergic",
            "url": "https://haz-map.com/Diseases/18"
          }
        ],
        "cross_references": [
          {
            "type": "url_match",
            "text": "Contact dermatitis, allergic",
            "url": "https://haz-map.com/Diseases/18",
            "confidence": 1.0,
            "uuid": "c9499de0-9aa1-41bf-8753-cd5b28a63e29",
            "name": "Contact dermatitis, allergic",
            "category": "diseases"
          },
          {
            "type": "name_match",
            "text": "dermatitis",
            "confidence": 1.0,
            "uuid": "fe9c05f2-b19f-4ceb-ac7a-ffb7d7a0cae0",
            "name": "dermatitis",
            "url": "https://haz-map.com/Findings/59",
            "category": "findings"
          }
        ]
      },
      "processes": {
        "original_name": "Processes",
        "value": "Industrial Processes with risk of exposure: Metal Machining Using Disinfectants or Biocides",
        "links": [
          {
            "text": "Metal Machining",
            "url": "https://haz-map.com/Processes/35"
          },
          {
            "text": "Using Disinfectants or Biocides",
            "url": "https://haz-map.com/Processes/167"
          }
        ],
        "cross_references": [
          {
            "type": "url_match",
            "text": "Metal Machining",
            "url": "https://haz-map.com/Processes/35",
            "confidence": 1.0,
            "uuid": "742028ba-ba09-4d7c-bb80-f70af1454300",
            "name": "Metal Machining",
            "category": "processes"
          },
          {
            "type": "url_match",
            "text": "Using Disinfectants or Biocides",
            "url": "https://haz-map.com/Processes/167",
            "confidence": 1.0,
            "uuid": "7accb745-ad60-4ef8-9039-8ac4febb8fd8",
            "name": "Using Disinfectants or Biocides",
            "category": "processes"
          }
        ]
      }
    }
  },
  "cross_references": [
    {
      "type": "url_match",
      "text": "Contact dermatitis, allergic",
      "url": "https://haz-map.com/Diseases/18",
      "confidence": 1.0,
      "uuid": "c9499de0-9aa1-41bf-8753-cd5b28a63e29",
      "name": "Contact dermatitis, allergic",
      "category": "diseases"
    },
    {
      "type": "url_match",
      "text": "Metal Machining",
      "url": "https://haz-map.com/Processes/35",
      "confidence": 1.0,
      "uuid": "742028ba-ba09-4d7c-bb80-f70af1454300",
      "name": "Metal Machining",
      "category": "processes"
    },
    {
      "type": "url_match",
      "text": "Using Disinfectants or Biocides",
      "url": "https://haz-map.com/Processes/167",
      "confidence": 1.0,
      "uuid": "7accb745-ad60-4ef8-9039-8ac4febb8fd8",
      "name": "Using Disinfectants or Biocides",
      "category": "processes"
    },
    {
      "type": "name_match",
      "text": "dermatitis",
      "confidence": 1.0,
      "uuid": "fe9c05f2-b19f-4ceb-ac7a-ffb7d7a0cae0",
      "name": "dermatitis",
      "url": "https://haz-map.com/Findings/59",
      "category": "findings"
    },
    {
      "type": "name_match",
      "text": "benzene",
      "confidence": 1.0,
      "uuid": "b05124de-5f34-4c14-8f04-ccb20c3780d9",
      "name": "Benzene",
      "url": "https://haz-map.com/Agents/5",
      "category": "agents"
    },
    {
      "type": "name_match",
      "text": "phenol",
      "confidence": 1.0,
      "uuid": "03141a03-a7df-4f51-9a37-adde1a7c4b31",
      "name": "Phenol",
      "url": "https://haz-map.com/Agents/84",
      "category": "agents"
    },
    {
      "type": "name_match",
      "text": "mica",
      "confidence": 1.0,
      "uuid": "433f26f1-c399-4596-b179-ce3843cfd465",
      "name": "Mica",
      "url": "https://haz-map.com/Agents/621",
      "category": "agents"
    },
    {
      "type": "name_match",
      "text": "4-chloro-3,5-xylenol",
      "confidence": 1.0,
      "uuid": "20df57ff-3c55-4a30-854a-42f414ffc757",
      "name": "4-Chloro-3,5-xylenol",
      "url": "https://haz-map.com/Agents/1007",
      "category": "agents"
    },
    {
      "type": "name_match",
      "text": "xylenol",
      "confidence": 1.0,
      "uuid": "b3841b62-71db-4e83-86de-5a0182f482a9",
      "name": "Xylenol",
      "url": "https://haz-map.com/Agents/1442",
      "category": "agents"
    },
    {
      "type": "name_match",
      "text": "3,5-dimethylphenol",
      "confidence": 1.0,
      "uuid": "ffb14c2b-57f9-495d-9a6e-f6ee2ca79837",
      "name": "3,5-Dimethylphenol",
      "url": "https://haz-map.com/Agents/3208",
      "category": "agents"
    },
    {
      "type": "name_match",
      "text": "4-chlorophenol",
      "confidence": 1.0,
      "uuid": "68860eb9-ad59-4031-9952-3aa0643ccf34",
      "name": "4-Chlorophenol",
      "url": "https://haz-map.com/Agents/3294",
      "category": "agents"
    },
    {
      "type": "name_match",
      "text": "m-xylene",
      "confidence": 1.0,
      "uuid": "6e70ec96-2a83-4a6c-84c5-45b1d8cc4824",
      "name": "m-Xylene",
      "url": "https://haz-map.com/Agents/15725",
      "category": "agents"
    },
    {
      "type": "fuzzy_match",
      "text": "5-dimethylphenol",
      "matched_name": "2,5-Dimethylphenol",
      "confidence": 0.8777777777777778,
      "uuid": "362c1d56-559e-4727-a680-7e24502f0a7d",
      "category": "agents",
      "url": "https://haz-map.com/Agents/3027"
    }
  ],
  "all_links": [
    {
      "text": "EPA Pesticide Chemical Search",
      "url": "https://iaspub.epa.gov/apex/pesticides/f?p=CHEMICALSEARCH:1:"
    },
    {
      "text": "Search PubMed",
      "url": "https://www.ncbi.nlm.nih.gov/pubmed?term=4-Chloro-3%2c5-xylenol%20AND%20human%5Bmh%5D%20AND%20%28Occupational%20Diseases%20%5Bmh%5D%20OR%20Occupational%20Exposure%20%5Bmh%5D%29%20%20AND%20%28tox%5Bsb%5D%29&cmd=search"
    },
    {
      "text": "Contact dermatitis, allergic",
      "url": "https://haz-map.com/Diseases/18"
    },
    {
      "text": "Metal Machining",
      "url": "https://haz-map.com/Processes/35"
    },
    {
      "text": "Using Disinfectants or Biocides",
      "url": "https://haz-map.com/Processes/167"
    }
  ]
}