{
  "metadata": {
    "scraped_from": "https://haz-map.com/Agents/7202",
    "entity_name": "n-Butyl stearate",
    "category": "agents",
    "uuid": "215d14fc-f31a-469a-ae45-12e52b656ee5",
    "scraped_at": "2025-07-23T20:10:21.226875"
  },
  "parsed_at": "2025-07-24T01:00:31.289712",
  "title": "n-Butyl stearate",
  "sections": {
    "general": {
      "agent_name": {
        "original_name": "Agent Name",
        "value": "n-Butyl stearate",
        "links": [],
        "cross_references": [
          {
            "type": "name_match",
            "text": "tea",
            "confidence": 1.0,
            "uuid": "773409e5-ac1a-4c9e-9470-9667ca82091c",
            "name": "Tea",
            "url": "https://haz-map.com/Agents/878",
            "category": "agents"
          },
          {
            "type": "name_match",
            "text": "n-butyl stearate",
            "confidence": 1.0,
            "uuid": "215d14fc-f31a-469a-ae45-12e52b656ee5",
            "name": "n-Butyl stearate",
            "url": "https://haz-map.com/Agents/7202",
            "category": "agents"
          }
        ]
      },
      "cas_number": {
        "original_name": "CAS Number",
        "value": "123-95-5",
        "links": [],
        "cross_references": []
      },
      "formula": {
        "original_name": "Formula",
        "value": "C22-H44-O2",
        "links": [],
        "cross_references": []
      },
      "major_category": {
        "original_name": "Major Category",
        "value": "Other Classes",
        "links": [],
        "cross_references": []
      },
      "synonyms": {
        "original_name": "Synonyms",
        "value": "APEX 4; BS; Butyl octadecanoate; Butyl octadecylate; Butyl stearate; Emerest 2325; Estrex 1B 54, 1B 55; Groco 5810; Kessco BSC; Kesscoflex BS; Octadecanoic acid, butyl ester; Polycizer 332; RC Plasticizer B-17; Starfol BS-100; Stearic acid, butyl ester; Tegester Butyl Stearate; Uniflex BYS; Wickenol 122; Wilmar butyl stearate; Witcizer 200; Witcizer 201; n-Butyl octadecanoate; [ChemIDplus]",
        "links": [],
        "cross_references": [
          {
            "type": "name_match",
            "text": "tea",
            "confidence": 1.0,
            "uuid": "773409e5-ac1a-4c9e-9470-9667ca82091c",
            "name": "Tea",
            "url": "https://haz-map.com/Agents/878",
            "category": "agents"
          },
          {
            "type": "name_match",
            "text": "stearic acid",
            "confidence": 1.0,
            "uuid": "bca9cb9c-5b13-46e3-ab28-e8e0d566876e",
            "name": "Stearic acid",
            "url": "https://haz-map.com/Agents/7203",
            "category": "agents"
          }
        ]
      },
      "category": {
        "original_name": "Category",
        "value": "Stearates",
        "links": [],
        "cross_references": [
          {
            "type": "name_match",
            "text": "tea",
            "confidence": 1.0,
            "uuid": "773409e5-ac1a-4c9e-9470-9667ca82091c",
            "name": "Tea",
            "url": "https://haz-map.com/Agents/878",
            "category": "agents"
          },
          {
            "type": "name_match",
            "text": "stearates",
            "confidence": 1.0,
            "uuid": "045c9fd5-f3b6-4b87-bd04-15b7f96495b6",
            "name": "STEARATES",
            "url": "https://haz-map.com/Agents/1690",
            "category": "agents"
          }
        ]
      },
      "description": {
        "original_name": "Description",
        "value": "Colorless liquid; m[ = 19.5-20 deg C; [Hawley] Solid or colorless or very pale liquid (above 20 deg C); mp = 27 deg C; [HSDB] Odorless oily liquid; mp approximately 23 deg C; [MSDSonline]",
        "links": [],
        "cross_references": []
      },
      "sourcesuses": {
        "original_name": "Sources/Uses",
        "value": "Used as a flavor and solvent for flavors; as plasticizer for cellulose acetate butyrate, cellulose nitrate, ethyl cellulose, polystyrene, and laminated fiber products; as lubricant in extrusion and molding of polyvinyl chloride; as emollient in creams, lotions, and lipsticks; as solvent, spreading agent, and softening agent in plastics, textiles, cosmetics, and rubber industries; to make leather cloth and leather varnishes; in polishes, special lubricants, and coatings; in carbon paper and inks; as damp-proofer for concrete; in propellants; as water proofing agent and defoamer; [HSBD]",
        "links": [],
        "cross_references": [
          {
            "type": "name_match",
            "text": "vinyl chloride",
            "confidence": 1.0,
            "uuid": "7b74b11d-1ba5-4dde-8d86-ed88645b5ce1",
            "name": "Vinyl chloride",
            "url": "https://haz-map.com/Agents/15",
            "category": "agents"
          },
          {
            "type": "name_match",
            "text": "styrene",
            "confidence": 1.0,
            "uuid": "03c5632f-5079-4688-82bd-0dacf3d0d36a",
            "name": "Styrene",
            "url": "https://haz-map.com/Agents/32",
            "category": "agents"
          },
          {
            "type": "name_match",
            "text": "cellulose",
            "confidence": 1.0,
            "uuid": "b9b1b190-806c-4622-8201-8f09b0a87eca",
            "name": "Cellulose",
            "url": "https://haz-map.com/Agents/347",
            "category": "agents"
          },
          {
            "type": "name_match",
            "text": "polyvinyl chloride",
            "confidence": 1.0,
            "uuid": "b11c91ba-ec9a-445f-a605-51f00a75c949",
            "name": "Polyvinyl chloride",
            "url": "https://haz-map.com/Agents/849",
            "category": "agents"
          },
          {
            "type": "name_match",
            "text": "carbon",
            "confidence": 1.0,
            "uuid": "b53f8815-ee80-40ef-b4aa-3b000e17dab5",
            "name": "Carbon",
            "url": "https://haz-map.com/Agents/1891",
            "category": "agents"
          },
          {
            "type": "name_match",
            "text": "cellulose acetate",
            "confidence": 1.0,
            "uuid": "49569e1f-799a-41c1-89b6-2457a776e513",
            "name": "Cellulose acetate",
            "url": "https://haz-map.com/Agents/4251",
            "category": "agents"
          },
          {
            "type": "name_match",
            "text": "ethyl cellulose",
            "confidence": 1.0,
            "uuid": "b3245a3e-f347-440d-8981-e7c57a38f238",
            "name": "Ethyl cellulose",
            "url": "https://haz-map.com/Agents/8356",
            "category": "agents"
          },
          {
            "type": "name_match",
            "text": "cellulose acetate butyrate",
            "confidence": 1.0,
            "uuid": "84fa751e-0a0e-4c60-9cc7-292c0340b5cb",
            "name": "Cellulose acetate butyrate",
            "url": "https://haz-map.com/Agents/12801",
            "category": "agents"
          },
          {
            "type": "name_match",
            "text": "water",
            "confidence": 1.0,
            "uuid": "6f2a7557-dfd2-49bc-9b4b-a93cd8e225d4",
            "name": "Water",
            "url": "https://haz-map.com/Agents/18668",
            "category": "agents"
          }
        ]
      },
      "comments": {
        "original_name": "Comments",
        "value": "Safe to use as a flavoring agent in food; [JECFA] A moderate irritant on rabbit skin; [RTECS] Irritating to skin; [HSDB] May cause irritation; [MSDSonline] See \"STEARATES.\"",
        "links": [],
        "cross_references": [
          {
            "type": "name_match",
            "text": "tea",
            "confidence": 1.0,
            "uuid": "773409e5-ac1a-4c9e-9470-9667ca82091c",
            "name": "Tea",
            "url": "https://haz-map.com/Agents/878",
            "category": "agents"
          },
          {
            "type": "name_match",
            "text": "stearates",
            "confidence": 1.0,
            "uuid": "045c9fd5-f3b6-4b87-bd04-15b7f96495b6",
            "name": "STEARATES",
            "url": "https://haz-map.com/Agents/1690",
            "category": "agents"
          }
        ]
      },
      "biomedical_references": {
        "original_name": "Biomedical References",
        "value": "Search PubMed",
        "links": [
          {
            "text": "Search PubMed",
            "url": "https://www.ncbi.nlm.nih.gov/pubmed?term=n-Butyl+stearate%20AND%20human%5Bmh%5D%20AND%20%28Occupational%20Diseases%20%5Bmh%5D%20OR%20Occupational%20Exposure%20%5Bmh%5D%29%20%20AND%20%28tox%5Bsb%5D%29&cmd=search"
          }
        ],
        "cross_references": []
      }
    },
    "exposure_assessment": {
      "vapor_pressure": {
        "original_name": "Vapor Pressure",
        "value": "5.8E-06 mm Hg",
        "links": [],
        "cross_references": []
      },
      "nfpa": {
        "original_name": "NFPA",
        "value": "must be preheated",
        "links": [],
        "cross_references": []
      }
    },
    "diseases_processes_and_activities_linked_to_this_agent": {
      "processes": {
        "original_name": "Processes",
        "value": "Industrial Processes with risk of exposure: Cement Producing Leather Tanning and Processing Painting (Pigments, Binders, and Biocides) Plastic Composites Manufacturing Pulp and Paper Processing Textiles (Fiber & Fabric Manufacturing)",
        "links": [
          {
            "text": "Cement Producing",
            "url": "https://haz-map.com/Processes/234"
          },
          {
            "text": "Leather Tanning and Processing",
            "url": "https://haz-map.com/Processes/230"
          },
          {
            "text": "Painting (Pigments, Binders, and Biocides)",
            "url": "https://haz-map.com/Processes/145"
          },
          {
            "text": "Plastic Composites Manufacturing",
            "url": "https://haz-map.com/Processes/222"
          },
          {
            "text": "Pulp and Paper Processing",
            "url": "https://haz-map.com/Processes/132"
          },
          {
            "text": "Textiles (Fiber & Fabric Manufacturing)",
            "url": "https://haz-map.com/Processes/135"
          }
        ],
        "cross_references": [
          {
            "type": "url_match",
            "text": "Painting (Pigments, Binders, and Biocides)",
            "url": "https://haz-map.com/Processes/145",
            "confidence": 1.0,
            "uuid": "25867878-e178-4c21-906f-d392d86b76de",
            "name": "Painting (Pigments, Binders, and Biocides)",
            "category": "processes"
          },
          {
            "type": "url_match",
            "text": "Plastic Composites Manufacturing",
            "url": "https://haz-map.com/Processes/222",
            "confidence": 1.0,
            "uuid": "d4461b82-dc77-4172-8e3d-0a5e3b213911",
            "name": "Plastic Composites Manufacturing",
            "category": "processes"
          },
          {
            "type": "url_match",
            "text": "Pulp and Paper Processing",
            "url": "https://haz-map.com/Processes/132",
            "confidence": 1.0,
            "uuid": "30075079-d057-47e2-a7d8-e89bfc59d8df",
            "name": "Pulp and Paper Processing",
            "category": "processes"
          },
          {
            "type": "url_match",
            "text": "Textiles (Fiber & Fabric Manufacturing)",
            "url": "https://haz-map.com/Processes/135",
            "confidence": 1.0,
            "uuid": "43ebdcdb-bb09-4402-87b6-ae8cf169dddd",
            "name": "Textiles (Fiber & Fabric Manufacturing)",
            "category": "processes"
          },
          {
            "type": "name_match",
            "text": "painting",
            "confidence": 1.0,
            "uuid": "19816ce9-9edf-4a86-8e64-b0cbf7dcf520",
            "name": "Painting",
            "url": "https://haz-map.com/Activities/9",
            "category": "activities"
          }
        ]
      }
    }
  },
  "cross_references": [
    {
      "type": "url_match",
      "text": "Painting (Pigments, Binders, and Biocides)",
      "url": "https://haz-map.com/Processes/145",
      "confidence": 1.0,
      "uuid": "25867878-e178-4c21-906f-d392d86b76de",
      "name": "Painting (Pigments, Binders, and Biocides)",
      "category": "processes"
    },
    {
      "type": "url_match",
      "text": "Plastic Composites Manufacturing",
      "url": "https://haz-map.com/Processes/222",
      "confidence": 1.0,
      "uuid": "d4461b82-dc77-4172-8e3d-0a5e3b213911",
      "name": "Plastic Composites Manufacturing",
      "category": "processes"
    },
    {
      "type": "url_match",
      "text": "Pulp and Paper Processing",
      "url": "https://haz-map.com/Processes/132",
      "confidence": 1.0,
      "uuid": "30075079-d057-47e2-a7d8-e89bfc59d8df",
      "name": "Pulp and Paper Processing",
      "category": "processes"
    },
    {
      "type": "url_match",
      "text": "Textiles (Fiber & Fabric Manufacturing)",
      "url": "https://haz-map.com/Processes/135",
      "confidence": 1.0,
      "uuid": "43ebdcdb-bb09-4402-87b6-ae8cf169dddd",
      "name": "Textiles (Fiber & Fabric Manufacturing)",
      "category": "processes"
    },
    {
      "type": "name_match",
      "text": "painting",
      "confidence": 1.0,
      "uuid": "19816ce9-9edf-4a86-8e64-b0cbf7dcf520",
      "name": "Painting",
      "url": "https://haz-map.com/Activities/9",
      "category": "activities"
    },
    {
      "type": "name_match",
      "text": "vinyl chloride",
      "confidence": 1.0,
      "uuid": "7b74b11d-1ba5-4dde-8d86-ed88645b5ce1",
      "name": "Vinyl chloride",
      "url": "https://haz-map.com/Agents/15",
      "category": "agents"
    },
    {
      "type": "name_match",
      "text": "styrene",
      "confidence": 1.0,
      "uuid": "03c5632f-5079-4688-82bd-0dacf3d0d36a",
      "name": "Styrene",
      "url": "https://haz-map.com/Agents/32",
      "category": "agents"
    },
    {
      "type": "name_match",
      "text": "cellulose",
      "confidence": 1.0,
      "uuid": "b9b1b190-806c-4622-8201-8f09b0a87eca",
      "name": "Cellulose",
      "url": "https://haz-map.com/Agents/347",
      "category": "agents"
    },
    {
      "type": "name_match",
      "text": "polyvinyl chloride",
      "confidence": 1.0,
      "uuid": "b11c91ba-ec9a-445f-a605-51f00a75c949",
      "name": "Polyvinyl chloride",
      "url": "https://haz-map.com/Agents/849",
      "category": "agents"
    },
    {
      "type": "name_match",
      "text": "tea",
      "confidence": 1.0,
      "uuid": "773409e5-ac1a-4c9e-9470-9667ca82091c",
      "name": "Tea",
      "url": "https://haz-map.com/Agents/878",
      "category": "agents"
    },
    {
      "type": "name_match",
      "text": "stearates",
      "confidence": 1.0,
      "uuid": "045c9fd5-f3b6-4b87-bd04-15b7f96495b6",
      "name": "STEARATES",
      "url": "https://haz-map.com/Agents/1690",
      "category": "agents"
    },
    {
      "type": "name_match",
      "text": "carbon",
      "confidence": 1.0,
      "uuid": "b53f8815-ee80-40ef-b4aa-3b000e17dab5",
      "name": "Carbon",
      "url": "https://haz-map.com/Agents/1891",
      "category": "agents"
    },
    {
      "type": "name_match",
      "text": "cellulose acetate",
      "confidence": 1.0,
      "uuid": "49569e1f-799a-41c1-89b6-2457a776e513",
      "name": "Cellulose acetate",
      "url": "https://haz-map.com/Agents/4251",
      "category": "agents"
    },
    {
      "type": "name_match",
      "text": "n-butyl stearate",
      "confidence": 1.0,
      "uuid": "215d14fc-f31a-469a-ae45-12e52b656ee5",
      "name": "n-Butyl stearate",
      "url": "https://haz-map.com/Agents/7202",
      "category": "agents"
    },
    {
      "type": "name_match",
      "text": "stearic acid",
      "confidence": 1.0,
      "uuid": "bca9cb9c-5b13-46e3-ab28-e8e0d566876e",
      "name": "Stearic acid",
      "url": "https://haz-map.com/Agents/7203",
      "category": "agents"
    },
    {
      "type": "name_match",
      "text": "ethyl cellulose",
      "confidence": 1.0,
      "uuid": "b3245a3e-f347-440d-8981-e7c57a38f238",
      "name": "Ethyl cellulose",
      "url": "https://haz-map.com/Agents/8356",
      "category": "agents"
    },
    {
      "type": "name_match",
      "text": "cellulose acetate butyrate",
      "confidence": 1.0,
      "uuid": "84fa751e-0a0e-4c60-9cc7-292c0340b5cb",
      "name": "Cellulose acetate butyrate",
      "url": "https://haz-map.com/Agents/12801",
      "category": "agents"
    },
    {
      "type": "name_match",
      "text": "water",
      "confidence": 1.0,
      "uuid": "6f2a7557-dfd2-49bc-9b4b-a93cd8e225d4",
      "name": "Water",
      "url": "https://haz-map.com/Agents/18668",
      "category": "agents"
    }
  ],
  "all_links": [
    {
      "text": "Search PubMed",
      "url": "https://www.ncbi.nlm.nih.gov/pubmed?term=n-Butyl+stearate%20AND%20human%5Bmh%5D%20AND%20%28Occupational%20Diseases%20%5Bmh%5D%20OR%20Occupational%20Exposure%20%5Bmh%5D%29%20%20AND%20%28tox%5Bsb%5D%29&cmd=search"
    },
    {
      "text": "Cement Producing",
      "url": "https://haz-map.com/Processes/234"
    },
    {
      "text": "Leather Tanning and Processing",
      "url": "https://haz-map.com/Processes/230"
    },
    {
      "text": "Painting (Pigments, Binders, and Biocides)",
      "url": "https://haz-map.com/Processes/145"
    },
    {
      "text": "Plastic Composites Manufacturing",
      "url": "https://haz-map.com/Processes/222"
    },
    {
      "text": "Pulp and Paper Processing",
      "url": "https://haz-map.com/Processes/132"
    },
    {
      "text": "Textiles (Fiber & Fabric Manufacturing)",
      "url": "https://haz-map.com/Processes/135"
    }
  ]
}