{
  "metadata": {
    "scraped_from": "https://haz-map.com/Agents/14832",
    "entity_name": "Hydroxyproline",
    "category": "agents",
    "uuid": "223a605e-2cf1-4572-936b-087a0ec7b9eb",
    "scraped_at": "2025-07-23T21:26:44.766339"
  },
  "parsed_at": "2025-07-24T01:12:50.724758",
  "title": "Hydroxyproline",
  "sections": {
    "general": {
      "agent_name": {
        "original_name": "Agent Name",
        "value": "Hydroxyproline",
        "links": [],
        "cross_references": [
          {
            "type": "name_match",
            "text": "hydroxyproline",
            "confidence": 1.0,
            "uuid": "223a605e-2cf1-4572-936b-087a0ec7b9eb",
            "name": "Hydroxyproline",
            "url": "https://haz-map.com/Agents/14832",
            "category": "agents"
          }
        ]
      },
      "cas_number": {
        "original_name": "CAS Number",
        "value": "51-35-4",
        "links": [],
        "cross_references": []
      },
      "formula": {
        "original_name": "Formula",
        "value": "C5-H9-N-O3",
        "links": [],
        "cross_references": []
      },
      "major_category": {
        "original_name": "Major Category",
        "value": "Biological Agents",
        "links": [],
        "cross_references": []
      },
      "synonyms": {
        "original_name": "Synonyms",
        "value": "L-Proline, 4-hydroxy-; 4-Hydroxy-L-proline; Hydroxy-L-proline; Hypro; L-4-Hydroxyproline; L-Proline, 4-hydroxy-, trans-; Proline, 4-hydroxy- (VAN); Proline, 4-hydroxy-, L-; trans-4-Hydroxy-L-proline; trans-4-Hydroxyproline; L-4-Hydroxyproline; L-Proline, 4-hydroxy-, (4R)-; [ChemIDplus] (4R)-4-Hydroxy-L-proline; Hyp; Ls-Hydroxyproline; (-)-(2S,4R)-4-Hydroxyproline; 4(R)-Hydroxy-2(S)-pyrrolidinecarboxylic acid; [Merck Index]",
        "links": [],
        "cross_references": [
          {
            "type": "name_match",
            "text": "pyrrolidine",
            "confidence": 1.0,
            "uuid": "2d5875c0-8966-4b9b-8176-e71ea453a10c",
            "name": "Pyrrolidine",
            "url": "https://haz-map.com/Agents/1429",
            "category": "agents"
          },
          {
            "type": "name_match",
            "text": "hydroxyproline",
            "confidence": 1.0,
            "uuid": "223a605e-2cf1-4572-936b-087a0ec7b9eb",
            "name": "Hydroxyproline",
            "url": "https://haz-map.com/Agents/14832",
            "category": "agents"
          },
          {
            "type": "name_match",
            "text": "l-proline",
            "confidence": 1.0,
            "uuid": "74095acb-a7d1-4480-b181-21f922782451",
            "name": "L-Proline",
            "url": "https://haz-map.com/Agents/15193",
            "category": "agents"
          }
        ]
      },
      "category": {
        "original_name": "Category",
        "value": "Amino Acids and Derivatives",
        "links": [],
        "cross_references": []
      },
      "description": {
        "original_name": "Description",
        "value": "Solid; [Merck Index] White crystalline powder; [Alfa Aesar MSDS]",
        "links": [],
        "cross_references": [
          {
            "type": "fuzzy_match",
            "text": "crystalline",
            "matched_name": "Silica, crystalline",
            "confidence": 0.7061403508771931,
            "uuid": "f920e8a2-46df-41b7-af8d-0368a777251e",
            "category": "agents",
            "url": "https://haz-map.com/Agents/427"
          }
        ]
      },
      "sourcesuses": {
        "original_name": "Sources/Uses",
        "value": "An analog of proline and an non-essential amino acid found in collagen; [Merck Index] \"\"Hydroxyproline is produced by hydroxylation of the amino acid proline by the enzyme prolyl hydroxylase following protein synthesis (as a post-translational modification). The enzyme catalysed reaction takes place in the lumen of the endoplasmic reticulum. Although it is not directly incorporated into proteins, hydroxyproline comprises roughly 4% of all amino acids found in animal tissue, an amount greater than seven other amino acids that are translationally incorporated. Hydroxyproline is a major component of the protein collagen.\" [Wikipedia]",
        "links": [],
        "cross_references": [
          {
            "type": "name_match",
            "text": "collagen",
            "confidence": 1.0,
            "uuid": "352ac7ac-01c7-461f-8dd5-b91f9c51f2eb",
            "name": "Collagen",
            "url": "https://haz-map.com/Agents/13072",
            "category": "agents"
          },
          {
            "type": "name_match",
            "text": "hydroxyproline",
            "confidence": 1.0,
            "uuid": "223a605e-2cf1-4572-936b-087a0ec7b9eb",
            "name": "Hydroxyproline",
            "url": "https://haz-map.com/Agents/14832",
            "category": "agents"
          }
        ]
      },
      "comments": {
        "original_name": "Comments",
        "value": "May cause irritation; [Alfa Aesar MSDS] See \"L-Proline.\"",
        "links": [],
        "cross_references": [
          {
            "type": "name_match",
            "text": "l-proline",
            "confidence": 1.0,
            "uuid": "74095acb-a7d1-4480-b181-21f922782451",
            "name": "L-Proline",
            "url": "https://haz-map.com/Agents/15193",
            "category": "agents"
          }
        ]
      },
      "biomedical_references": {
        "original_name": "Biomedical References",
        "value": "Search PubMed",
        "links": [
          {
            "text": "Search PubMed",
            "url": "https://www.ncbi.nlm.nih.gov/pubmed?term=Hydroxyproline%20AND%20human%5Bmh%5D%20AND%20%28Occupational%20Diseases%20%5Bmh%5D%20OR%20Occupational%20Exposure%20%5Bmh%5D%29%20%20AND%20%28tox%5Bsb%5D%29&cmd=search"
          }
        ],
        "cross_references": []
      }
    },
    "exposure_assessment": {
      "vapor_pressure": {
        "original_name": "Vapor Pressure",
        "value": "1.52E-09 mm Hg",
        "links": [],
        "cross_references": []
      }
    },
    "diseases_processes_and_activities_linked_to_this_agent": {
      "other_information": {
        "original_name": "Other Information",
        "value": "No other related information on this agent was found.",
        "links": [],
        "cross_references": []
      }
    }
  },
  "cross_references": [
    {
      "type": "name_match",
      "text": "pyrrolidine",
      "confidence": 1.0,
      "uuid": "2d5875c0-8966-4b9b-8176-e71ea453a10c",
      "name": "Pyrrolidine",
      "url": "https://haz-map.com/Agents/1429",
      "category": "agents"
    },
    {
      "type": "name_match",
      "text": "collagen",
      "confidence": 1.0,
      "uuid": "352ac7ac-01c7-461f-8dd5-b91f9c51f2eb",
      "name": "Collagen",
      "url": "https://haz-map.com/Agents/13072",
      "category": "agents"
    },
    {
      "type": "name_match",
      "text": "hydroxyproline",
      "confidence": 1.0,
      "uuid": "223a605e-2cf1-4572-936b-087a0ec7b9eb",
      "name": "Hydroxyproline",
      "url": "https://haz-map.com/Agents/14832",
      "category": "agents"
    },
    {
      "type": "name_match",
      "text": "l-proline",
      "confidence": 1.0,
      "uuid": "74095acb-a7d1-4480-b181-21f922782451",
      "name": "L-Proline",
      "url": "https://haz-map.com/Agents/15193",
      "category": "agents"
    },
    {
      "type": "fuzzy_match",
      "text": "crystalline",
      "matched_name": "Silica, crystalline",
      "confidence": 0.7061403508771931,
      "uuid": "f920e8a2-46df-41b7-af8d-0368a777251e",
      "category": "agents",
      "url": "https://haz-map.com/Agents/427"
    }
  ],
  "all_links": [
    {
      "text": "Search PubMed",
      "url": "https://www.ncbi.nlm.nih.gov/pubmed?term=Hydroxyproline%20AND%20human%5Bmh%5D%20AND%20%28Occupational%20Diseases%20%5Bmh%5D%20OR%20Occupational%20Exposure%20%5Bmh%5D%29%20%20AND%20%28tox%5Bsb%5D%29&cmd=search"
    }
  ]
}