{
  "metadata": {
    "scraped_from": "https://haz-map.com/Agents/1297",
    "entity_name": "Sulfanilamide",
    "category": "agents",
    "uuid": "22436b90-4532-46bf-94d1-02091420d8c1",
    "scraped_at": "2025-07-23T18:56:12.870340"
  },
  "parsed_at": "2025-07-24T00:58:48.858388",
  "title": "Sulfanilamide",
  "sections": {
    "general": {
      "agent_name": {
        "original_name": "Agent Name",
        "value": "Sulfanilamide",
        "links": [],
        "cross_references": [
          {
            "type": "name_match",
            "text": "sulfanilamide",
            "confidence": 1.0,
            "uuid": "22436b90-4532-46bf-94d1-02091420d8c1",
            "name": "Sulfanilamide",
            "url": "https://haz-map.com/Agents/1297",
            "category": "agents"
          }
        ]
      },
      "cas_number": {
        "original_name": "CAS Number",
        "value": "63-74-1",
        "links": [],
        "cross_references": []
      },
      "formula": {
        "original_name": "Formula",
        "value": "C6-H8-N2-O2-S",
        "links": [],
        "cross_references": []
      },
      "major_category": {
        "original_name": "Major Category",
        "value": "Other Uses",
        "links": [],
        "cross_references": []
      },
      "synonyms": {
        "original_name": "Synonyms",
        "value": "1162 F; 4-Aminobenzenesulfonamide; 4-Aminophenylsulfonamide; 4-Sulfamoylaniline; A-349; Albexan; Albosal; Ambeside; Aniline-p-sulfonic amide; Antistrept; Astreptine; Astrocid; Avc; Bacteramid; Bactesid; Benzenesulfonamide, 4-amino-; Benzenesulfonamide, p-amino-; Collomide; Colsulanyde; Copticide; Deseptyl; Dipron; Ergaseptine; Erysipan; Estreptocida; Exoseptoplix; F 1162; F-1162; Fourneau 1162; Gerison; Gombardol; Infepan; Lusil; Lysococcine; Neococcyl; Orgaseptine; PABS; Prontalbin; Prontosil I; Prontosil White; Prontosil album; Prontylin; Pronzin album; Proseptal; Proseptine; Proseptol; Pysococcine; Rubiazol A; Sanamid; Septamide album; Septanilam; Septinal; Septolix; Septoplex; Septoplix; Solfanilamide [DCIT]; Stopton album; Stramid; Strepamide; Strepsan; Streptagol; Streptamid; Streptamin; Streptasol; Streptocid; Streptocid album; Streptocide (VAN); Streptocide White; Streptocidum; Streptoclase; Streptocom; Streptol; Strepton; Streptopan; Streptosil; Streptozol; Streptozone; Streptrocide; Sulfamidyl; Sulfamine; Sulfana; Sulfanalone; Sulfanidyl; Sulfanil; Sulfanilamida [INN-Spanish]; Sulfanilamide Vaginal Cream; Sulfanilamidum [INN-Latin]; Sulfanilimidic acid; Sulfocidin; Sulfocidine; Sulfonamide; Sulfonamide P; Sulfonylamide; Sulphanilamide; Sulphonamide; Therapol; Tolder; White streptocide; p-Aminobenzenesulfamide; p-Aminobenzenesulfonamide; p-Aminobenzenesulfonylamide; p-Aminophenylsulfonamide; p-Anilinesulfonamide; p-Sulfamidoaniline; p-Sulfamoylaniline; [ChemIDplus]",
        "links": [],
        "cross_references": [
          {
            "type": "name_match",
            "text": "benzene",
            "confidence": 1.0,
            "uuid": "b05124de-5f34-4c14-8f04-ccb20c3780d9",
            "name": "Benzene",
            "url": "https://haz-map.com/Agents/5",
            "category": "agents"
          },
          {
            "type": "name_match",
            "text": "ozone",
            "confidence": 1.0,
            "uuid": "51922743-c4bf-490f-a638-9e4b33624111",
            "name": "Ozone",
            "url": "https://haz-map.com/Agents/68",
            "category": "agents"
          },
          {
            "type": "name_match",
            "text": "aniline",
            "confidence": 1.0,
            "uuid": "e4932692-8d9c-4a98-8c5c-81e55b12aedf",
            "name": "Aniline",
            "url": "https://haz-map.com/Agents/296",
            "category": "agents"
          },
          {
            "type": "name_match",
            "text": "sulfanilamide",
            "confidence": 1.0,
            "uuid": "22436b90-4532-46bf-94d1-02091420d8c1",
            "name": "Sulfanilamide",
            "url": "https://haz-map.com/Agents/1297",
            "category": "agents"
          },
          {
            "type": "name_match",
            "text": "bes",
            "confidence": 1.0,
            "uuid": "3074c0ff-c637-46e9-9a00-5b14f02c2d53",
            "name": "BES",
            "url": "https://haz-map.com/Agents/15755",
            "category": "agents"
          },
          {
            "type": "name_match",
            "text": "benzenesulfonamide",
            "confidence": 1.0,
            "uuid": "66d8b92e-3d51-4461-ac5b-4ff3501d45e5",
            "name": "Benzenesulfonamide",
            "url": "https://haz-map.com/Agents/20287",
            "category": "agents"
          }
        ]
      },
      "category": {
        "original_name": "Category",
        "value": "Pharmaceuticals",
        "links": [],
        "cross_references": [
          {
            "type": "name_match",
            "text": "pharmaceuticals",
            "confidence": 1.0,
            "uuid": "713c3c30-b67e-4a2f-a90f-b32f8a306332",
            "name": "PHARMACEUTICALS",
            "url": "https://haz-map.com/Agents/1000",
            "category": "agents"
          }
        ]
      },
      "description": {
        "original_name": "Description",
        "value": "Solid; [Merck Index]",
        "links": [],
        "cross_references": []
      },
      "sourcesuses": {
        "original_name": "Sources/Uses",
        "value": "Used as human and veterinary antibacterial; [Merck Index]",
        "links": [],
        "cross_references": []
      },
      "comments": {
        "original_name": "Comments",
        "value": "Photoallergic contact dermatitis reported; Sulfanilamide may induce photosensitivity in patients taking sulfanilamide systemically (photodrug reaction). [Marks, p. 201-3] In a 1946 report, occupational asthma was induced by sulfathiazole (72-14-0). [Malo] See \"Sulfathiazole.\"",
        "links": [],
        "cross_references": [
          {
            "type": "name_match",
            "text": "dermatitis",
            "confidence": 1.0,
            "uuid": "fe9c05f2-b19f-4ceb-ac7a-ffb7d7a0cae0",
            "name": "dermatitis",
            "url": "https://haz-map.com/Findings/59",
            "category": "findings"
          },
          {
            "type": "name_match",
            "text": "mica",
            "confidence": 1.0,
            "uuid": "433f26f1-c399-4596-b179-ce3843cfd465",
            "name": "Mica",
            "url": "https://haz-map.com/Agents/621",
            "category": "agents"
          },
          {
            "type": "name_match",
            "text": "sulfanilamide",
            "confidence": 1.0,
            "uuid": "22436b90-4532-46bf-94d1-02091420d8c1",
            "name": "Sulfanilamide",
            "url": "https://haz-map.com/Agents/1297",
            "category": "agents"
          },
          {
            "type": "name_match",
            "text": "thiazole",
            "confidence": 1.0,
            "uuid": "239903f2-a226-4a4b-bc83-285f21b9610c",
            "name": "Thiazole",
            "url": "https://haz-map.com/Agents/17380",
            "category": "agents"
          },
          {
            "type": "name_match",
            "text": "sulfathiazole",
            "confidence": 1.0,
            "uuid": "b31e154a-77fa-4fa1-a2a4-cb09dfbc1659",
            "name": "Sulfathiazole",
            "url": "https://haz-map.com/Agents/19077",
            "category": "agents"
          },
          {
            "type": "fuzzy_match",
            "text": "contact dermatitis",
            "matched_name": "Contact dermatitis, allergic",
            "confidence": 0.7214285714285715,
            "uuid": "c9499de0-9aa1-41bf-8753-cd5b28a63e29",
            "category": "diseases",
            "url": "https://haz-map.com/Diseases/18"
          }
        ]
      },
      "biomedical_references": {
        "original_name": "Biomedical References",
        "value": "Search PubMed",
        "links": [
          {
            "text": "Search PubMed",
            "url": "https://www.ncbi.nlm.nih.gov/pubmed?term=Sulfanilamide%20AND%20human%5Bmh%5D%20AND%20%28Occupational%20Diseases%20%5Bmh%5D%20OR%20Occupational%20Exposure%20%5Bmh%5D%29%20%20AND%20%28tox%5Bsb%5D%29&cmd=search"
          }
        ],
        "cross_references": []
      }
    },
    "exposure_assessment": {
      "vapor_pressure": {
        "original_name": "Vapor Pressure",
        "value": "7.3E-06 mm Hg",
        "links": [],
        "cross_references": []
      }
    },
    "adverse_effects": {
      "dermatotoxin": {
        "original_name": "Dermatotoxin",
        "value": "PACD (photoallergic contact dermatitis)",
        "links": [],
        "cross_references": [
          {
            "type": "name_match",
            "text": "dermatitis",
            "confidence": 1.0,
            "uuid": "fe9c05f2-b19f-4ceb-ac7a-ffb7d7a0cae0",
            "name": "dermatitis",
            "url": "https://haz-map.com/Findings/59",
            "category": "findings"
          },
          {
            "type": "fuzzy_match",
            "text": "contact dermatitis",
            "matched_name": "Contact dermatitis, allergic",
            "confidence": 0.7214285714285715,
            "uuid": "c9499de0-9aa1-41bf-8753-cd5b28a63e29",
            "category": "diseases",
            "url": "https://haz-map.com/Diseases/18"
          }
        ]
      }
    },
    "diseases_processes_and_activities_linked_to_this_agent": {
      "diseases": {
        "original_name": "Diseases",
        "value": "Occupational diseases associated with exposure to this agent: Contact dermatitis, photoallergic",
        "links": [
          {
            "text": "Contact dermatitis, photoallergic",
            "url": "https://haz-map.com/Diseases/267"
          }
        ],
        "cross_references": [
          {
            "type": "url_match",
            "text": "Contact dermatitis, photoallergic",
            "url": "https://haz-map.com/Diseases/267",
            "confidence": 1.0,
            "uuid": "fdc85231-99c5-48ea-8f71-fbd9ad09e496",
            "name": "Contact dermatitis, photoallergic",
            "category": "diseases"
          },
          {
            "type": "name_match",
            "text": "dermatitis",
            "confidence": 1.0,
            "uuid": "fe9c05f2-b19f-4ceb-ac7a-ffb7d7a0cae0",
            "name": "dermatitis",
            "url": "https://haz-map.com/Findings/59",
            "category": "findings"
          },
          {
            "type": "fuzzy_match",
            "text": "contact dermatitis",
            "matched_name": "Contact dermatitis, allergic",
            "confidence": 0.7214285714285715,
            "uuid": "c9499de0-9aa1-41bf-8753-cd5b28a63e29",
            "category": "diseases",
            "url": "https://haz-map.com/Diseases/18"
          }
        ]
      }
    }
  },
  "cross_references": [
    {
      "type": "url_match",
      "text": "Contact dermatitis, photoallergic",
      "url": "https://haz-map.com/Diseases/267",
      "confidence": 1.0,
      "uuid": "fdc85231-99c5-48ea-8f71-fbd9ad09e496",
      "name": "Contact dermatitis, photoallergic",
      "category": "diseases"
    },
    {
      "type": "name_match",
      "text": "dermatitis",
      "confidence": 1.0,
      "uuid": "fe9c05f2-b19f-4ceb-ac7a-ffb7d7a0cae0",
      "name": "dermatitis",
      "url": "https://haz-map.com/Findings/59",
      "category": "findings"
    },
    {
      "type": "name_match",
      "text": "benzene",
      "confidence": 1.0,
      "uuid": "b05124de-5f34-4c14-8f04-ccb20c3780d9",
      "name": "Benzene",
      "url": "https://haz-map.com/Agents/5",
      "category": "agents"
    },
    {
      "type": "name_match",
      "text": "ozone",
      "confidence": 1.0,
      "uuid": "51922743-c4bf-490f-a638-9e4b33624111",
      "name": "Ozone",
      "url": "https://haz-map.com/Agents/68",
      "category": "agents"
    },
    {
      "type": "name_match",
      "text": "aniline",
      "confidence": 1.0,
      "uuid": "e4932692-8d9c-4a98-8c5c-81e55b12aedf",
      "name": "Aniline",
      "url": "https://haz-map.com/Agents/296",
      "category": "agents"
    },
    {
      "type": "name_match",
      "text": "mica",
      "confidence": 1.0,
      "uuid": "433f26f1-c399-4596-b179-ce3843cfd465",
      "name": "Mica",
      "url": "https://haz-map.com/Agents/621",
      "category": "agents"
    },
    {
      "type": "name_match",
      "text": "pharmaceuticals",
      "confidence": 1.0,
      "uuid": "713c3c30-b67e-4a2f-a90f-b32f8a306332",
      "name": "PHARMACEUTICALS",
      "url": "https://haz-map.com/Agents/1000",
      "category": "agents"
    },
    {
      "type": "name_match",
      "text": "sulfanilamide",
      "confidence": 1.0,
      "uuid": "22436b90-4532-46bf-94d1-02091420d8c1",
      "name": "Sulfanilamide",
      "url": "https://haz-map.com/Agents/1297",
      "category": "agents"
    },
    {
      "type": "name_match",
      "text": "bes",
      "confidence": 1.0,
      "uuid": "3074c0ff-c637-46e9-9a00-5b14f02c2d53",
      "name": "BES",
      "url": "https://haz-map.com/Agents/15755",
      "category": "agents"
    },
    {
      "type": "name_match",
      "text": "thiazole",
      "confidence": 1.0,
      "uuid": "239903f2-a226-4a4b-bc83-285f21b9610c",
      "name": "Thiazole",
      "url": "https://haz-map.com/Agents/17380",
      "category": "agents"
    },
    {
      "type": "name_match",
      "text": "sulfathiazole",
      "confidence": 1.0,
      "uuid": "b31e154a-77fa-4fa1-a2a4-cb09dfbc1659",
      "name": "Sulfathiazole",
      "url": "https://haz-map.com/Agents/19077",
      "category": "agents"
    },
    {
      "type": "name_match",
      "text": "benzenesulfonamide",
      "confidence": 1.0,
      "uuid": "66d8b92e-3d51-4461-ac5b-4ff3501d45e5",
      "name": "Benzenesulfonamide",
      "url": "https://haz-map.com/Agents/20287",
      "category": "agents"
    },
    {
      "type": "fuzzy_match",
      "text": "contact dermatitis",
      "matched_name": "Contact dermatitis, allergic",
      "confidence": 0.7214285714285715,
      "uuid": "c9499de0-9aa1-41bf-8753-cd5b28a63e29",
      "category": "diseases",
      "url": "https://haz-map.com/Diseases/18"
    }
  ],
  "all_links": [
    {
      "text": "Search PubMed",
      "url": "https://www.ncbi.nlm.nih.gov/pubmed?term=Sulfanilamide%20AND%20human%5Bmh%5D%20AND%20%28Occupational%20Diseases%20%5Bmh%5D%20OR%20Occupational%20Exposure%20%5Bmh%5D%29%20%20AND%20%28tox%5Bsb%5D%29&cmd=search"
    },
    {
      "text": "Contact dermatitis, photoallergic",
      "url": "https://haz-map.com/Diseases/267"
    }
  ]
}