{
  "metadata": {
    "scraped_from": "https://haz-map.com/Agents/17959",
    "entity_name": "Decamethyltetrasiloxane",
    "category": "agents",
    "uuid": "2262e1bb-65b5-4af6-ac8b-84ce99aeb199",
    "scraped_at": "2025-07-23T21:51:21.206323"
  },
  "parsed_at": "2025-07-24T01:08:55.717055",
  "title": "Decamethyltetrasiloxane",
  "sections": {
    "general": {
      "agent_name": {
        "original_name": "Agent Name",
        "value": "Decamethyltetrasiloxane",
        "links": [],
        "cross_references": [
          {
            "type": "name_match",
            "text": "decamethyltetrasiloxane",
            "confidence": 1.0,
            "uuid": "2262e1bb-65b5-4af6-ac8b-84ce99aeb199",
            "name": "Decamethyltetrasiloxane",
            "url": "https://haz-map.com/Agents/17959",
            "category": "agents"
          }
        ]
      },
      "cas_number": {
        "original_name": "CAS Number",
        "value": "141-62-8",
        "links": [],
        "cross_references": []
      },
      "formula": {
        "original_name": "Formula",
        "value": "C10-H30-O3-Si4",
        "links": [],
        "cross_references": []
      },
      "major_category": {
        "original_name": "Major Category",
        "value": "Metals",
        "links": [],
        "cross_references": []
      },
      "synonyms": {
        "original_name": "Synonyms",
        "value": "Tetrasiloxane, 1,1,1,3,3,5,5,7,7,7-decamethyl-; Tetrasiloxane, decamethyl-; [ChemIDplus] 1,1,1,3,3,5,5,7,7,7-Decamethyltetrasiloxane; [Merck Index]",
        "links": [],
        "cross_references": [
          {
            "type": "name_match",
            "text": "decamethyltetrasiloxane",
            "confidence": 1.0,
            "uuid": "2262e1bb-65b5-4af6-ac8b-84ce99aeb199",
            "name": "Decamethyltetrasiloxane",
            "url": "https://haz-map.com/Agents/17959",
            "category": "agents"
          }
        ]
      },
      "category": {
        "original_name": "Category",
        "value": "Metalloid Compounds (Silicon)",
        "links": [],
        "cross_references": [
          {
            "type": "name_match",
            "text": "silicon",
            "confidence": 1.0,
            "uuid": "443f4405-7a1f-47db-bf43-809557f77483",
            "name": "Silicon",
            "url": "https://haz-map.com/Agents/623",
            "category": "agents"
          }
        ]
      },
      "description": {
        "original_name": "Description",
        "value": "Liquid; [Merck Index] Clear colorless liquid; [Acros Organics MSDS]",
        "links": [],
        "cross_references": []
      },
      "sourcesuses": {
        "original_name": "Sources/Uses",
        "value": "Used to make extreme temperature silicone oils and as a foam suppressant in lubricating oils; [Merck Index]",
        "links": [],
        "cross_references": [
          {
            "type": "name_match",
            "text": "silicon",
            "confidence": 1.0,
            "uuid": "443f4405-7a1f-47db-bf43-809557f77483",
            "name": "Silicon",
            "url": "https://haz-map.com/Agents/623",
            "category": "agents"
          }
        ]
      },
      "comments": {
        "original_name": "Comments",
        "value": "An irritant; [Acros Organics MSDS] See \"Octamethyltrisiloxane.\"",
        "links": [],
        "cross_references": [
          {
            "type": "name_match",
            "text": "octamethyltrisiloxane",
            "confidence": 1.0,
            "uuid": "36653e63-b39d-46de-9306-0146ba30c90c",
            "name": "Octamethyltrisiloxane",
            "url": "https://haz-map.com/Agents/18767",
            "category": "agents"
          }
        ]
      },
      "biomedical_references": {
        "original_name": "Biomedical References",
        "value": "Search PubMed",
        "links": [
          {
            "text": "Search PubMed",
            "url": "https://www.ncbi.nlm.nih.gov/pubmed?term=Decamethyltetrasiloxane%20AND%20human%5Bmh%5D%20AND%20%28Occupational%20Diseases%20%5Bmh%5D%20OR%20Occupational%20Exposure%20%5Bmh%5D%29%20%20AND%20%28tox%5Bsb%5D%29&cmd=search"
          }
        ],
        "cross_references": []
      }
    },
    "exposure_assessment": {
      "vapor_pressure": {
        "original_name": "Vapor Pressure",
        "value": "0.375 mm Hg",
        "links": [],
        "cross_references": []
      }
    },
    "diseases_processes_and_activities_linked_to_this_agent": {
      "other_information": {
        "original_name": "Other Information",
        "value": "No other related information on this agent was found.",
        "links": [],
        "cross_references": []
      }
    }
  },
  "cross_references": [
    {
      "type": "name_match",
      "text": "silicon",
      "confidence": 1.0,
      "uuid": "443f4405-7a1f-47db-bf43-809557f77483",
      "name": "Silicon",
      "url": "https://haz-map.com/Agents/623",
      "category": "agents"
    },
    {
      "type": "name_match",
      "text": "decamethyltetrasiloxane",
      "confidence": 1.0,
      "uuid": "2262e1bb-65b5-4af6-ac8b-84ce99aeb199",
      "name": "Decamethyltetrasiloxane",
      "url": "https://haz-map.com/Agents/17959",
      "category": "agents"
    },
    {
      "type": "name_match",
      "text": "octamethyltrisiloxane",
      "confidence": 1.0,
      "uuid": "36653e63-b39d-46de-9306-0146ba30c90c",
      "name": "Octamethyltrisiloxane",
      "url": "https://haz-map.com/Agents/18767",
      "category": "agents"
    }
  ],
  "all_links": [
    {
      "text": "Search PubMed",
      "url": "https://www.ncbi.nlm.nih.gov/pubmed?term=Decamethyltetrasiloxane%20AND%20human%5Bmh%5D%20AND%20%28Occupational%20Diseases%20%5Bmh%5D%20OR%20Occupational%20Exposure%20%5Bmh%5D%29%20%20AND%20%28tox%5Bsb%5D%29&cmd=search"
    }
  ]
}