{
  "metadata": {
    "scraped_from": "https://haz-map.com/Agents/19086",
    "entity_name": "L-Tartaric acid",
    "category": "agents",
    "uuid": "22739e6b-22a4-431e-bed1-8ccb3603dc30",
    "scraped_at": "2025-07-23T21:59:33.531202"
  },
  "parsed_at": "2025-07-24T01:13:04.745054",
  "title": "L-Tartaric acid",
  "sections": {
    "general": {
      "agent_name": {
        "original_name": "Agent Name",
        "value": "L-Tartaric acid",
        "links": [],
        "cross_references": [
          {
            "type": "name_match",
            "text": "l-tartaric acid",
            "confidence": 1.0,
            "uuid": "22739e6b-22a4-431e-bed1-8ccb3603dc30",
            "name": "L-Tartaric acid",
            "url": "https://haz-map.com/Agents/19086",
            "category": "agents"
          }
        ]
      },
      "cas_number": {
        "original_name": "CAS Number",
        "value": "87-69-4",
        "links": [],
        "cross_references": []
      },
      "formula": {
        "original_name": "Formula",
        "value": "C4-H6-O6",
        "links": [],
        "cross_references": []
      },
      "major_category": {
        "original_name": "Major Category",
        "value": "Other Classes",
        "links": [],
        "cross_references": []
      },
      "synonyms": {
        "original_name": "Synonyms",
        "value": "Butanedioic acid, 2,3-dihydroxy- (2R,3R)-; Tartaric acid, L-(+)-; Tartaric acid, L-; (+)-(R,R)-Tartaric acid; (+)-L-Tartaric acid; (+)-Tartaric acid; (2R,3R)-(+)-Tartaric acid; (R,R)-Tartaric acid; 1,2-Dihydroxyethane-1,2-dicarboxylic acid; 2,3-Dihydroxybutanedioic acid; Acidum tartaricum; Butanedioic acid, 2,3-dihydroxy-; Cichoric acid; d-alpha,beta-Dihydroxysuccinic acid; d-Tartaric acid; Dextrotartaric acid; Kyselina 2,3-dihydroxybutandiova [Czech]; Kyselina vinna [Czech]; L-(+)-Tartaric acid; Natural tartaric acid; Succinic acid, 2,3-dihydroxy; Tartaric acid; Threaric acid; [ChemIDplus] (2R,3R)-2,3-Dihydroxybutanedioic acid; Ordinary tartaric acid; L-2,3-Dihydroxybutanedioic acid; Weinsaure (German); Weinsteinsaure (German); [Merck Index]",
        "links": [],
        "cross_references": [
          {
            "type": "name_match",
            "text": "ethane",
            "confidence": 1.0,
            "uuid": "5162cc8c-dfb9-4060-81ac-38a8cec7f9dd",
            "name": "Ethane",
            "url": "https://haz-map.com/Agents/1075",
            "category": "agents"
          },
          {
            "type": "name_match",
            "text": "succinic acid",
            "confidence": 1.0,
            "uuid": "e01347b0-231d-4c97-8f6d-724da7d58bfb",
            "name": "Succinic acid",
            "url": "https://haz-map.com/Agents/7229",
            "category": "agents"
          },
          {
            "type": "name_match",
            "text": "d-tartaric acid",
            "confidence": 1.0,
            "uuid": "a27dd5e2-5bb5-47f1-b556-98be05cc0e03",
            "name": "D-Tartaric acid",
            "url": "https://haz-map.com/Agents/17854",
            "category": "agents"
          },
          {
            "type": "name_match",
            "text": "l-tartaric acid",
            "confidence": 1.0,
            "uuid": "22739e6b-22a4-431e-bed1-8ccb3603dc30",
            "name": "L-Tartaric acid",
            "url": "https://haz-map.com/Agents/19086",
            "category": "agents"
          }
        ]
      },
      "category": {
        "original_name": "Category",
        "value": "Organic Acids",
        "links": [],
        "cross_references": []
      },
      "description": {
        "original_name": "Description",
        "value": "Solid; [Merck Index] Colorless or translucent odorless solid; [JECFA] White odorless crystals; [Alfa Aesar MSDS]",
        "links": [],
        "cross_references": []
      },
      "sourcesuses": {
        "original_name": "Sources/Uses",
        "value": "Levo form of dextrorotatory tartaric acid; Found throughout nature and classified as a fruit acid; Used in soft drinks and foods, as an acidulant, complexing agent, pharmaceutic aid (buffering agent), in photography, tanning, ceramics, and to make tartrates; Diethyl and dibutyl ester derivatives are commercially significant for use in lacquers and in textile printing; [Merck Index] Used as an intermediate, in construction and ceramics applications, in cleaning products, cosmetics/personal care products, and metal surface treatments (including galvanic and electroplating products); [ECHA REACH Registrations] Used as a flavoring agent, anticaking agent, drying agent, firming agent, humectant, leavening agent, and pH control agent for foods; [FDA] Permitted for use as an inert ingredient in non-food pesticide products; [EPA]",
        "links": [],
        "cross_references": [
          {
            "type": "name_match",
            "text": "electroplating",
            "confidence": 1.0,
            "uuid": "ae1bd2c1-37de-4b26-82b6-47ee206af837",
            "name": "Electroplating",
            "url": "https://haz-map.com/Processes/66",
            "category": "processes"
          }
        ]
      },
      "comments": {
        "original_name": "Comments",
        "value": "A local irritant; [Merck Index] May cause serious eye injury; [ECHA REACH Registrations] Maximum total daily intake of tartrate of 0-6 mg/kg (unconditional acceptance) and 6-20 mg/kg (conditional acceptance); [JECFA] A skin and strong eye irritant; [Alfa Aesar MSDS]",
        "links": [],
        "cross_references": []
      },
      "biomedical_references": {
        "original_name": "Biomedical References",
        "value": "Search PubMed",
        "links": [
          {
            "text": "Search PubMed",
            "url": "https://www.ncbi.nlm.nih.gov/pubmed?term=L-Tartaric+acid%20AND%20human%5Bmh%5D%20AND%20%28Occupational%20Diseases%20%5Bmh%5D%20OR%20Occupational%20Exposure%20%5Bmh%5D%29%20%20AND%20%28tox%5Bsb%5D%29&cmd=search"
          }
        ],
        "cross_references": []
      }
    },
    "exposure_assessment": {
      "mak": {
        "original_name": "MAK",
        "value": "2 mg/m3, inhalable fraction",
        "links": [],
        "cross_references": []
      },
      "vapor_pressure": {
        "original_name": "Vapor Pressure",
        "value": "1.48E-07 mm Hg",
        "links": [],
        "cross_references": []
      }
    },
    "diseases_processes_and_activities_linked_to_this_agent": {
      "processes": {
        "original_name": "Processes",
        "value": "Industrial Processes with risk of exposure: Electroplating Leather Tanning and Processing Painting (Pigments, Binders, and Biocides) Photographic Processing Textiles (Printing, Dyeing, or Finishing)",
        "links": [
          {
            "text": "Electroplating",
            "url": "https://haz-map.com/Processes/66"
          },
          {
            "text": "Leather Tanning and Processing",
            "url": "https://haz-map.com/Processes/230"
          },
          {
            "text": "Painting (Pigments, Binders, and Biocides)",
            "url": "https://haz-map.com/Processes/145"
          },
          {
            "text": "Photographic Processing",
            "url": "https://haz-map.com/Processes/231"
          },
          {
            "text": "Textiles (Printing, Dyeing, or Finishing)",
            "url": "https://haz-map.com/Processes/235"
          }
        ],
        "cross_references": [
          {
            "type": "url_match",
            "text": "Electroplating",
            "url": "https://haz-map.com/Processes/66",
            "confidence": 1.0,
            "uuid": "ae1bd2c1-37de-4b26-82b6-47ee206af837",
            "name": "Electroplating",
            "category": "processes"
          },
          {
            "type": "url_match",
            "text": "Painting (Pigments, Binders, and Biocides)",
            "url": "https://haz-map.com/Processes/145",
            "confidence": 1.0,
            "uuid": "25867878-e178-4c21-906f-d392d86b76de",
            "name": "Painting (Pigments, Binders, and Biocides)",
            "category": "processes"
          },
          {
            "type": "name_match",
            "text": "painting",
            "confidence": 1.0,
            "uuid": "19816ce9-9edf-4a86-8e64-b0cbf7dcf520",
            "name": "Painting",
            "url": "https://haz-map.com/Activities/9",
            "category": "activities"
          }
        ]
      }
    }
  },
  "cross_references": [
    {
      "type": "url_match",
      "text": "Electroplating",
      "url": "https://haz-map.com/Processes/66",
      "confidence": 1.0,
      "uuid": "ae1bd2c1-37de-4b26-82b6-47ee206af837",
      "name": "Electroplating",
      "category": "processes"
    },
    {
      "type": "url_match",
      "text": "Painting (Pigments, Binders, and Biocides)",
      "url": "https://haz-map.com/Processes/145",
      "confidence": 1.0,
      "uuid": "25867878-e178-4c21-906f-d392d86b76de",
      "name": "Painting (Pigments, Binders, and Biocides)",
      "category": "processes"
    },
    {
      "type": "name_match",
      "text": "painting",
      "confidence": 1.0,
      "uuid": "19816ce9-9edf-4a86-8e64-b0cbf7dcf520",
      "name": "Painting",
      "url": "https://haz-map.com/Activities/9",
      "category": "activities"
    },
    {
      "type": "name_match",
      "text": "ethane",
      "confidence": 1.0,
      "uuid": "5162cc8c-dfb9-4060-81ac-38a8cec7f9dd",
      "name": "Ethane",
      "url": "https://haz-map.com/Agents/1075",
      "category": "agents"
    },
    {
      "type": "name_match",
      "text": "succinic acid",
      "confidence": 1.0,
      "uuid": "e01347b0-231d-4c97-8f6d-724da7d58bfb",
      "name": "Succinic acid",
      "url": "https://haz-map.com/Agents/7229",
      "category": "agents"
    },
    {
      "type": "name_match",
      "text": "d-tartaric acid",
      "confidence": 1.0,
      "uuid": "a27dd5e2-5bb5-47f1-b556-98be05cc0e03",
      "name": "D-Tartaric acid",
      "url": "https://haz-map.com/Agents/17854",
      "category": "agents"
    },
    {
      "type": "name_match",
      "text": "l-tartaric acid",
      "confidence": 1.0,
      "uuid": "22739e6b-22a4-431e-bed1-8ccb3603dc30",
      "name": "L-Tartaric acid",
      "url": "https://haz-map.com/Agents/19086",
      "category": "agents"
    }
  ],
  "all_links": [
    {
      "text": "Search PubMed",
      "url": "https://www.ncbi.nlm.nih.gov/pubmed?term=L-Tartaric+acid%20AND%20human%5Bmh%5D%20AND%20%28Occupational%20Diseases%20%5Bmh%5D%20OR%20Occupational%20Exposure%20%5Bmh%5D%29%20%20AND%20%28tox%5Bsb%5D%29&cmd=search"
    },
    {
      "text": "Electroplating",
      "url": "https://haz-map.com/Processes/66"
    },
    {
      "text": "Leather Tanning and Processing",
      "url": "https://haz-map.com/Processes/230"
    },
    {
      "text": "Painting (Pigments, Binders, and Biocides)",
      "url": "https://haz-map.com/Processes/145"
    },
    {
      "text": "Photographic Processing",
      "url": "https://haz-map.com/Processes/231"
    },
    {
      "text": "Textiles (Printing, Dyeing, or Finishing)",
      "url": "https://haz-map.com/Processes/235"
    }
  ]
}