{
  "metadata": {
    "scraped_from": "https://haz-map.com/Agents/18597",
    "entity_name": "Valine",
    "category": "agents",
    "uuid": "2284e5a1-ea67-4774-8b4e-3eaa65e20c4f",
    "scraped_at": "2025-07-23T21:56:44.832787"
  },
  "parsed_at": "2025-07-24T01:14:15.050619",
  "title": "Valine",
  "sections": {
    "general": {
      "agent_name": {
        "original_name": "Agent Name",
        "value": "Valine",
        "links": [],
        "cross_references": [
          {
            "type": "name_match",
            "text": "valine",
            "confidence": 1.0,
            "uuid": "2284e5a1-ea67-4774-8b4e-3eaa65e20c4f",
            "name": "Valine",
            "url": "https://haz-map.com/Agents/18597",
            "category": "agents"
          }
        ]
      },
      "cas_number": {
        "original_name": "CAS Number",
        "value": "72-18-4",
        "links": [],
        "cross_references": []
      },
      "formula": {
        "original_name": "Formula",
        "value": "C5-H11-N-O2",
        "links": [],
        "cross_references": []
      },
      "major_category": {
        "original_name": "Major Category",
        "value": "Biological Agents",
        "links": [],
        "cross_references": []
      },
      "synonyms": {
        "original_name": "Synonyms",
        "value": "(S)-2-Amino-3-methylbutanoic acid; (S)-2-Amino-3-methylbutyric acid; (S)-Valine; (S)-alpha-Amino-beta-methylbutyric acid; 2-Amino-3-methylbutanoic acid; 2-Amino-3-methylbutanoic acid (VAN); 2-Amino-3-methylbutanoic acid, (S)-; 2-Amino-3-methylbutyric acid; 2-Amino-3-methylbutyric acid, (S)-; Butanoic acid, 2-amino-3-methyl-; Butanoic acid, 2-amino-3-methyl-, (S)-; L(+)-alpha-Aminoisovaleric acid; L-Valine; L-alpha-Amino-beta-methylbutyric acid; Valina [Spanish]; Valinum [Latin]; Valine, L-; [ChemIDplus] Val; V; 2-Aminoisovaleric acid; alpha-Aminoisovaleric acid; [Merck Index]",
        "links": [],
        "cross_references": [
          {
            "type": "name_match",
            "text": "butyric acid",
            "confidence": 1.0,
            "uuid": "a59c4184-bd52-40af-8450-80d14bbee018",
            "name": "Butyric acid",
            "url": "https://haz-map.com/Agents/1391",
            "category": "agents"
          },
          {
            "type": "name_match",
            "text": "isovaleric acid",
            "confidence": 1.0,
            "uuid": "687e1e85-2ca6-489a-9e97-89fac2c03a53",
            "name": "Isovaleric acid",
            "url": "https://haz-map.com/Agents/5737",
            "category": "agents"
          },
          {
            "type": "name_match",
            "text": "valine",
            "confidence": 1.0,
            "uuid": "2284e5a1-ea67-4774-8b4e-3eaa65e20c4f",
            "name": "Valine",
            "url": "https://haz-map.com/Agents/18597",
            "category": "agents"
          }
        ]
      },
      "category": {
        "original_name": "Category",
        "value": "Amino Acids and Derivatives",
        "links": [],
        "cross_references": []
      },
      "description": {
        "original_name": "Description",
        "value": "Solid; [Merck Index] White powder; [Sigma-Aldrich MSDS]",
        "links": [],
        "cross_references": []
      },
      "sourcesuses": {
        "original_name": "Sources/Uses",
        "value": "Essential amino acid; [Merck Index] Used as a flavoring agent and nutritional supplement for foods; [FDA] Used in dietary supplements, culture media, flavors, and biochemical research; [HSDB]",
        "links": [],
        "cross_references": [
          {
            "type": "name_match",
            "text": "mica",
            "confidence": 1.0,
            "uuid": "433f26f1-c399-4596-b179-ce3843cfd465",
            "name": "Mica",
            "url": "https://haz-map.com/Agents/621",
            "category": "agents"
          }
        ]
      },
      "comments": {
        "original_name": "Comments",
        "value": "May cause irritation; Shown to have tumor promoting activity for bladder carcinomas; [Sigma-Aldrich MSDS]",
        "links": [],
        "cross_references": [
          {
            "type": "name_match",
            "text": "dde",
            "confidence": 1.0,
            "uuid": "88506fb4-e7b1-4bde-a283-917057f67fc2",
            "name": "DDE",
            "url": "https://haz-map.com/Agents/4656",
            "category": "agents"
          }
        ]
      },
      "biomedical_references": {
        "original_name": "Biomedical References",
        "value": "Search PubMed",
        "links": [
          {
            "text": "Search PubMed",
            "url": "https://www.ncbi.nlm.nih.gov/pubmed?term=Valine%20AND%20human%5Bmh%5D%20AND%20%28Occupational%20Diseases%20%5Bmh%5D%20OR%20Occupational%20Exposure%20%5Bmh%5D%29%20%20AND%20%28tox%5Bsb%5D%29&cmd=search"
          }
        ],
        "cross_references": []
      }
    },
    "exposure_assessment": {
      "vapor_pressure": {
        "original_name": "Vapor Pressure",
        "value": "3.41E-08 mm Hg",
        "links": [],
        "cross_references": []
      }
    },
    "diseases_processes_and_activities_linked_to_this_agent": {
      "other_information": {
        "original_name": "Other Information",
        "value": "No other related information on this agent was found.",
        "links": [],
        "cross_references": []
      }
    }
  },
  "cross_references": [
    {
      "type": "name_match",
      "text": "mica",
      "confidence": 1.0,
      "uuid": "433f26f1-c399-4596-b179-ce3843cfd465",
      "name": "Mica",
      "url": "https://haz-map.com/Agents/621",
      "category": "agents"
    },
    {
      "type": "name_match",
      "text": "butyric acid",
      "confidence": 1.0,
      "uuid": "a59c4184-bd52-40af-8450-80d14bbee018",
      "name": "Butyric acid",
      "url": "https://haz-map.com/Agents/1391",
      "category": "agents"
    },
    {
      "type": "name_match",
      "text": "dde",
      "confidence": 1.0,
      "uuid": "88506fb4-e7b1-4bde-a283-917057f67fc2",
      "name": "DDE",
      "url": "https://haz-map.com/Agents/4656",
      "category": "agents"
    },
    {
      "type": "name_match",
      "text": "isovaleric acid",
      "confidence": 1.0,
      "uuid": "687e1e85-2ca6-489a-9e97-89fac2c03a53",
      "name": "Isovaleric acid",
      "url": "https://haz-map.com/Agents/5737",
      "category": "agents"
    },
    {
      "type": "name_match",
      "text": "valine",
      "confidence": 1.0,
      "uuid": "2284e5a1-ea67-4774-8b4e-3eaa65e20c4f",
      "name": "Valine",
      "url": "https://haz-map.com/Agents/18597",
      "category": "agents"
    }
  ],
  "all_links": [
    {
      "text": "Search PubMed",
      "url": "https://www.ncbi.nlm.nih.gov/pubmed?term=Valine%20AND%20human%5Bmh%5D%20AND%20%28Occupational%20Diseases%20%5Bmh%5D%20OR%20Occupational%20Exposure%20%5Bmh%5D%29%20%20AND%20%28tox%5Bsb%5D%29&cmd=search"
    }
  ]
}