{
  "metadata": {
    "scraped_from": "https://haz-map.com/Agents/18105",
    "entity_name": "trans-3-Heptene",
    "category": "agents",
    "uuid": "22a9b1dd-3ab7-41ac-9ecb-8e28ed53cc75",
    "scraped_at": "2025-07-23T21:52:48.233902"
  },
  "parsed_at": "2025-07-24T00:59:10.680164",
  "title": "trans-3-Heptene",
  "sections": {
    "general": {
      "agent_name": {
        "original_name": "Agent Name",
        "value": "trans-3-Heptene",
        "links": [],
        "cross_references": [
          {
            "type": "name_match",
            "text": "3-heptene",
            "confidence": 1.0,
            "uuid": "4a1bef5a-0f86-4d92-b2a0-38103a92db48",
            "name": "3-Heptene",
            "url": "https://haz-map.com/Agents/9655",
            "category": "agents"
          },
          {
            "type": "name_match",
            "text": "heptene",
            "confidence": 1.0,
            "uuid": "a41f7be2-f9f6-47de-967c-2683b506d55d",
            "name": "Heptene",
            "url": "https://haz-map.com/Agents/14566",
            "category": "agents"
          },
          {
            "type": "name_match",
            "text": "trans-3-heptene",
            "confidence": 1.0,
            "uuid": "22a9b1dd-3ab7-41ac-9ecb-8e28ed53cc75",
            "name": "trans-3-Heptene",
            "url": "https://haz-map.com/Agents/18105",
            "category": "agents"
          }
        ]
      },
      "cas_number": {
        "original_name": "CAS Number",
        "value": "14686-14-7",
        "links": [],
        "cross_references": []
      },
      "formula": {
        "original_name": "Formula",
        "value": "C7-H14",
        "links": [],
        "cross_references": []
      },
      "major_category": {
        "original_name": "Major Category",
        "value": "Other Classes",
        "links": [],
        "cross_references": []
      },
      "synonyms": {
        "original_name": "Synonyms",
        "value": "(E)-3-Heptene; (E)-Hept-3-ene; 3-Heptene, (E)-; 3-Heptene, (E)- (8CI)(9CI); [ChemIDplus] UN3295",
        "links": [],
        "cross_references": [
          {
            "type": "name_match",
            "text": "3-heptene",
            "confidence": 1.0,
            "uuid": "4a1bef5a-0f86-4d92-b2a0-38103a92db48",
            "name": "3-Heptene",
            "url": "https://haz-map.com/Agents/9655",
            "category": "agents"
          },
          {
            "type": "name_match",
            "text": "heptene",
            "confidence": 1.0,
            "uuid": "a41f7be2-f9f6-47de-967c-2683b506d55d",
            "name": "Heptene",
            "url": "https://haz-map.com/Agents/14566",
            "category": "agents"
          }
        ]
      },
      "category": {
        "original_name": "Category",
        "value": "Aliphatics, Unsaturated",
        "links": [],
        "cross_references": []
      },
      "description": {
        "original_name": "Description",
        "value": "Clear colorless liquid; [Sigma-Aldrich MSDS]",
        "links": [],
        "cross_references": []
      },
      "comments": {
        "original_name": "Comments",
        "value": "May cause irritation; An aspiration hazard by ingestion (may cause lung injury); [Sigma-Aldrich MSDS] See \"trans-2-Decene.\"",
        "links": [],
        "cross_references": [
          {
            "type": "name_match",
            "text": "decene",
            "confidence": 1.0,
            "uuid": "31094271-051d-41ab-9d14-1e1d404f5a06",
            "name": "Decene",
            "url": "https://haz-map.com/Agents/4666",
            "category": "agents"
          },
          {
            "type": "name_match",
            "text": "trans-2-decene",
            "confidence": 1.0,
            "uuid": "f3f07956-5299-4325-b3e4-1724adb5d3ff",
            "name": "trans-2-Decene",
            "url": "https://haz-map.com/Agents/18092",
            "category": "agents"
          }
        ]
      },
      "biomedical_references": {
        "original_name": "Biomedical References",
        "value": "Search PubMed",
        "links": [
          {
            "text": "Search PubMed",
            "url": "https://www.ncbi.nlm.nih.gov/pubmed?term=trans-3-Heptene%20AND%20human%5Bmh%5D%20AND%20%28Occupational%20Diseases%20%5Bmh%5D%20OR%20Occupational%20Exposure%20%5Bmh%5D%29%20%20AND%20%28tox%5Bsb%5D%29&cmd=search"
          }
        ],
        "cross_references": []
      }
    },
    "exposure_assessment": {
      "vapor_pressure": {
        "original_name": "Vapor Pressure",
        "value": "52.4 mm Hg",
        "links": [],
        "cross_references": []
      },
      "explanatory_notes": {
        "original_name": "Explanatory Notes",
        "value": "The Guide in the Emergency Response Guidebook is for \"Hydrocarbons, liquid, n.o.s.\"",
        "links": [],
        "cross_references": [
          {
            "type": "name_match",
            "text": "carbon",
            "confidence": 1.0,
            "uuid": "b53f8815-ee80-40ef-b4aa-3b000e17dab5",
            "name": "Carbon",
            "url": "https://haz-map.com/Agents/1891",
            "category": "agents"
          },
          {
            "type": "fuzzy_match",
            "text": "hydrocarbons",
            "matched_name": "Hydrocarbons, C>3",
            "confidence": 0.7100840336134454,
            "uuid": "8eaa37ac-3931-44e4-9242-2734127fd661",
            "category": "agents",
            "url": "https://haz-map.com/Agents/14795"
          }
        ]
      }
    },
    "diseases_processes_and_activities_linked_to_this_agent": {
      "other_information": {
        "original_name": "Other Information",
        "value": "No other related information on this agent was found.",
        "links": [],
        "cross_references": []
      }
    }
  },
  "cross_references": [
    {
      "type": "name_match",
      "text": "carbon",
      "confidence": 1.0,
      "uuid": "b53f8815-ee80-40ef-b4aa-3b000e17dab5",
      "name": "Carbon",
      "url": "https://haz-map.com/Agents/1891",
      "category": "agents"
    },
    {
      "type": "name_match",
      "text": "decene",
      "confidence": 1.0,
      "uuid": "31094271-051d-41ab-9d14-1e1d404f5a06",
      "name": "Decene",
      "url": "https://haz-map.com/Agents/4666",
      "category": "agents"
    },
    {
      "type": "name_match",
      "text": "3-heptene",
      "confidence": 1.0,
      "uuid": "4a1bef5a-0f86-4d92-b2a0-38103a92db48",
      "name": "3-Heptene",
      "url": "https://haz-map.com/Agents/9655",
      "category": "agents"
    },
    {
      "type": "name_match",
      "text": "heptene",
      "confidence": 1.0,
      "uuid": "a41f7be2-f9f6-47de-967c-2683b506d55d",
      "name": "Heptene",
      "url": "https://haz-map.com/Agents/14566",
      "category": "agents"
    },
    {
      "type": "name_match",
      "text": "trans-2-decene",
      "confidence": 1.0,
      "uuid": "f3f07956-5299-4325-b3e4-1724adb5d3ff",
      "name": "trans-2-Decene",
      "url": "https://haz-map.com/Agents/18092",
      "category": "agents"
    },
    {
      "type": "name_match",
      "text": "trans-3-heptene",
      "confidence": 1.0,
      "uuid": "22a9b1dd-3ab7-41ac-9ecb-8e28ed53cc75",
      "name": "trans-3-Heptene",
      "url": "https://haz-map.com/Agents/18105",
      "category": "agents"
    },
    {
      "type": "fuzzy_match",
      "text": "hydrocarbons",
      "matched_name": "Hydrocarbons, C>3",
      "confidence": 0.7100840336134454,
      "uuid": "8eaa37ac-3931-44e4-9242-2734127fd661",
      "category": "agents",
      "url": "https://haz-map.com/Agents/14795"
    }
  ],
  "all_links": [
    {
      "text": "Search PubMed",
      "url": "https://www.ncbi.nlm.nih.gov/pubmed?term=trans-3-Heptene%20AND%20human%5Bmh%5D%20AND%20%28Occupational%20Diseases%20%5Bmh%5D%20OR%20Occupational%20Exposure%20%5Bmh%5D%29%20%20AND%20%28tox%5Bsb%5D%29&cmd=search"
    }
  ]
}