{
  "metadata": {
    "scraped_from": "https://haz-map.com/Agents/14163",
    "entity_name": "3-Methylacetophenone",
    "category": "agents",
    "uuid": "22ed113b-c9e4-4448-88ed-14d8b06d4da5",
    "scraped_at": "2025-07-23T21:21:02.742146"
  },
  "parsed_at": "2025-07-24T01:19:01.907798",
  "title": "3-Methylacetophenone",
  "sections": {
    "general": {
      "agent_name": {
        "original_name": "Agent Name",
        "value": "3-Methylacetophenone",
        "links": [],
        "cross_references": [
          {
            "type": "name_match",
            "text": "acetophenone",
            "confidence": 1.0,
            "uuid": "ea2f7a13-5a06-4d04-88db-0d365933a3ec",
            "name": "Acetophenone",
            "url": "https://haz-map.com/Agents/2193",
            "category": "agents"
          },
          {
            "type": "name_match",
            "text": "3-methylacetophenone",
            "confidence": 1.0,
            "uuid": "22ed113b-c9e4-4448-88ed-14d8b06d4da5",
            "name": "3-Methylacetophenone",
            "url": "https://haz-map.com/Agents/14163",
            "category": "agents"
          }
        ]
      },
      "cas_number": {
        "original_name": "CAS Number",
        "value": "585-74-0",
        "links": [],
        "cross_references": []
      },
      "formula": {
        "original_name": "Formula",
        "value": "C9-H10-O",
        "links": [],
        "cross_references": []
      },
      "major_category": {
        "original_name": "Major Category",
        "value": "Other Classes",
        "links": [],
        "cross_references": []
      },
      "synonyms": {
        "original_name": "Synonyms",
        "value": "3'-Methylacetophenone; Acetophenone, m-methyl-; m-Methylacetophenone; Acetophenone, 3'-methyl- (8CI); Ethanone, 1-(3-methylphenyl)- (9CI); [ChemIDplus]",
        "links": [],
        "cross_references": [
          {
            "type": "name_match",
            "text": "acetophenone",
            "confidence": 1.0,
            "uuid": "ea2f7a13-5a06-4d04-88db-0d365933a3ec",
            "name": "Acetophenone",
            "url": "https://haz-map.com/Agents/2193",
            "category": "agents"
          }
        ]
      },
      "category": {
        "original_name": "Category",
        "value": "Aromatic Ketones",
        "links": [],
        "cross_references": []
      },
      "description": {
        "original_name": "Description",
        "value": "Clear light yellow liquid; [Sigma-Aldrich MSDS]",
        "links": [],
        "cross_references": [
          {
            "type": "name_match",
            "text": "ht",
            "confidence": 1.0,
            "uuid": "764df367-8d53-4a11-81a2-31ccfe122a8d",
            "name": "HT",
            "url": "https://haz-map.com/Agents/2168",
            "category": "agents"
          }
        ]
      },
      "comments": {
        "original_name": "Comments",
        "value": "May cause irritation; Harmful by ingestion; [Sigma-Aldrich MSDS] See \"Acetophenone.\"",
        "links": [],
        "cross_references": [
          {
            "type": "name_match",
            "text": "acetophenone",
            "confidence": 1.0,
            "uuid": "ea2f7a13-5a06-4d04-88db-0d365933a3ec",
            "name": "Acetophenone",
            "url": "https://haz-map.com/Agents/2193",
            "category": "agents"
          }
        ]
      },
      "biomedical_references": {
        "original_name": "Biomedical References",
        "value": "Search PubMed",
        "links": [
          {
            "text": "Search PubMed",
            "url": "https://www.ncbi.nlm.nih.gov/pubmed?term=3-Methylacetophenone%20AND%20human%5Bmh%5D%20AND%20%28Occupational%20Diseases%20%5Bmh%5D%20OR%20Occupational%20Exposure%20%5Bmh%5D%29%20%20AND%20%28tox%5Bsb%5D%29&cmd=search"
          }
        ],
        "cross_references": []
      }
    },
    "exposure_assessment": {
      "vapor_pressure": {
        "original_name": "Vapor Pressure",
        "value": "0.221 mm Hg",
        "links": [],
        "cross_references": []
      },
      "explanatory_notes": {
        "original_name": "Explanatory Notes",
        "value": "VP from ChemIDplus;",
        "links": [],
        "cross_references": []
      }
    },
    "diseases_processes_and_activities_linked_to_this_agent": {
      "other_information": {
        "original_name": "Other Information",
        "value": "No other related information on this agent was found.",
        "links": [],
        "cross_references": []
      }
    }
  },
  "cross_references": [
    {
      "type": "name_match",
      "text": "ht",
      "confidence": 1.0,
      "uuid": "764df367-8d53-4a11-81a2-31ccfe122a8d",
      "name": "HT",
      "url": "https://haz-map.com/Agents/2168",
      "category": "agents"
    },
    {
      "type": "name_match",
      "text": "acetophenone",
      "confidence": 1.0,
      "uuid": "ea2f7a13-5a06-4d04-88db-0d365933a3ec",
      "name": "Acetophenone",
      "url": "https://haz-map.com/Agents/2193",
      "category": "agents"
    },
    {
      "type": "name_match",
      "text": "3-methylacetophenone",
      "confidence": 1.0,
      "uuid": "22ed113b-c9e4-4448-88ed-14d8b06d4da5",
      "name": "3-Methylacetophenone",
      "url": "https://haz-map.com/Agents/14163",
      "category": "agents"
    }
  ],
  "all_links": [
    {
      "text": "Search PubMed",
      "url": "https://www.ncbi.nlm.nih.gov/pubmed?term=3-Methylacetophenone%20AND%20human%5Bmh%5D%20AND%20%28Occupational%20Diseases%20%5Bmh%5D%20OR%20Occupational%20Exposure%20%5Bmh%5D%29%20%20AND%20%28tox%5Bsb%5D%29&cmd=search"
    }
  ]
}