{
  "metadata": {
    "scraped_from": "https://haz-map.com/Agents/558",
    "entity_name": "Methylcyclohexanol",
    "category": "agents",
    "uuid": "22f08510-21ee-4de7-afd9-d5b08745568b",
    "scraped_at": "2025-07-23T18:44:20.574405"
  },
  "parsed_at": "2025-07-24T01:19:16.490604",
  "title": "Methylcyclohexanol",
  "sections": {
    "general": {
      "agent_name": {
        "original_name": "Agent Name",
        "value": "Methylcyclohexanol",
        "links": [],
        "cross_references": [
          {
            "type": "name_match",
            "text": "methylcyclohexanol",
            "confidence": 1.0,
            "uuid": "22f08510-21ee-4de7-afd9-d5b08745568b",
            "name": "Methylcyclohexanol",
            "url": "https://haz-map.com/Agents/558",
            "category": "agents"
          },
          {
            "type": "name_match",
            "text": "cyclohexanol",
            "confidence": 1.0,
            "uuid": "24ac6370-b064-46ca-bf9a-8fb5eada1573",
            "name": "Cyclohexanol",
            "url": "https://haz-map.com/Agents/772",
            "category": "agents"
          }
        ]
      },
      "cas_number": {
        "original_name": "CAS Number",
        "value": "25639-42-3",
        "links": [],
        "cross_references": []
      },
      "formula": {
        "original_name": "Formula",
        "value": "C7-H14-O",
        "links": [],
        "cross_references": []
      },
      "major_category": {
        "original_name": "Major Category",
        "value": "Solvents",
        "links": [],
        "cross_references": []
      },
      "synonyms": {
        "original_name": "Synonyms",
        "value": "Cyclohexanol, methyl-;Hexahydrocresol; Hexahydromethylphenol; Methyl adronol; Methyl anol; Methylhexalin; Metylocykloheksanol [Polish]; Sextol; [ChemIDplus] UN2617",
        "links": [],
        "cross_references": [
          {
            "type": "name_match",
            "text": "phenol",
            "confidence": 1.0,
            "uuid": "03141a03-a7df-4f51-9a37-adde1a7c4b31",
            "name": "Phenol",
            "url": "https://haz-map.com/Agents/84",
            "category": "agents"
          },
          {
            "type": "name_match",
            "text": "cyclohexanol",
            "confidence": 1.0,
            "uuid": "24ac6370-b064-46ca-bf9a-8fb5eada1573",
            "name": "Cyclohexanol",
            "url": "https://haz-map.com/Agents/772",
            "category": "agents"
          }
        ]
      },
      "category": {
        "original_name": "Category",
        "value": "Alcohols (<C12)",
        "links": [],
        "cross_references": []
      },
      "description": {
        "original_name": "Description",
        "value": "Straw-colored liquid with a weak odor like coconut oil; [NIOSH]",
        "links": [],
        "cross_references": [
          {
            "type": "name_match",
            "text": "coconut oil",
            "confidence": 1.0,
            "uuid": "e703b4dd-2431-4c6b-9f20-4273ce7099ea",
            "name": "Coconut oil",
            "url": "https://haz-map.com/Agents/20464",
            "category": "agents"
          }
        ]
      },
      "sourcesuses": {
        "original_name": "Sources/Uses",
        "value": "Used as a solvent and antioxidant; [ACGIH] Used as a solvent in lacquers and spot removers; [HSDB]",
        "links": [],
        "cross_references": []
      },
      "comments": {
        "original_name": "Comments",
        "value": "Sublethal doses cause narcosis and liver injury in experimental animals. [ACGIH] A skin, eye, and respiratory tract irritant; [ICSC]",
        "links": [],
        "cross_references": []
      },
      "biomedical_references": {
        "original_name": "Biomedical References",
        "value": "Search PubMed",
        "links": [
          {
            "text": "Search PubMed",
            "url": "https://www.ncbi.nlm.nih.gov/pubmed?term=Methylcyclohexanol%20AND%20human%5Bmh%5D%20AND%20%28Occupational%20Diseases%20%5Bmh%5D%20OR%20Occupational%20Exposure%20%5Bmh%5D%29%20%20AND%20%28tox%5Bsb%5D%29&cmd=search"
          }
        ],
        "cross_references": []
      }
    },
    "exposure_assessment": {
      "skin_designation_acgih": {
        "original_name": "Skin Designation (ACGIH)",
        "value": "Insufficient data",
        "links": [],
        "cross_references": []
      },
      "tlv_acgih": {
        "original_name": "TLV (ACGIH)",
        "value": "50 ppm",
        "links": [],
        "cross_references": []
      },
      "pel_osha": {
        "original_name": "PEL (OSHA)",
        "value": "100 ppm",
        "links": [],
        "cross_references": []
      },
      "idlh_niosh": {
        "original_name": "IDLH (NIOSH)",
        "value": "500 ppm",
        "links": [],
        "cross_references": []
      },
      "excerpts_from_documentation_for_idlhs": {
        "original_name": "Excerpts from Documentation for IDLHs",
        "value": "Other animal data: Rabbits exposed for 6 hours/day, 5 days/week for 10 weeks at 503 ppm had increased salivation, conjunctival irritation, and slight lethargy, while 232 ppm caused no such signs of intoxication [Treon et al. 1943b].",
        "links": [],
        "cross_references": [
          {
            "type": "name_match",
            "text": "lethargy",
            "confidence": 1.0,
            "uuid": "f3e97992-f086-4114-b2b3-9e38808450cd",
            "name": "lethargy",
            "url": "https://haz-map.com/Findings/46",
            "category": "findings"
          },
          {
            "type": "name_match",
            "text": "salivation",
            "confidence": 1.0,
            "uuid": "d550cdee-2f13-48a0-b762-d0f4163d79c2",
            "name": "salivation",
            "url": "https://haz-map.com/Findings/136",
            "category": "findings"
          },
          {
            "type": "name_match",
            "text": "ht",
            "confidence": 1.0,
            "uuid": "764df367-8d53-4a11-81a2-31ccfe122a8d",
            "name": "HT",
            "url": "https://haz-map.com/Agents/2168",
            "category": "agents"
          }
        ]
      },
      "vapor_pressure": {
        "original_name": "Vapor Pressure",
        "value": "1.2 mm Hg",
        "links": [],
        "cross_references": []
      },
      "odor_threshold_low": {
        "original_name": "Odor Threshold Low",
        "value": "504 ppm",
        "links": [],
        "cross_references": []
      },
      "explanatory_notes": {
        "original_name": "Explanatory Notes",
        "value": "Odor threshold from CHEMINFO; VP = 1.2 mm Hg at 25 deg C /trans-2-methylcyclohexanol/; 1.45 mm Hg at 25 deg C /cis-2-methylcyclohexanol/; [HSDB]",
        "links": [],
        "cross_references": [
          {
            "type": "name_match",
            "text": "methylcyclohexanol",
            "confidence": 1.0,
            "uuid": "22f08510-21ee-4de7-afd9-d5b08745568b",
            "name": "Methylcyclohexanol",
            "url": "https://haz-map.com/Agents/558",
            "category": "agents"
          },
          {
            "type": "name_match",
            "text": "cyclohexanol",
            "confidence": 1.0,
            "uuid": "24ac6370-b064-46ca-bf9a-8fb5eada1573",
            "name": "Cyclohexanol",
            "url": "https://haz-map.com/Agents/772",
            "category": "agents"
          }
        ]
      },
      "nfpa": {
        "original_name": "NFPA",
        "value": "high ambient temp required",
        "links": [],
        "cross_references": []
      }
    },
    "adverse_effects": {
      "neurotoxin": {
        "original_name": "Neurotoxin",
        "value": "Acute solvent syndrome",
        "links": [],
        "cross_references": []
      },
      "hepatotoxin": {
        "original_name": "Hepatotoxin",
        "value": "Hepatoxic (a) from occupational exposure (secondary effect) or (b) in animal studies or in humans after ingestion",
        "links": [],
        "cross_references": []
      }
    },
    "diseases_processes_and_activities_linked_to_this_agent": {
      "diseases": {
        "original_name": "Diseases",
        "value": "Occupational diseases associated with exposure to this agent: Encephalopathy, chronic solvent Solvents, acute toxic effect",
        "links": [
          {
            "text": "Encephalopathy, chronic solvent",
            "url": "https://haz-map.com/Diseases/325"
          },
          {
            "text": "Solvents, acute toxic effect",
            "url": "https://haz-map.com/Diseases/326"
          }
        ],
        "cross_references": [
          {
            "type": "url_match",
            "text": "Encephalopathy, chronic solvent",
            "url": "https://haz-map.com/Diseases/325",
            "confidence": 1.0,
            "uuid": "589ad578-4636-444e-8823-bf2dd0c7aeab",
            "name": "Encephalopathy, chronic solvent",
            "category": "diseases"
          },
          {
            "type": "url_match",
            "text": "Solvents, acute toxic effect",
            "url": "https://haz-map.com/Diseases/326",
            "confidence": 1.0,
            "uuid": "581e90e3-9d0c-45f0-aa6c-3468c28da129",
            "name": "Solvents, acute toxic effect",
            "category": "diseases"
          }
        ]
      },
      "processes": {
        "original_name": "Processes",
        "value": "Industrial Processes with risk of exposure: Painting (Solvents)",
        "links": [
          {
            "text": "Painting (Solvents)",
            "url": "https://haz-map.com/Processes/142"
          }
        ],
        "cross_references": [
          {
            "type": "url_match",
            "text": "Painting (Solvents)",
            "url": "https://haz-map.com/Processes/142",
            "confidence": 1.0,
            "uuid": "ca747481-4da1-4550-a546-f0d43a41b46c",
            "name": "Painting (Solvents)",
            "category": "processes"
          },
          {
            "type": "name_match",
            "text": "painting",
            "confidence": 1.0,
            "uuid": "19816ce9-9edf-4a86-8e64-b0cbf7dcf520",
            "name": "Painting",
            "url": "https://haz-map.com/Activities/9",
            "category": "activities"
          }
        ]
      }
    }
  },
  "cross_references": [
    {
      "type": "url_match",
      "text": "Encephalopathy, chronic solvent",
      "url": "https://haz-map.com/Diseases/325",
      "confidence": 1.0,
      "uuid": "589ad578-4636-444e-8823-bf2dd0c7aeab",
      "name": "Encephalopathy, chronic solvent",
      "category": "diseases"
    },
    {
      "type": "url_match",
      "text": "Solvents, acute toxic effect",
      "url": "https://haz-map.com/Diseases/326",
      "confidence": 1.0,
      "uuid": "581e90e3-9d0c-45f0-aa6c-3468c28da129",
      "name": "Solvents, acute toxic effect",
      "category": "diseases"
    },
    {
      "type": "url_match",
      "text": "Painting (Solvents)",
      "url": "https://haz-map.com/Processes/142",
      "confidence": 1.0,
      "uuid": "ca747481-4da1-4550-a546-f0d43a41b46c",
      "name": "Painting (Solvents)",
      "category": "processes"
    },
    {
      "type": "name_match",
      "text": "painting",
      "confidence": 1.0,
      "uuid": "19816ce9-9edf-4a86-8e64-b0cbf7dcf520",
      "name": "Painting",
      "url": "https://haz-map.com/Activities/9",
      "category": "activities"
    },
    {
      "type": "name_match",
      "text": "lethargy",
      "confidence": 1.0,
      "uuid": "f3e97992-f086-4114-b2b3-9e38808450cd",
      "name": "lethargy",
      "url": "https://haz-map.com/Findings/46",
      "category": "findings"
    },
    {
      "type": "name_match",
      "text": "salivation",
      "confidence": 1.0,
      "uuid": "d550cdee-2f13-48a0-b762-d0f4163d79c2",
      "name": "salivation",
      "url": "https://haz-map.com/Findings/136",
      "category": "findings"
    },
    {
      "type": "name_match",
      "text": "phenol",
      "confidence": 1.0,
      "uuid": "03141a03-a7df-4f51-9a37-adde1a7c4b31",
      "name": "Phenol",
      "url": "https://haz-map.com/Agents/84",
      "category": "agents"
    },
    {
      "type": "name_match",
      "text": "methylcyclohexanol",
      "confidence": 1.0,
      "uuid": "22f08510-21ee-4de7-afd9-d5b08745568b",
      "name": "Methylcyclohexanol",
      "url": "https://haz-map.com/Agents/558",
      "category": "agents"
    },
    {
      "type": "name_match",
      "text": "cyclohexanol",
      "confidence": 1.0,
      "uuid": "24ac6370-b064-46ca-bf9a-8fb5eada1573",
      "name": "Cyclohexanol",
      "url": "https://haz-map.com/Agents/772",
      "category": "agents"
    },
    {
      "type": "name_match",
      "text": "ht",
      "confidence": 1.0,
      "uuid": "764df367-8d53-4a11-81a2-31ccfe122a8d",
      "name": "HT",
      "url": "https://haz-map.com/Agents/2168",
      "category": "agents"
    },
    {
      "type": "name_match",
      "text": "coconut oil",
      "confidence": 1.0,
      "uuid": "e703b4dd-2431-4c6b-9f20-4273ce7099ea",
      "name": "Coconut oil",
      "url": "https://haz-map.com/Agents/20464",
      "category": "agents"
    }
  ],
  "all_links": [
    {
      "text": "Search PubMed",
      "url": "https://www.ncbi.nlm.nih.gov/pubmed?term=Methylcyclohexanol%20AND%20human%5Bmh%5D%20AND%20%28Occupational%20Diseases%20%5Bmh%5D%20OR%20Occupational%20Exposure%20%5Bmh%5D%29%20%20AND%20%28tox%5Bsb%5D%29&cmd=search"
    },
    {
      "text": "Encephalopathy, chronic solvent",
      "url": "https://haz-map.com/Diseases/325"
    },
    {
      "text": "Solvents, acute toxic effect",
      "url": "https://haz-map.com/Diseases/326"
    },
    {
      "text": "Painting (Solvents)",
      "url": "https://haz-map.com/Processes/142"
    }
  ]
}