{
  "metadata": {
    "scraped_from": "https://haz-map.com/Agents/8622",
    "entity_name": "2-Hexanol",
    "category": "agents",
    "uuid": "234c53b0-5a0c-4c44-b573-3a824b301e0b",
    "scraped_at": "2025-07-23T20:29:30.466764"
  },
  "parsed_at": "2025-07-24T01:03:40.779146",
  "title": "2-Hexanol",
  "sections": {
    "general": {
      "agent_name": {
        "original_name": "Agent Name",
        "value": "2-Hexanol",
        "links": [],
        "cross_references": [
          {
            "type": "name_match",
            "text": "2-hexanol",
            "confidence": 1.0,
            "uuid": "234c53b0-5a0c-4c44-b573-3a824b301e0b",
            "name": "2-Hexanol",
            "url": "https://haz-map.com/Agents/8622",
            "category": "agents"
          }
        ]
      },
      "cas_number": {
        "original_name": "CAS Number",
        "value": "626-93-7",
        "links": [],
        "cross_references": []
      },
      "formula": {
        "original_name": "Formula",
        "value": "C6-H14-O",
        "links": [],
        "cross_references": []
      },
      "major_category": {
        "original_name": "Major Category",
        "value": "Solvents",
        "links": [],
        "cross_references": []
      },
      "synonyms": {
        "original_name": "Synonyms",
        "value": "2-Hydroxyhexane; sec-Hexyl alcohol; [ChemIDplus] UN2282",
        "links": [],
        "cross_references": []
      },
      "category": {
        "original_name": "Category",
        "value": "Alcohols (<C12)",
        "links": [],
        "cross_references": []
      },
      "description": {
        "original_name": "Description",
        "value": "Colorless liquid; [ICSC]",
        "links": [],
        "cross_references": []
      },
      "comments": {
        "original_name": "Comments",
        "value": "Causes somnolence after oral doses to guinea pigs; Causes changes in peripheral nerve recordings after intraperitoneal doses to rats; [RTECS] A skin irritant; Can be absorbed through skin; Defats the skin; \"The substance may have effects on the nervous system, resulting in peripheral neuropathy.\" [ICSC] A mild skin irritant; [eChemPortal: ERMA] An irritant; Targets nerves; [MSDSonline] See \"n-Hexane.\"",
        "links": [],
        "cross_references": [
          {
            "type": "name_match",
            "text": "neuropathy",
            "confidence": 1.0,
            "uuid": "8708368f-f68b-4a51-b1ea-01982070ed28",
            "name": "neuropathy",
            "url": "https://haz-map.com/Findings/85",
            "category": "findings"
          },
          {
            "type": "name_match",
            "text": "n-hexane",
            "confidence": 1.0,
            "uuid": "17cca64b-b503-423c-a841-9aff067c5671",
            "name": "n-Hexane",
            "url": "https://haz-map.com/Agents/105",
            "category": "agents"
          }
        ]
      },
      "biomedical_references": {
        "original_name": "Biomedical References",
        "value": "Search PubMed",
        "links": [
          {
            "text": "Search PubMed",
            "url": "https://www.ncbi.nlm.nih.gov/pubmed?term=2-Hexanol%20AND%20human%5Bmh%5D%20AND%20%28Occupational%20Diseases%20%5Bmh%5D%20OR%20Occupational%20Exposure%20%5Bmh%5D%29%20%20AND%20%28tox%5Bsb%5D%29&cmd=search"
          }
        ],
        "cross_references": []
      }
    },
    "exposure_assessment": {
      "vapor_pressure": {
        "original_name": "Vapor Pressure",
        "value": "2.49 mm Hg",
        "links": [],
        "cross_references": []
      },
      "explanatory_notes": {
        "original_name": "Explanatory Notes",
        "value": "The Guide in the Emergency Response Guidebook is for \"Hexanols.\" VP from ChemIDplus;",
        "links": [],
        "cross_references": []
      }
    },
    "adverse_effects": {
      "neurotoxin": {
        "original_name": "Neurotoxin",
        "value": "Acute solvent syndrome",
        "links": [],
        "cross_references": []
      }
    },
    "diseases_processes_and_activities_linked_to_this_agent": {
      "diseases": {
        "original_name": "Diseases",
        "value": "Occupational diseases associated with exposure to this agent: Solvents, acute toxic effect",
        "links": [
          {
            "text": "Solvents, acute toxic effect",
            "url": "https://haz-map.com/Diseases/326"
          }
        ],
        "cross_references": [
          {
            "type": "url_match",
            "text": "Solvents, acute toxic effect",
            "url": "https://haz-map.com/Diseases/326",
            "confidence": 1.0,
            "uuid": "581e90e3-9d0c-45f0-aa6c-3468c28da129",
            "name": "Solvents, acute toxic effect",
            "category": "diseases"
          }
        ]
      }
    }
  },
  "cross_references": [
    {
      "type": "url_match",
      "text": "Solvents, acute toxic effect",
      "url": "https://haz-map.com/Diseases/326",
      "confidence": 1.0,
      "uuid": "581e90e3-9d0c-45f0-aa6c-3468c28da129",
      "name": "Solvents, acute toxic effect",
      "category": "diseases"
    },
    {
      "type": "name_match",
      "text": "neuropathy",
      "confidence": 1.0,
      "uuid": "8708368f-f68b-4a51-b1ea-01982070ed28",
      "name": "neuropathy",
      "url": "https://haz-map.com/Findings/85",
      "category": "findings"
    },
    {
      "type": "name_match",
      "text": "n-hexane",
      "confidence": 1.0,
      "uuid": "17cca64b-b503-423c-a841-9aff067c5671",
      "name": "n-Hexane",
      "url": "https://haz-map.com/Agents/105",
      "category": "agents"
    },
    {
      "type": "name_match",
      "text": "2-hexanol",
      "confidence": 1.0,
      "uuid": "234c53b0-5a0c-4c44-b573-3a824b301e0b",
      "name": "2-Hexanol",
      "url": "https://haz-map.com/Agents/8622",
      "category": "agents"
    }
  ],
  "all_links": [
    {
      "text": "Search PubMed",
      "url": "https://www.ncbi.nlm.nih.gov/pubmed?term=2-Hexanol%20AND%20human%5Bmh%5D%20AND%20%28Occupational%20Diseases%20%5Bmh%5D%20OR%20Occupational%20Exposure%20%5Bmh%5D%29%20%20AND%20%28tox%5Bsb%5D%29&cmd=search"
    },
    {
      "text": "Solvents, acute toxic effect",
      "url": "https://haz-map.com/Diseases/326"
    }
  ]
}