{
  "metadata": {
    "scraped_from": "https://haz-map.com/Agents/5945",
    "entity_name": "Menthyl acetate",
    "category": "agents",
    "uuid": "236ecf56-2021-4fac-9556-d6c14c853a23",
    "scraped_at": "2025-07-23T19:57:13.693581"
  },
  "parsed_at": "2025-07-24T01:04:43.635271",
  "title": "Menthyl acetate",
  "sections": {
    "general": {
      "agent_name": {
        "original_name": "Agent Name",
        "value": "Menthyl acetate",
        "links": [],
        "cross_references": [
          {
            "type": "name_match",
            "text": "menthyl acetate",
            "confidence": 1.0,
            "uuid": "236ecf56-2021-4fac-9556-d6c14c853a23",
            "name": "Menthyl acetate",
            "url": "https://haz-map.com/Agents/5945",
            "category": "agents"
          }
        ]
      },
      "cas_number": {
        "original_name": "CAS Number",
        "value": "16409-45-3",
        "links": [],
        "cross_references": []
      },
      "formula": {
        "original_name": "Formula",
        "value": "C12-H22-O2",
        "links": [],
        "cross_references": []
      },
      "major_category": {
        "original_name": "Major Category",
        "value": "Biological Agents",
        "links": [],
        "cross_references": []
      },
      "synonyms": {
        "original_name": "Synonyms",
        "value": "5-Methyl-2-(1-methylethyl)cyclohexanol acetate; Cyclohexanol, 5-methyl-2-(1-methylethyl)-, acetate; Menthol, acetate; [ChemIDplus] UN1993",
        "links": [],
        "cross_references": [
          {
            "type": "name_match",
            "text": "cyclohexanol",
            "confidence": 1.0,
            "uuid": "24ac6370-b064-46ca-bf9a-8fb5eada1573",
            "name": "Cyclohexanol",
            "url": "https://haz-map.com/Agents/772",
            "category": "agents"
          },
          {
            "type": "name_match",
            "text": "menthol",
            "confidence": 1.0,
            "uuid": "3997b2ab-a5d2-4a7e-a2c6-4a1ad2e57b50",
            "name": "Menthol",
            "url": "https://haz-map.com/Agents/5943",
            "category": "agents"
          }
        ]
      },
      "category": {
        "original_name": "Category",
        "value": "Plant Oils and Extracts",
        "links": [],
        "cross_references": []
      },
      "description": {
        "original_name": "Description",
        "value": "Colorless liquid with an odor like menthol; [Hawley]",
        "links": [],
        "cross_references": [
          {
            "type": "name_match",
            "text": "menthol",
            "confidence": 1.0,
            "uuid": "3997b2ab-a5d2-4a7e-a2c6-4a1ad2e57b50",
            "name": "Menthol",
            "url": "https://haz-map.com/Agents/5943",
            "category": "agents"
          }
        ]
      },
      "sourcesuses": {
        "original_name": "Sources/Uses",
        "value": "Found in peppermint oil; Used in perfumes and flavors; [Hawley] Peppermint oil contains menthol, menthone, and more than 30 other chemicals. It is widely used as a flavoring agent and herbal remedy. [Haddad, p. 1439]",
        "links": [],
        "cross_references": [
          {
            "type": "name_match",
            "text": "mica",
            "confidence": 1.0,
            "uuid": "433f26f1-c399-4596-b179-ce3843cfd465",
            "name": "Mica",
            "url": "https://haz-map.com/Agents/621",
            "category": "agents"
          },
          {
            "type": "name_match",
            "text": "menthol",
            "confidence": 1.0,
            "uuid": "3997b2ab-a5d2-4a7e-a2c6-4a1ad2e57b50",
            "name": "Menthol",
            "url": "https://haz-map.com/Agents/5943",
            "category": "agents"
          },
          {
            "type": "name_match",
            "text": "menthone",
            "confidence": 1.0,
            "uuid": "4f7f5875-9300-4269-9d39-5474f0993ea0",
            "name": "Menthone",
            "url": "https://haz-map.com/Agents/5944",
            "category": "agents"
          }
        ]
      },
      "comments": {
        "original_name": "Comments",
        "value": "Emergency treatment: \"Peppermint oil\"; [HSDB] Mild skin irritant in rabbits; [RTECS] Peppermint oil causes CNS depression and hypothermia in rat feeding studies; [Haddad, p. 1439]",
        "links": [],
        "cross_references": []
      },
      "biomedical_references": {
        "original_name": "Biomedical References",
        "value": "Search PubMed",
        "links": [
          {
            "text": "Search PubMed",
            "url": "https://www.ncbi.nlm.nih.gov/pubmed?term=Menthyl+acetate%20AND%20human%5Bmh%5D%20AND%20%28Occupational%20Diseases%20%5Bmh%5D%20OR%20Occupational%20Exposure%20%5Bmh%5D%29%20%20AND%20%28tox%5Bsb%5D%29&cmd=search"
          }
        ],
        "cross_references": []
      }
    },
    "exposure_assessment": {
      "vapor_pressure": {
        "original_name": "Vapor Pressure",
        "value": "0.05 mm Hg",
        "links": [],
        "cross_references": []
      },
      "explanatory_notes": {
        "original_name": "Explanatory Notes",
        "value": "The Guide in the Emergency Response Guidebook is for \"Combustible liquid, n.o.s.\"",
        "links": [],
        "cross_references": []
      }
    },
    "adverse_effects": {
      "neurotoxin": {
        "original_name": "Neurotoxin",
        "value": "Other CNS neurotoxin",
        "links": [],
        "cross_references": []
      }
    },
    "diseases_processes_and_activities_linked_to_this_agent": {
      "other_information": {
        "original_name": "Other Information",
        "value": "No other related information on this agent was found.",
        "links": [],
        "cross_references": []
      }
    }
  },
  "cross_references": [
    {
      "type": "name_match",
      "text": "mica",
      "confidence": 1.0,
      "uuid": "433f26f1-c399-4596-b179-ce3843cfd465",
      "name": "Mica",
      "url": "https://haz-map.com/Agents/621",
      "category": "agents"
    },
    {
      "type": "name_match",
      "text": "cyclohexanol",
      "confidence": 1.0,
      "uuid": "24ac6370-b064-46ca-bf9a-8fb5eada1573",
      "name": "Cyclohexanol",
      "url": "https://haz-map.com/Agents/772",
      "category": "agents"
    },
    {
      "type": "name_match",
      "text": "menthol",
      "confidence": 1.0,
      "uuid": "3997b2ab-a5d2-4a7e-a2c6-4a1ad2e57b50",
      "name": "Menthol",
      "url": "https://haz-map.com/Agents/5943",
      "category": "agents"
    },
    {
      "type": "name_match",
      "text": "menthone",
      "confidence": 1.0,
      "uuid": "4f7f5875-9300-4269-9d39-5474f0993ea0",
      "name": "Menthone",
      "url": "https://haz-map.com/Agents/5944",
      "category": "agents"
    },
    {
      "type": "name_match",
      "text": "menthyl acetate",
      "confidence": 1.0,
      "uuid": "236ecf56-2021-4fac-9556-d6c14c853a23",
      "name": "Menthyl acetate",
      "url": "https://haz-map.com/Agents/5945",
      "category": "agents"
    }
  ],
  "all_links": [
    {
      "text": "Search PubMed",
      "url": "https://www.ncbi.nlm.nih.gov/pubmed?term=Menthyl+acetate%20AND%20human%5Bmh%5D%20AND%20%28Occupational%20Diseases%20%5Bmh%5D%20OR%20Occupational%20Exposure%20%5Bmh%5D%29%20%20AND%20%28tox%5Bsb%5D%29&cmd=search"
    }
  ]
}