{
  "metadata": {
    "scraped_from": "https://haz-map.com/Agents/20561",
    "entity_name": "Dibutyl L-tartrate",
    "category": "agents",
    "uuid": "242b3948-d2da-426a-bb48-87fa34d56546",
    "scraped_at": "2025-07-23T22:27:29.246337"
  },
  "parsed_at": "2025-07-24T01:11:06.588984",
  "title": "Dibutyl L-tartrate",
  "sections": {
    "general": {
      "agent_name": {
        "original_name": "Agent Name",
        "value": "Dibutyl L-tartrate",
        "links": [],
        "cross_references": [
          {
            "type": "name_match",
            "text": "dibutyl l-tartrate",
            "confidence": 1.0,
            "uuid": "242b3948-d2da-426a-bb48-87fa34d56546",
            "name": "Dibutyl L-tartrate",
            "url": "https://haz-map.com/Agents/20561",
            "category": "agents"
          }
        ]
      },
      "cas_number": {
        "original_name": "CAS Number",
        "value": "87-92-3",
        "links": [],
        "cross_references": []
      },
      "formula": {
        "original_name": "Formula",
        "value": "C12-H22-O6",
        "links": [],
        "cross_references": []
      },
      "major_category": {
        "original_name": "Major Category",
        "value": "Other Classes",
        "links": [],
        "cross_references": []
      },
      "synonyms": {
        "original_name": "Synonyms",
        "value": "Dibutyl tartrate, (+)-; Butanedioic acid, 2,3-dihydroxy- (2R,3R)-, 1,4-dibutyl ester; Butanedioic acid, 2,3-dihydroxy- (2R,3R)-, dibutyl ester; Dibutyl tartrate; [ChemIDplus]",
        "links": [],
        "cross_references": []
      },
      "category": {
        "original_name": "Category",
        "value": "Esters, Other",
        "links": [],
        "cross_references": []
      },
      "description": {
        "original_name": "Description",
        "value": "Melting point = 22 deg C; [ChemIDplus] Clear colorless liquid; [Acros Organics MSDS]",
        "links": [],
        "cross_references": []
      },
      "comments": {
        "original_name": "Comments",
        "value": "May cause irritation; [Acros Organics MSDS]",
        "links": [],
        "cross_references": []
      },
      "biomedical_references": {
        "original_name": "Biomedical References",
        "value": "Search PubMed",
        "links": [
          {
            "text": "Search PubMed",
            "url": "https://www.ncbi.nlm.nih.gov/pubmed?term=Dibutyl+L-tartrate%20AND%20human%5Bmh%5D%20AND%20%28Occupational%20Diseases%20%5Bmh%5D%20OR%20Occupational%20Exposure%20%5Bmh%5D%29%20%20AND%20%28tox%5Bsb%5D%29&cmd=search"
          }
        ],
        "cross_references": []
      }
    },
    "exposure_assessment": {
      "nfpa": {
        "original_name": "NFPA",
        "value": "high ambient temp required",
        "links": [],
        "cross_references": []
      }
    },
    "diseases_processes_and_activities_linked_to_this_agent": {
      "other_information": {
        "original_name": "Other Information",
        "value": "No other related information on this agent was found.",
        "links": [],
        "cross_references": []
      }
    }
  },
  "cross_references": [
    {
      "type": "name_match",
      "text": "dibutyl l-tartrate",
      "confidence": 1.0,
      "uuid": "242b3948-d2da-426a-bb48-87fa34d56546",
      "name": "Dibutyl L-tartrate",
      "url": "https://haz-map.com/Agents/20561",
      "category": "agents"
    }
  ],
  "all_links": [
    {
      "text": "Search PubMed",
      "url": "https://www.ncbi.nlm.nih.gov/pubmed?term=Dibutyl+L-tartrate%20AND%20human%5Bmh%5D%20AND%20%28Occupational%20Diseases%20%5Bmh%5D%20OR%20Occupational%20Exposure%20%5Bmh%5D%29%20%20AND%20%28tox%5Bsb%5D%29&cmd=search"
    }
  ]
}