{
  "metadata": {
    "scraped_from": "https://haz-map.com/Agents/16109",
    "entity_name": "Piperine",
    "category": "agents",
    "uuid": "245a9062-2fca-4a2a-8537-3ad07837cf44",
    "scraped_at": "2025-07-23T21:34:41.680420"
  },
  "parsed_at": "2025-07-24T01:14:48.312464",
  "title": "Piperine",
  "sections": {
    "general": {
      "agent_name": {
        "original_name": "Agent Name",
        "value": "Piperine",
        "links": [],
        "cross_references": [
          {
            "type": "name_match",
            "text": "piperine",
            "confidence": 1.0,
            "uuid": "245a9062-2fca-4a2a-8537-3ad07837cf44",
            "name": "Piperine",
            "url": "https://haz-map.com/Agents/16109",
            "category": "agents"
          }
        ]
      },
      "cas_number": {
        "original_name": "CAS Number",
        "value": "94-62-2",
        "links": [],
        "cross_references": []
      },
      "formula": {
        "original_name": "Formula",
        "value": "C17-H19-N-O3",
        "links": [],
        "cross_references": []
      },
      "major_category": {
        "original_name": "Major Category",
        "value": "Other Uses",
        "links": [],
        "cross_references": []
      },
      "synonyms": {
        "original_name": "Synonyms",
        "value": "1,3-Benzodioxol-5-yl-1-oxo-2,4-pentadienyl-piperine; 1-(5-(1,3-Benzodioxol-5-yl)-1-oxo-2,4-pentadienyl)piperidine, (E,E)-; 1-Piperoylpiperidine; 1-Piperoylpiperidine, (E,E)-; Bioperine; Piperidine, 1-(5-(1,3-benzodioxol-5-yl)-1-oxo-2,4-pentadienyl)-, (E,E)-; Piperidine, 1-piperoyl-, (E,E)-; Piperin; Piperoylpiperidine; 2,4-Pentadien-1-one, 5-(1,3-benzodioxol-5-yl)-1-(1-piperidinyl)-, (2E,4E)-; Piperidine, 1-((2E,4E)-5-(1,3-benzodioxol-5-yl)-1-oxo-2,4-pentadienyl)-; [ChemIDplus] (2E,4E)-5-(1,3-Benzodioxol-5-yl)-1-(1-piperidinyl)-2,4-pentadien-1-one; 1-[(2E,4E)-5-(1,3-Benzodioxol-5-yl)-1-oxo-2,4-pentadienyl]piperidine; (E,E)-1-Piperoylpiperidine; [Merck Index]",
        "links": [],
        "cross_references": [
          {
            "type": "name_match",
            "text": "piperidine",
            "confidence": 1.0,
            "uuid": "622e458e-e32f-4d3a-80d2-7455291a8a04",
            "name": "Piperidine",
            "url": "https://haz-map.com/Agents/1427",
            "category": "agents"
          },
          {
            "type": "name_match",
            "text": "piperine",
            "confidence": 1.0,
            "uuid": "245a9062-2fca-4a2a-8537-3ad07837cf44",
            "name": "Piperine",
            "url": "https://haz-map.com/Agents/16109",
            "category": "agents"
          }
        ]
      },
      "category": {
        "original_name": "Category",
        "value": "Food Additives",
        "links": [],
        "cross_references": []
      },
      "description": {
        "original_name": "Description",
        "value": "Light yellow to yellow solid with a pungent odor; [Reference #1] Light yellow solid; [Sigma-Aldrich MSDS]",
        "links": [],
        "cross_references": [
          {
            "type": "name_match",
            "text": "ht",
            "confidence": 1.0,
            "uuid": "764df367-8d53-4a11-81a2-31ccfe122a8d",
            "name": "HT",
            "url": "https://haz-map.com/Agents/2168",
            "category": "agents"
          }
        ]
      },
      "sourcesuses": {
        "original_name": "Sources/Uses",
        "value": "Obtained from black pepper and used in brandy (pungent taste) and as an insecticide; [Merck Index] Used as a repellent (unpleasant odor and taste) for dogs, cats, ground hogs, squirrels, skunks, and raccoons; [Reference #1] Used as a flavoring agent; [FDA] \"Piperine is the alkaloid responsible for the pungency of black pepper and long pepper, along with chavicine (an isomer of piperine). It has also been used in some forms of traditional medicine and as an insecticide.\" [Wikipedia]",
        "links": [],
        "cross_references": [
          {
            "type": "name_match",
            "text": "piperine",
            "confidence": 1.0,
            "uuid": "245a9062-2fca-4a2a-8537-3ad07837cf44",
            "name": "Piperine",
            "url": "https://haz-map.com/Agents/16109",
            "category": "agents"
          }
        ]
      },
      "comments": {
        "original_name": "Comments",
        "value": "A mild skin and eye irritant; [Reference #1] Safe when used as a flavoring agent in food; [JECFA] May cause irritation; Harmful by ingestion; [Sigma-Aldrich MSDS]",
        "links": [],
        "cross_references": []
      },
      "reference_link_1": {
        "original_name": "Reference Link #1",
        "value": "EPA Pesticide Chemical Search",
        "links": [
          {
            "text": "EPA Pesticide Chemical Search",
            "url": "https://iaspub.epa.gov/apex/pesticides/f?p=CHEMICALSEARCH:1:"
          }
        ],
        "cross_references": [
          {
            "type": "name_match",
            "text": "mica",
            "confidence": 1.0,
            "uuid": "433f26f1-c399-4596-b179-ce3843cfd465",
            "name": "Mica",
            "url": "https://haz-map.com/Agents/621",
            "category": "agents"
          }
        ]
      },
      "biomedical_references": {
        "original_name": "Biomedical References",
        "value": "Search PubMed",
        "links": [
          {
            "text": "Search PubMed",
            "url": "https://www.ncbi.nlm.nih.gov/pubmed?term=Piperine%20AND%20human%5Bmh%5D%20AND%20%28Occupational%20Diseases%20%5Bmh%5D%20OR%20Occupational%20Exposure%20%5Bmh%5D%29%20%20AND%20%28tox%5Bsb%5D%29&cmd=search"
          }
        ],
        "cross_references": []
      }
    },
    "exposure_assessment": {
      "vapor_pressure": {
        "original_name": "Vapor Pressure",
        "value": "1.3E-07 mm Hg",
        "links": [],
        "cross_references": []
      }
    },
    "diseases_processes_and_activities_linked_to_this_agent": {
      "other_information": {
        "original_name": "Other Information",
        "value": "No other related information on this agent was found.",
        "links": [],
        "cross_references": []
      }
    }
  },
  "cross_references": [
    {
      "type": "name_match",
      "text": "mica",
      "confidence": 1.0,
      "uuid": "433f26f1-c399-4596-b179-ce3843cfd465",
      "name": "Mica",
      "url": "https://haz-map.com/Agents/621",
      "category": "agents"
    },
    {
      "type": "name_match",
      "text": "piperidine",
      "confidence": 1.0,
      "uuid": "622e458e-e32f-4d3a-80d2-7455291a8a04",
      "name": "Piperidine",
      "url": "https://haz-map.com/Agents/1427",
      "category": "agents"
    },
    {
      "type": "name_match",
      "text": "ht",
      "confidence": 1.0,
      "uuid": "764df367-8d53-4a11-81a2-31ccfe122a8d",
      "name": "HT",
      "url": "https://haz-map.com/Agents/2168",
      "category": "agents"
    },
    {
      "type": "name_match",
      "text": "piperine",
      "confidence": 1.0,
      "uuid": "245a9062-2fca-4a2a-8537-3ad07837cf44",
      "name": "Piperine",
      "url": "https://haz-map.com/Agents/16109",
      "category": "agents"
    }
  ],
  "all_links": [
    {
      "text": "EPA Pesticide Chemical Search",
      "url": "https://iaspub.epa.gov/apex/pesticides/f?p=CHEMICALSEARCH:1:"
    },
    {
      "text": "Search PubMed",
      "url": "https://www.ncbi.nlm.nih.gov/pubmed?term=Piperine%20AND%20human%5Bmh%5D%20AND%20%28Occupational%20Diseases%20%5Bmh%5D%20OR%20Occupational%20Exposure%20%5Bmh%5D%29%20%20AND%20%28tox%5Bsb%5D%29&cmd=search"
    }
  ]
}