{
  "metadata": {
    "scraped_from": "https://haz-map.com/Agents/2748",
    "entity_name": "1,2-Dichloro-1,1,2-trifluoroethane",
    "category": "agents",
    "uuid": "246a2e82-3ef5-4d82-8edd-7b409a801644",
    "scraped_at": "2025-07-23T19:18:29.261934"
  },
  "parsed_at": "2025-07-24T00:54:39.625219",
  "title": "1,2-Dichloro-1,1,2-trifluoroethane",
  "sections": {
    "general": {
      "agent_name": {
        "original_name": "Agent Name",
        "value": "1,2-Dichloro-1,1,2-trifluoroethane",
        "links": [],
        "cross_references": [
          {
            "type": "name_match",
            "text": "ethane",
            "confidence": 1.0,
            "uuid": "5162cc8c-dfb9-4060-81ac-38a8cec7f9dd",
            "name": "Ethane",
            "url": "https://haz-map.com/Agents/1075",
            "category": "agents"
          },
          {
            "type": "name_match",
            "text": "1,2-dichloro-1,1,2-trifluoroethane",
            "confidence": 1.0,
            "uuid": "246a2e82-3ef5-4d82-8edd-7b409a801644",
            "name": "1,2-Dichloro-1,1,2-trifluoroethane",
            "url": "https://haz-map.com/Agents/2748",
            "category": "agents"
          },
          {
            "type": "name_match",
            "text": "dichloro-1,1,2-trifluoroethane",
            "confidence": 1.0,
            "uuid": "a0f6bc0b-ffef-4c50-bce1-922981b1f733",
            "name": "Dichloro-1,1,2-trifluoroethane",
            "url": "https://haz-map.com/Agents/4769",
            "category": "agents"
          },
          {
            "type": "name_match",
            "text": "1,1,2-trifluoroethane",
            "confidence": 1.0,
            "uuid": "ed8b5c36-adfe-4146-a65a-857b2fd1281c",
            "name": "1,1,2-Trifluoroethane",
            "url": "https://haz-map.com/Agents/19161",
            "category": "agents"
          },
          {
            "type": "name_match",
            "text": "fluoroethane",
            "confidence": 1.0,
            "uuid": "6608cb94-16b3-438d-8d0f-88e816195bd4",
            "name": "Fluoroethane",
            "url": "https://haz-map.com/Agents/20780",
            "category": "agents"
          }
        ]
      },
      "cas_number": {
        "original_name": "CAS Number",
        "value": "354-23-4",
        "links": [],
        "cross_references": []
      },
      "formula": {
        "original_name": "Formula",
        "value": "C2-H-Cl2-F3",
        "links": [],
        "cross_references": []
      },
      "major_category": {
        "original_name": "Major Category",
        "value": "Solvents",
        "links": [],
        "cross_references": []
      },
      "synonyms": {
        "original_name": "Synonyms",
        "value": "1,1,2-Trifluoro-1,2-dichloroethane; CFC 123a; F 123a; HCFC 123a; R 123a; Ethane, 1,2-dichloro-1,1,2-trifluoro-; [ChemIDplus]",
        "links": [],
        "cross_references": [
          {
            "type": "name_match",
            "text": "ethane",
            "confidence": 1.0,
            "uuid": "5162cc8c-dfb9-4060-81ac-38a8cec7f9dd",
            "name": "Ethane",
            "url": "https://haz-map.com/Agents/1075",
            "category": "agents"
          }
        ]
      },
      "category": {
        "original_name": "Category",
        "value": "Chlorofluorocarbons",
        "links": [],
        "cross_references": [
          {
            "type": "name_match",
            "text": "chlorofluorocarbons",
            "confidence": 1.0,
            "uuid": "c53ddd7f-3e80-4621-be68-94100ed642c8",
            "name": "CHLOROFLUOROCARBONS",
            "url": "https://haz-map.com/Agents/706",
            "category": "agents"
          },
          {
            "type": "name_match",
            "text": "carbon",
            "confidence": 1.0,
            "uuid": "b53f8815-ee80-40ef-b4aa-3b000e17dab5",
            "name": "Carbon",
            "url": "https://haz-map.com/Agents/1891",
            "category": "agents"
          }
        ]
      },
      "description": {
        "original_name": "Description",
        "value": "Colorless gas; [CAMEO] Colorless liquid; [MSDSonline]",
        "links": [],
        "cross_references": []
      },
      "sourcesuses": {
        "original_name": "Sources/Uses",
        "value": "HCFCs: Used as refrigerants, blowing agents, cleaning agents, and fire extinguishing agents (CFC alternatives); [HSDB]",
        "links": [],
        "cross_references": []
      },
      "comments": {
        "original_name": "Comments",
        "value": "In concentrations >18,500 ppm, acts as general anesthetic in rat inhalation studies; [RTECS] May cause irritation; Inhalation of high concentrations can cause CNS depression; Evaporating liquid can cause frostbite; [MSDSonline] See \"CHLOROFLUOROCARBONS.\"",
        "links": [],
        "cross_references": [
          {
            "type": "name_match",
            "text": "chlorofluorocarbons",
            "confidence": 1.0,
            "uuid": "c53ddd7f-3e80-4621-be68-94100ed642c8",
            "name": "CHLOROFLUOROCARBONS",
            "url": "https://haz-map.com/Agents/706",
            "category": "agents"
          },
          {
            "type": "name_match",
            "text": "carbon",
            "confidence": 1.0,
            "uuid": "b53f8815-ee80-40ef-b4aa-3b000e17dab5",
            "name": "Carbon",
            "url": "https://haz-map.com/Agents/1891",
            "category": "agents"
          }
        ]
      },
      "biomedical_references": {
        "original_name": "Biomedical References",
        "value": "Search PubMed",
        "links": [
          {
            "text": "Search PubMed",
            "url": "https://www.ncbi.nlm.nih.gov/pubmed?term=1%2c2-Dichloro-1%2c1%2c2-trifluoroethane%20AND%20human%5Bmh%5D%20AND%20%28Occupational%20Diseases%20%5Bmh%5D%20OR%20Occupational%20Exposure%20%5Bmh%5D%29%20%20AND%20%28tox%5Bsb%5D%29&cmd=search"
          }
        ],
        "cross_references": []
      }
    },
    "exposure_assessment": {
      "vapor_pressure": {
        "original_name": "Vapor Pressure",
        "value": "620 mm Hg",
        "links": [],
        "cross_references": []
      },
      "lethal_concentration": {
        "original_name": "Lethal Concentration",
        "value": "LCLo (mice) = 150,000 ppm/2 min",
        "links": [],
        "cross_references": []
      }
    },
    "adverse_effects": {
      "neurotoxin": {
        "original_name": "Neurotoxin",
        "value": "Acute solvent syndrome",
        "links": [],
        "cross_references": []
      }
    },
    "diseases_processes_and_activities_linked_to_this_agent": {
      "diseases": {
        "original_name": "Diseases",
        "value": "Occupational diseases associated with exposure to this agent: Solvents, acute toxic effect",
        "links": [
          {
            "text": "Solvents, acute toxic effect",
            "url": "https://haz-map.com/Diseases/326"
          }
        ],
        "cross_references": [
          {
            "type": "url_match",
            "text": "Solvents, acute toxic effect",
            "url": "https://haz-map.com/Diseases/326",
            "confidence": 1.0,
            "uuid": "581e90e3-9d0c-45f0-aa6c-3468c28da129",
            "name": "Solvents, acute toxic effect",
            "category": "diseases"
          }
        ]
      }
    }
  },
  "cross_references": [
    {
      "type": "url_match",
      "text": "Solvents, acute toxic effect",
      "url": "https://haz-map.com/Diseases/326",
      "confidence": 1.0,
      "uuid": "581e90e3-9d0c-45f0-aa6c-3468c28da129",
      "name": "Solvents, acute toxic effect",
      "category": "diseases"
    },
    {
      "type": "name_match",
      "text": "chlorofluorocarbons",
      "confidence": 1.0,
      "uuid": "c53ddd7f-3e80-4621-be68-94100ed642c8",
      "name": "CHLOROFLUOROCARBONS",
      "url": "https://haz-map.com/Agents/706",
      "category": "agents"
    },
    {
      "type": "name_match",
      "text": "ethane",
      "confidence": 1.0,
      "uuid": "5162cc8c-dfb9-4060-81ac-38a8cec7f9dd",
      "name": "Ethane",
      "url": "https://haz-map.com/Agents/1075",
      "category": "agents"
    },
    {
      "type": "name_match",
      "text": "carbon",
      "confidence": 1.0,
      "uuid": "b53f8815-ee80-40ef-b4aa-3b000e17dab5",
      "name": "Carbon",
      "url": "https://haz-map.com/Agents/1891",
      "category": "agents"
    },
    {
      "type": "name_match",
      "text": "1,2-dichloro-1,1,2-trifluoroethane",
      "confidence": 1.0,
      "uuid": "246a2e82-3ef5-4d82-8edd-7b409a801644",
      "name": "1,2-Dichloro-1,1,2-trifluoroethane",
      "url": "https://haz-map.com/Agents/2748",
      "category": "agents"
    },
    {
      "type": "name_match",
      "text": "dichloro-1,1,2-trifluoroethane",
      "confidence": 1.0,
      "uuid": "a0f6bc0b-ffef-4c50-bce1-922981b1f733",
      "name": "Dichloro-1,1,2-trifluoroethane",
      "url": "https://haz-map.com/Agents/4769",
      "category": "agents"
    },
    {
      "type": "name_match",
      "text": "1,1,2-trifluoroethane",
      "confidence": 1.0,
      "uuid": "ed8b5c36-adfe-4146-a65a-857b2fd1281c",
      "name": "1,1,2-Trifluoroethane",
      "url": "https://haz-map.com/Agents/19161",
      "category": "agents"
    },
    {
      "type": "name_match",
      "text": "fluoroethane",
      "confidence": 1.0,
      "uuid": "6608cb94-16b3-438d-8d0f-88e816195bd4",
      "name": "Fluoroethane",
      "url": "https://haz-map.com/Agents/20780",
      "category": "agents"
    }
  ],
  "all_links": [
    {
      "text": "Search PubMed",
      "url": "https://www.ncbi.nlm.nih.gov/pubmed?term=1%2c2-Dichloro-1%2c1%2c2-trifluoroethane%20AND%20human%5Bmh%5D%20AND%20%28Occupational%20Diseases%20%5Bmh%5D%20OR%20Occupational%20Exposure%20%5Bmh%5D%29%20%20AND%20%28tox%5Bsb%5D%29&cmd=search"
    },
    {
      "text": "Solvents, acute toxic effect",
      "url": "https://haz-map.com/Diseases/326"
    }
  ]
}