{
  "metadata": {
    "scraped_from": "https://haz-map.com/Agents/19943",
    "entity_name": "3-Methylbiphenyl",
    "category": "agents",
    "uuid": "247019f4-56f5-4902-b364-94b369428afa",
    "scraped_at": "2025-07-23T22:15:50.871692"
  },
  "parsed_at": "2025-07-24T01:05:50.434105",
  "title": "3-Methylbiphenyl",
  "sections": {
    "general": {
      "agent_name": {
        "original_name": "Agent Name",
        "value": "3-Methylbiphenyl",
        "links": [],
        "cross_references": [
          {
            "type": "name_match",
            "text": "biphenyl",
            "confidence": 1.0,
            "uuid": "740f90cb-888a-4a3b-b9ae-30768927fec2",
            "name": "Biphenyl",
            "url": "https://haz-map.com/Agents/306",
            "category": "agents"
          },
          {
            "type": "name_match",
            "text": "methylbiphenyl",
            "confidence": 1.0,
            "uuid": "18ac5f04-71c8-44e0-8a4e-e23d6fe5b55f",
            "name": "Methylbiphenyl",
            "url": "https://haz-map.com/Agents/6073",
            "category": "agents"
          },
          {
            "type": "name_match",
            "text": "3-methylbiphenyl",
            "confidence": 1.0,
            "uuid": "247019f4-56f5-4902-b364-94b369428afa",
            "name": "3-Methylbiphenyl",
            "url": "https://haz-map.com/Agents/19943",
            "category": "agents"
          }
        ]
      },
      "cas_number": {
        "original_name": "CAS Number",
        "value": "643-93-6",
        "links": [],
        "cross_references": []
      },
      "formula": {
        "original_name": "Formula",
        "value": "C13-H12",
        "links": [],
        "cross_references": []
      },
      "major_category": {
        "original_name": "Major Category",
        "value": "Other Classes",
        "links": [],
        "cross_references": []
      },
      "synonyms": {
        "original_name": "Synonyms",
        "value": "1,1'-Biphenyl, 3-methyl-; [ChemIDplus] 3-Phenyltoluene; [Sigma-Aldrich MSDS]",
        "links": [],
        "cross_references": [
          {
            "type": "name_match",
            "text": "toluene",
            "confidence": 1.0,
            "uuid": "0a34d5de-e924-4c47-aff5-7ae8e48c6772",
            "name": "Toluene",
            "url": "https://haz-map.com/Agents/83",
            "category": "agents"
          },
          {
            "type": "name_match",
            "text": "biphenyl",
            "confidence": 1.0,
            "uuid": "740f90cb-888a-4a3b-b9ae-30768927fec2",
            "name": "Biphenyl",
            "url": "https://haz-map.com/Agents/306",
            "category": "agents"
          }
        ]
      },
      "category": {
        "original_name": "Category",
        "value": "Aromatic Hydrocarbons",
        "links": [],
        "cross_references": [
          {
            "type": "name_match",
            "text": "carbon",
            "confidence": 1.0,
            "uuid": "b53f8815-ee80-40ef-b4aa-3b000e17dab5",
            "name": "Carbon",
            "url": "https://haz-map.com/Agents/1891",
            "category": "agents"
          },
          {
            "type": "fuzzy_match",
            "text": "aromatic hydrocarbons",
            "matched_name": "Aromatic hydrocarbons, C9-C11",
            "confidence": 0.7509578544061303,
            "uuid": "1e86d79b-784d-40c4-8412-39a4432a7a75",
            "category": "agents",
            "url": "https://haz-map.com/Agents/20258"
          },
          {
            "type": "fuzzy_match",
            "text": "hydrocarbons",
            "matched_name": "Hydrocarbons, C>3",
            "confidence": 0.7100840336134454,
            "uuid": "8eaa37ac-3931-44e4-9242-2734127fd661",
            "category": "agents",
            "url": "https://haz-map.com/Agents/14795"
          }
        ]
      },
      "description": {
        "original_name": "Description",
        "value": "Liquid; mp = 4-5 deg C; [Sigma-Aldrich MSDS]",
        "links": [],
        "cross_references": []
      },
      "comments": {
        "original_name": "Comments",
        "value": "May cause irritation; [Sigma-Aldrich MSDS] See \"Biphenyl.\"",
        "links": [],
        "cross_references": [
          {
            "type": "name_match",
            "text": "biphenyl",
            "confidence": 1.0,
            "uuid": "740f90cb-888a-4a3b-b9ae-30768927fec2",
            "name": "Biphenyl",
            "url": "https://haz-map.com/Agents/306",
            "category": "agents"
          }
        ]
      },
      "biomedical_references": {
        "original_name": "Biomedical References",
        "value": "Search PubMed",
        "links": [
          {
            "text": "Search PubMed",
            "url": "https://www.ncbi.nlm.nih.gov/pubmed?term=3-Methylbiphenyl%20AND%20human%5Bmh%5D%20AND%20%28Occupational%20Diseases%20%5Bmh%5D%20OR%20Occupational%20Exposure%20%5Bmh%5D%29%20%20AND%20%28tox%5Bsb%5D%29&cmd=search"
          }
        ],
        "cross_references": []
      }
    },
    "exposure_assessment": {
      "vapor_pressure": {
        "original_name": "Vapor Pressure",
        "value": "0.00796 mm Hg",
        "links": [],
        "cross_references": []
      }
    },
    "diseases_processes_and_activities_linked_to_this_agent": {
      "other_information": {
        "original_name": "Other Information",
        "value": "No other related information on this agent was found.",
        "links": [],
        "cross_references": []
      }
    }
  },
  "cross_references": [
    {
      "type": "name_match",
      "text": "toluene",
      "confidence": 1.0,
      "uuid": "0a34d5de-e924-4c47-aff5-7ae8e48c6772",
      "name": "Toluene",
      "url": "https://haz-map.com/Agents/83",
      "category": "agents"
    },
    {
      "type": "name_match",
      "text": "biphenyl",
      "confidence": 1.0,
      "uuid": "740f90cb-888a-4a3b-b9ae-30768927fec2",
      "name": "Biphenyl",
      "url": "https://haz-map.com/Agents/306",
      "category": "agents"
    },
    {
      "type": "name_match",
      "text": "carbon",
      "confidence": 1.0,
      "uuid": "b53f8815-ee80-40ef-b4aa-3b000e17dab5",
      "name": "Carbon",
      "url": "https://haz-map.com/Agents/1891",
      "category": "agents"
    },
    {
      "type": "name_match",
      "text": "methylbiphenyl",
      "confidence": 1.0,
      "uuid": "18ac5f04-71c8-44e0-8a4e-e23d6fe5b55f",
      "name": "Methylbiphenyl",
      "url": "https://haz-map.com/Agents/6073",
      "category": "agents"
    },
    {
      "type": "name_match",
      "text": "3-methylbiphenyl",
      "confidence": 1.0,
      "uuid": "247019f4-56f5-4902-b364-94b369428afa",
      "name": "3-Methylbiphenyl",
      "url": "https://haz-map.com/Agents/19943",
      "category": "agents"
    },
    {
      "type": "fuzzy_match",
      "text": "aromatic hydrocarbons",
      "matched_name": "Aromatic hydrocarbons, C9-C11",
      "confidence": 0.7509578544061303,
      "uuid": "1e86d79b-784d-40c4-8412-39a4432a7a75",
      "category": "agents",
      "url": "https://haz-map.com/Agents/20258"
    },
    {
      "type": "fuzzy_match",
      "text": "hydrocarbons",
      "matched_name": "Hydrocarbons, C>3",
      "confidence": 0.7100840336134454,
      "uuid": "8eaa37ac-3931-44e4-9242-2734127fd661",
      "category": "agents",
      "url": "https://haz-map.com/Agents/14795"
    }
  ],
  "all_links": [
    {
      "text": "Search PubMed",
      "url": "https://www.ncbi.nlm.nih.gov/pubmed?term=3-Methylbiphenyl%20AND%20human%5Bmh%5D%20AND%20%28Occupational%20Diseases%20%5Bmh%5D%20OR%20Occupational%20Exposure%20%5Bmh%5D%29%20%20AND%20%28tox%5Bsb%5D%29&cmd=search"
    }
  ]
}