{
  "metadata": {
    "scraped_from": "https://haz-map.com/Agents/6680",
    "entity_name": "Tri-p-cresyl phosphate",
    "category": "agents",
    "uuid": "249f8474-cd92-4ce1-b811-ed8f7c4fda4a",
    "scraped_at": "2025-07-23T20:04:25.673649"
  },
  "parsed_at": "2025-07-24T01:06:41.332732",
  "title": "Tri-p-cresyl phosphate",
  "sections": {
    "general": {
      "agent_name": {
        "original_name": "Agent Name",
        "value": "Tri-p-cresyl phosphate",
        "links": [],
        "cross_references": [
          {
            "type": "name_match",
            "text": "tri-p-cresyl phosphate",
            "confidence": 1.0,
            "uuid": "249f8474-cd92-4ce1-b811-ed8f7c4fda4a",
            "name": "Tri-p-cresyl phosphate",
            "url": "https://haz-map.com/Agents/6680",
            "category": "agents"
          }
        ]
      },
      "alternative_name": {
        "original_name": "Alternative Name",
        "value": "Triparacresyl phosphate",
        "links": [],
        "cross_references": []
      },
      "cas_number": {
        "original_name": "CAS Number",
        "value": "78-32-0",
        "links": [],
        "cross_references": []
      },
      "formula": {
        "original_name": "Formula",
        "value": "C21-H21-O4-P",
        "links": [],
        "cross_references": []
      },
      "major_category": {
        "original_name": "Major Category",
        "value": "Other Classes",
        "links": [],
        "cross_references": []
      },
      "synonyms": {
        "original_name": "Synonyms",
        "value": "Phosphoric acid, tri(4-tolyl)ester; Phosphoric acid, tri-p-tolyl ester; Phosphoric acid, tris(4-methylphenyl) ester; TPC; TPCP; Tri-p-tolyl phosphate; [ChemIDplus]",
        "links": [],
        "cross_references": [
          {
            "type": "name_match",
            "text": "phosphoric acid",
            "confidence": 1.0,
            "uuid": "9049e74c-22b3-4fb1-8e7f-53f17c0ec74a",
            "name": "Phosphoric acid",
            "url": "https://haz-map.com/Agents/595",
            "category": "agents"
          }
        ]
      },
      "category": {
        "original_name": "Category",
        "value": "Organophosphates, Other",
        "links": [],
        "cross_references": [
          {
            "type": "name_match",
            "text": "organophosphates",
            "confidence": 1.0,
            "uuid": "8d2d239c-20f9-4f02-9916-5e7667b9990c",
            "name": "ORGANOPHOSPHATES",
            "url": "https://haz-map.com/Agents/702",
            "category": "agents"
          }
        ]
      },
      "description": {
        "original_name": "Description",
        "value": "Solid; [HSDB] White to light brown powder; [MSDSonline]",
        "links": [],
        "cross_references": [
          {
            "type": "name_match",
            "text": "ht",
            "confidence": 1.0,
            "uuid": "764df367-8d53-4a11-81a2-31ccfe122a8d",
            "name": "HT",
            "url": "https://haz-map.com/Agents/2168",
            "category": "agents"
          }
        ]
      },
      "sourcesuses": {
        "original_name": "Sources/Uses",
        "value": "Used as flame retardant; [HSDB] Used in isomeric mixture known as Tricresyl phosphate (CAS # 1330-78-5);",
        "links": [],
        "cross_references": []
      },
      "comments": {
        "original_name": "Comments",
        "value": "A metabolite of the ortho isomer (TOCP) caused \"ginger jake paralysis,\" a motor neuropathy. See \"Triorthocresyl phosphate,\" Tri-m-cresyl phosphate,\" and \"Tricresyl phosphate (mixed isomers).\" TLV Basis includes adrenal gland and female reproductive system damage. [ACGIH TLVs and BEIs]",
        "links": [],
        "cross_references": [
          {
            "type": "name_match",
            "text": "neuropathy",
            "confidence": 1.0,
            "uuid": "8708368f-f68b-4a51-b1ea-01982070ed28",
            "name": "neuropathy",
            "url": "https://haz-map.com/Findings/85",
            "category": "findings"
          },
          {
            "type": "name_match",
            "text": "triorthocresyl phosphate",
            "confidence": 1.0,
            "uuid": "23e4ea47-015f-4ee8-ab13-1631915e2a4e",
            "name": "Triorthocresyl phosphate",
            "url": "https://haz-map.com/Agents/669",
            "category": "agents"
          },
          {
            "type": "name_match",
            "text": "tricresyl phosphate (mixed isomers)",
            "confidence": 1.0,
            "uuid": "de49b7a7-e1be-4839-a4be-574d9aaf7677",
            "name": "Tricresyl phosphate (mixed isomers)",
            "url": "https://haz-map.com/Agents/1784",
            "category": "agents"
          },
          {
            "type": "name_match",
            "text": "tri-m-cresyl phosphate",
            "confidence": 1.0,
            "uuid": "a4a7e28a-2ec4-43b9-a62f-61c652d25590",
            "name": "Tri-m-cresyl phosphate",
            "url": "https://haz-map.com/Agents/6678",
            "category": "agents"
          }
        ]
      },
      "biomedical_references": {
        "original_name": "Biomedical References",
        "value": "Search PubMed",
        "links": [
          {
            "text": "Search PubMed",
            "url": "https://www.ncbi.nlm.nih.gov/pubmed?term=Tri-p-cresyl+phosphate%20AND%20human%5Bmh%5D%20AND%20%28Occupational%20Diseases%20%5Bmh%5D%20OR%20Occupational%20Exposure%20%5Bmh%5D%29%20%20AND%20%28tox%5Bsb%5D%29&cmd=search"
          }
        ],
        "cross_references": []
      }
    },
    "exposure_assessment": {
      "vapor_pressure": {
        "original_name": "Vapor Pressure",
        "value": "3.49E-08 mm Hg",
        "links": [],
        "cross_references": []
      },
      "explanatory_notes": {
        "original_name": "Explanatory Notes",
        "value": "See 2024 \"Notice of Intended Changes\" for TLV; [ACGIH TLVs and BEIs]",
        "links": [],
        "cross_references": []
      }
    },
    "adverse_effects": {
      "reproductive_toxin": {
        "original_name": "Reproductive Toxin",
        "value": "Yes",
        "links": [],
        "cross_references": []
      }
    },
    "diseases_processes_and_activities_linked_to_this_agent": {
      "other_information": {
        "original_name": "Other Information",
        "value": "No other related information on this agent was found.",
        "links": [],
        "cross_references": []
      }
    }
  },
  "cross_references": [
    {
      "type": "name_match",
      "text": "neuropathy",
      "confidence": 1.0,
      "uuid": "8708368f-f68b-4a51-b1ea-01982070ed28",
      "name": "neuropathy",
      "url": "https://haz-map.com/Findings/85",
      "category": "findings"
    },
    {
      "type": "name_match",
      "text": "phosphoric acid",
      "confidence": 1.0,
      "uuid": "9049e74c-22b3-4fb1-8e7f-53f17c0ec74a",
      "name": "Phosphoric acid",
      "url": "https://haz-map.com/Agents/595",
      "category": "agents"
    },
    {
      "type": "name_match",
      "text": "triorthocresyl phosphate",
      "confidence": 1.0,
      "uuid": "23e4ea47-015f-4ee8-ab13-1631915e2a4e",
      "name": "Triorthocresyl phosphate",
      "url": "https://haz-map.com/Agents/669",
      "category": "agents"
    },
    {
      "type": "name_match",
      "text": "organophosphates",
      "confidence": 1.0,
      "uuid": "8d2d239c-20f9-4f02-9916-5e7667b9990c",
      "name": "ORGANOPHOSPHATES",
      "url": "https://haz-map.com/Agents/702",
      "category": "agents"
    },
    {
      "type": "name_match",
      "text": "tricresyl phosphate (mixed isomers)",
      "confidence": 1.0,
      "uuid": "de49b7a7-e1be-4839-a4be-574d9aaf7677",
      "name": "Tricresyl phosphate (mixed isomers)",
      "url": "https://haz-map.com/Agents/1784",
      "category": "agents"
    },
    {
      "type": "name_match",
      "text": "ht",
      "confidence": 1.0,
      "uuid": "764df367-8d53-4a11-81a2-31ccfe122a8d",
      "name": "HT",
      "url": "https://haz-map.com/Agents/2168",
      "category": "agents"
    },
    {
      "type": "name_match",
      "text": "tri-m-cresyl phosphate",
      "confidence": 1.0,
      "uuid": "a4a7e28a-2ec4-43b9-a62f-61c652d25590",
      "name": "Tri-m-cresyl phosphate",
      "url": "https://haz-map.com/Agents/6678",
      "category": "agents"
    },
    {
      "type": "name_match",
      "text": "tri-p-cresyl phosphate",
      "confidence": 1.0,
      "uuid": "249f8474-cd92-4ce1-b811-ed8f7c4fda4a",
      "name": "Tri-p-cresyl phosphate",
      "url": "https://haz-map.com/Agents/6680",
      "category": "agents"
    }
  ],
  "all_links": [
    {
      "text": "Search PubMed",
      "url": "https://www.ncbi.nlm.nih.gov/pubmed?term=Tri-p-cresyl+phosphate%20AND%20human%5Bmh%5D%20AND%20%28Occupational%20Diseases%20%5Bmh%5D%20OR%20Occupational%20Exposure%20%5Bmh%5D%29%20%20AND%20%28tox%5Bsb%5D%29&cmd=search"
    }
  ]
}