{
  "metadata": {
    "scraped_from": "https://haz-map.com/Agents/17819",
    "entity_name": "Ethoxylated-2,4,7,9-tetramethyl-5-decyne-4,7-diol",
    "category": "agents",
    "uuid": "24d5a1d8-dd3f-414d-88b6-3a597dbb164a",
    "scraped_at": "2025-07-23T21:49:51.671774"
  },
  "parsed_at": "2025-07-24T01:13:34.684065",
  "title": "Ethoxylated-2,4,7,9-tetramethyl-5-decyne-4,7-diol",
  "sections": {
    "general": {
      "agent_name": {
        "original_name": "Agent Name",
        "value": "Ethoxylated-2,4,7,9-tetramethyl-5-decyne-4,7-diol",
        "links": [],
        "cross_references": [
          {
            "type": "name_match",
            "text": "2,4,7,9-tetramethyl-5-decyne-4,7-diol",
            "confidence": 1.0,
            "uuid": "dd5aa393-35fd-41f5-95db-0b66c528eb16",
            "name": "2,4,7,9-Tetramethyl-5-decyne-4,7-diol",
            "url": "https://haz-map.com/Agents/2994",
            "category": "agents"
          },
          {
            "type": "name_match",
            "text": "ethoxylated-2,4,7,9-tetramethyl-5-decyne-4,7-diol",
            "confidence": 1.0,
            "uuid": "24d5a1d8-dd3f-414d-88b6-3a597dbb164a",
            "name": "Ethoxylated-2,4,7,9-tetramethyl-5-decyne-4,7-diol",
            "url": "https://haz-map.com/Agents/17819",
            "category": "agents"
          }
        ]
      },
      "cas_number": {
        "original_name": "CAS Number",
        "value": "9014-85-1",
        "links": [],
        "cross_references": []
      },
      "formula": {
        "original_name": "Formula",
        "value": "(C2-H4-O)mult-(C2-H4-O)mult-C14-H26-O2",
        "links": [],
        "cross_references": []
      },
      "major_category": {
        "original_name": "Major Category",
        "value": "Plastics & Rubber",
        "links": [],
        "cross_references": []
      },
      "synonyms": {
        "original_name": "Synonyms",
        "value": "Poly(oxy-1,2-ethanediyl), alpha,alpha'-(1,4-dimethyl-1,4-bis(2-methylpropyl)-2-butyne-1,4-diyl)bis(omega-hydroxy-; Polyoxyethylene glycol ether with 1,4-diisobutyl-1,4-dimethylbutynediol (2:1); Polyethylene glycol 2,4,7,9-tetramethyl-5-decyne-4,7-diyl diether; [ChemIDplus] Polyoxyethylene* 2,4,7,9-tetramethyl-5-decyne-4,7-diol *(3.5-30 moles); [EPA] 2,4,7,9-Tetramethyl-5-decyne-4,7-diol ethylene oxide adduct; [FDA] Ethylene oxide adducts with 2,4,7,9-tetramethyl-5-decynediol; [RTECS] SURFYNOL 440 SURFACTANT; [Air Products MSDS]",
        "links": [],
        "cross_references": [
          {
            "type": "name_match",
            "text": "ethylene oxide",
            "confidence": 1.0,
            "uuid": "df29ee36-6345-4c09-b2c3-e3501b1449ec",
            "name": "Ethylene oxide",
            "url": "https://haz-map.com/Agents/21",
            "category": "agents"
          },
          {
            "type": "name_match",
            "text": "ethylene glycol",
            "confidence": 1.0,
            "uuid": "99589035-d71c-415a-914c-81c7a166be11",
            "name": "Ethylene glycol",
            "url": "https://haz-map.com/Agents/488",
            "category": "agents"
          },
          {
            "type": "name_match",
            "text": "polyethylene",
            "confidence": 1.0,
            "uuid": "49cd0ad9-abe0-4650-bb5b-a2e2e68f0cae",
            "name": "Polyethylene",
            "url": "https://haz-map.com/Agents/850",
            "category": "agents"
          },
          {
            "type": "name_match",
            "text": "ethane",
            "confidence": 1.0,
            "uuid": "5162cc8c-dfb9-4060-81ac-38a8cec7f9dd",
            "name": "Ethane",
            "url": "https://haz-map.com/Agents/1075",
            "category": "agents"
          },
          {
            "type": "name_match",
            "text": "ethylene",
            "confidence": 1.0,
            "uuid": "958eacc0-5135-4b62-bb93-6df972bf552f",
            "name": "Ethylene",
            "url": "https://haz-map.com/Agents/1076",
            "category": "agents"
          },
          {
            "type": "name_match",
            "text": "butynediol",
            "confidence": 1.0,
            "uuid": "c132a117-15c0-498f-baf5-71b5224eebab",
            "name": "Butynediol",
            "url": "https://haz-map.com/Agents/2813",
            "category": "agents"
          },
          {
            "type": "name_match",
            "text": "2,4,7,9-tetramethyl-5-decyne-4,7-diol",
            "confidence": 1.0,
            "uuid": "dd5aa393-35fd-41f5-95db-0b66c528eb16",
            "name": "2,4,7,9-Tetramethyl-5-decyne-4,7-diol",
            "url": "https://haz-map.com/Agents/2994",
            "category": "agents"
          },
          {
            "type": "name_match",
            "text": "polyethylene glycol",
            "confidence": 1.0,
            "uuid": "f5b55322-38d4-428d-93e6-34611f9fedce",
            "name": "Polyethylene glycol",
            "url": "https://haz-map.com/Agents/6752",
            "category": "agents"
          },
          {
            "type": "name_match",
            "text": "2-butyne",
            "confidence": 1.0,
            "uuid": "d604893d-f414-428f-af44-ba926e496aa9",
            "name": "2-Butyne",
            "url": "https://haz-map.com/Agents/8620",
            "category": "agents"
          }
        ]
      },
      "category": {
        "original_name": "Category",
        "value": "Polymers",
        "links": [],
        "cross_references": []
      },
      "description": {
        "original_name": "Description",
        "value": "Light yellow liquid with a mild odor; [Air Products MSDS]",
        "links": [],
        "cross_references": [
          {
            "type": "name_match",
            "text": "ht",
            "confidence": 1.0,
            "uuid": "764df367-8d53-4a11-81a2-31ccfe122a8d",
            "name": "HT",
            "url": "https://haz-map.com/Agents/2168",
            "category": "agents"
          }
        ]
      },
      "sourcesuses": {
        "original_name": "Sources/Uses",
        "value": "Used as a surfactant; [Air Products MSDS] Permitted for use as an inert ingredient in non-food pesticide products; [EPA]",
        "links": [],
        "cross_references": []
      },
      "comments": {
        "original_name": "Comments",
        "value": "An eye and mild skin irritant; Targets the eyes and liver; [Air Products MSDS]",
        "links": [],
        "cross_references": []
      },
      "biomedical_references": {
        "original_name": "Biomedical References",
        "value": "Search PubMed",
        "links": [
          {
            "text": "Search PubMed",
            "url": "https://www.ncbi.nlm.nih.gov/pubmed?term=Ethoxylated-2%2c4%2c7%2c9-tetramethyl-5-decyne-4%2c7-diol%20AND%20human%5Bmh%5D%20AND%20%28Occupational%20Diseases%20%5Bmh%5D%20OR%20Occupational%20Exposure%20%5Bmh%5D%29%20%20AND%20%28tox%5Bsb%5D%29&cmd=search"
          }
        ],
        "cross_references": []
      }
    },
    "exposure_assessment": {
      "vapor_pressure": {
        "original_name": "Vapor Pressure",
        "value": "0.26 mm Hg",
        "links": [],
        "cross_references": []
      }
    },
    "diseases_processes_and_activities_linked_to_this_agent": {
      "other_information": {
        "original_name": "Other Information",
        "value": "No other related information on this agent was found.",
        "links": [],
        "cross_references": []
      }
    }
  },
  "cross_references": [
    {
      "type": "name_match",
      "text": "ethylene oxide",
      "confidence": 1.0,
      "uuid": "df29ee36-6345-4c09-b2c3-e3501b1449ec",
      "name": "Ethylene oxide",
      "url": "https://haz-map.com/Agents/21",
      "category": "agents"
    },
    {
      "type": "name_match",
      "text": "ethylene glycol",
      "confidence": 1.0,
      "uuid": "99589035-d71c-415a-914c-81c7a166be11",
      "name": "Ethylene glycol",
      "url": "https://haz-map.com/Agents/488",
      "category": "agents"
    },
    {
      "type": "name_match",
      "text": "polyethylene",
      "confidence": 1.0,
      "uuid": "49cd0ad9-abe0-4650-bb5b-a2e2e68f0cae",
      "name": "Polyethylene",
      "url": "https://haz-map.com/Agents/850",
      "category": "agents"
    },
    {
      "type": "name_match",
      "text": "ethane",
      "confidence": 1.0,
      "uuid": "5162cc8c-dfb9-4060-81ac-38a8cec7f9dd",
      "name": "Ethane",
      "url": "https://haz-map.com/Agents/1075",
      "category": "agents"
    },
    {
      "type": "name_match",
      "text": "ethylene",
      "confidence": 1.0,
      "uuid": "958eacc0-5135-4b62-bb93-6df972bf552f",
      "name": "Ethylene",
      "url": "https://haz-map.com/Agents/1076",
      "category": "agents"
    },
    {
      "type": "name_match",
      "text": "ht",
      "confidence": 1.0,
      "uuid": "764df367-8d53-4a11-81a2-31ccfe122a8d",
      "name": "HT",
      "url": "https://haz-map.com/Agents/2168",
      "category": "agents"
    },
    {
      "type": "name_match",
      "text": "butynediol",
      "confidence": 1.0,
      "uuid": "c132a117-15c0-498f-baf5-71b5224eebab",
      "name": "Butynediol",
      "url": "https://haz-map.com/Agents/2813",
      "category": "agents"
    },
    {
      "type": "name_match",
      "text": "2,4,7,9-tetramethyl-5-decyne-4,7-diol",
      "confidence": 1.0,
      "uuid": "dd5aa393-35fd-41f5-95db-0b66c528eb16",
      "name": "2,4,7,9-Tetramethyl-5-decyne-4,7-diol",
      "url": "https://haz-map.com/Agents/2994",
      "category": "agents"
    },
    {
      "type": "name_match",
      "text": "polyethylene glycol",
      "confidence": 1.0,
      "uuid": "f5b55322-38d4-428d-93e6-34611f9fedce",
      "name": "Polyethylene glycol",
      "url": "https://haz-map.com/Agents/6752",
      "category": "agents"
    },
    {
      "type": "name_match",
      "text": "2-butyne",
      "confidence": 1.0,
      "uuid": "d604893d-f414-428f-af44-ba926e496aa9",
      "name": "2-Butyne",
      "url": "https://haz-map.com/Agents/8620",
      "category": "agents"
    },
    {
      "type": "name_match",
      "text": "ethoxylated-2,4,7,9-tetramethyl-5-decyne-4,7-diol",
      "confidence": 1.0,
      "uuid": "24d5a1d8-dd3f-414d-88b6-3a597dbb164a",
      "name": "Ethoxylated-2,4,7,9-tetramethyl-5-decyne-4,7-diol",
      "url": "https://haz-map.com/Agents/17819",
      "category": "agents"
    }
  ],
  "all_links": [
    {
      "text": "Search PubMed",
      "url": "https://www.ncbi.nlm.nih.gov/pubmed?term=Ethoxylated-2%2c4%2c7%2c9-tetramethyl-5-decyne-4%2c7-diol%20AND%20human%5Bmh%5D%20AND%20%28Occupational%20Diseases%20%5Bmh%5D%20OR%20Occupational%20Exposure%20%5Bmh%5D%29%20%20AND%20%28tox%5Bsb%5D%29&cmd=search"
    }
  ]
}