{
  "metadata": {
    "scraped_from": "https://haz-map.com/Agents/10808",
    "entity_name": "3-Nitro-p-cresol",
    "category": "agents",
    "uuid": "25398df9-a7ed-4faf-8172-0c5aa67899f8",
    "scraped_at": "2025-07-23T20:53:07.351554"
  },
  "parsed_at": "2025-07-24T01:16:03.804597",
  "title": "3-Nitro-p-cresol",
  "sections": {
    "general": {
      "agent_name": {
        "original_name": "Agent Name",
        "value": "3-Nitro-p-cresol",
        "links": [],
        "cross_references": [
          {
            "type": "name_match",
            "text": "3-nitro-p-cresol",
            "confidence": 1.0,
            "uuid": "25398df9-a7ed-4faf-8172-0c5aa67899f8",
            "name": "3-Nitro-p-cresol",
            "url": "https://haz-map.com/Agents/10808",
            "category": "agents"
          },
          {
            "type": "name_match",
            "text": "p-cresol",
            "confidence": 1.0,
            "uuid": "83dc0e97-a553-4ff2-bf69-99074b62caad",
            "name": "p-Cresol",
            "url": "https://haz-map.com/Agents/16387",
            "category": "agents"
          }
        ]
      },
      "cas_number": {
        "original_name": "CAS Number",
        "value": "2042-14-0",
        "links": [],
        "cross_references": []
      },
      "formula": {
        "original_name": "Formula",
        "value": "C7-H7-N-O3",
        "links": [],
        "cross_references": []
      },
      "major_category": {
        "original_name": "Major Category",
        "value": "Nitrogen Compounds",
        "links": [],
        "cross_references": [
          {
            "type": "name_match",
            "text": "nitrogen",
            "confidence": 1.0,
            "uuid": "db5e90a9-06d2-45b9-8b81-f345a89b0bc0",
            "name": "Nitrogen",
            "url": "https://haz-map.com/Agents/1072",
            "category": "agents"
          }
        ]
      },
      "synonyms": {
        "original_name": "Synonyms",
        "value": "4-Methyl-3-nitrophenol; [Alfa Aesar MSDS] UN2446",
        "links": [],
        "cross_references": [
          {
            "type": "name_match",
            "text": "phenol",
            "confidence": 1.0,
            "uuid": "03141a03-a7df-4f51-9a37-adde1a7c4b31",
            "name": "Phenol",
            "url": "https://haz-map.com/Agents/84",
            "category": "agents"
          },
          {
            "type": "name_match",
            "text": "3-nitrophenol",
            "confidence": 1.0,
            "uuid": "ee585962-4953-419a-a10c-724a43c7ea0c",
            "name": "3-Nitrophenol",
            "url": "https://haz-map.com/Agents/3245",
            "category": "agents"
          }
        ]
      },
      "category": {
        "original_name": "Category",
        "value": "Nitrophenols",
        "links": [],
        "cross_references": [
          {
            "type": "name_match",
            "text": "phenol",
            "confidence": 1.0,
            "uuid": "03141a03-a7df-4f51-9a37-adde1a7c4b31",
            "name": "Phenol",
            "url": "https://haz-map.com/Agents/84",
            "category": "agents"
          }
        ]
      },
      "description": {
        "original_name": "Description",
        "value": "Yellow crystalline powder with an odor like phenol; [Alfa Aesar MSDS]",
        "links": [],
        "cross_references": [
          {
            "type": "name_match",
            "text": "phenol",
            "confidence": 1.0,
            "uuid": "03141a03-a7df-4f51-9a37-adde1a7c4b31",
            "name": "Phenol",
            "url": "https://haz-map.com/Agents/84",
            "category": "agents"
          },
          {
            "type": "fuzzy_match",
            "text": "crystalline",
            "matched_name": "Silica, crystalline",
            "confidence": 0.7061403508771931,
            "uuid": "f920e8a2-46df-41b7-af8d-0368a777251e",
            "category": "agents",
            "url": "https://haz-map.com/Agents/427"
          }
        ]
      },
      "comments": {
        "original_name": "Comments",
        "value": "A skin and strong eye irritant; Harmful by ingestion, inhalation, and skin absorption; [Alfa Aesar MSDS] See \"3-Nitrophenol.\"",
        "links": [],
        "cross_references": [
          {
            "type": "name_match",
            "text": "phenol",
            "confidence": 1.0,
            "uuid": "03141a03-a7df-4f51-9a37-adde1a7c4b31",
            "name": "Phenol",
            "url": "https://haz-map.com/Agents/84",
            "category": "agents"
          },
          {
            "type": "name_match",
            "text": "3-nitrophenol",
            "confidence": 1.0,
            "uuid": "ee585962-4953-419a-a10c-724a43c7ea0c",
            "name": "3-Nitrophenol",
            "url": "https://haz-map.com/Agents/3245",
            "category": "agents"
          }
        ]
      },
      "biomedical_references": {
        "original_name": "Biomedical References",
        "value": "Search PubMed",
        "links": [
          {
            "text": "Search PubMed",
            "url": "https://www.ncbi.nlm.nih.gov/pubmed?term=3-Nitro-p-cresol%20AND%20human%5Bmh%5D%20AND%20%28Occupational%20Diseases%20%5Bmh%5D%20OR%20Occupational%20Exposure%20%5Bmh%5D%29%20%20AND%20%28tox%5Bsb%5D%29&cmd=search"
          }
        ],
        "cross_references": []
      }
    },
    "exposure_assessment": {
      "vapor_pressure": {
        "original_name": "Vapor Pressure",
        "value": "0.000632 mm Hg",
        "links": [],
        "cross_references": []
      },
      "explanatory_notes": {
        "original_name": "Explanatory Notes",
        "value": "The Guide in the Emergency Response Guidebook is for \"Nitrocresols, solid.\"",
        "links": [],
        "cross_references": []
      }
    },
    "diseases_processes_and_activities_linked_to_this_agent": {
      "other_information": {
        "original_name": "Other Information",
        "value": "No other related information on this agent was found.",
        "links": [],
        "cross_references": []
      }
    }
  },
  "cross_references": [
    {
      "type": "name_match",
      "text": "phenol",
      "confidence": 1.0,
      "uuid": "03141a03-a7df-4f51-9a37-adde1a7c4b31",
      "name": "Phenol",
      "url": "https://haz-map.com/Agents/84",
      "category": "agents"
    },
    {
      "type": "name_match",
      "text": "nitrogen",
      "confidence": 1.0,
      "uuid": "db5e90a9-06d2-45b9-8b81-f345a89b0bc0",
      "name": "Nitrogen",
      "url": "https://haz-map.com/Agents/1072",
      "category": "agents"
    },
    {
      "type": "name_match",
      "text": "3-nitrophenol",
      "confidence": 1.0,
      "uuid": "ee585962-4953-419a-a10c-724a43c7ea0c",
      "name": "3-Nitrophenol",
      "url": "https://haz-map.com/Agents/3245",
      "category": "agents"
    },
    {
      "type": "name_match",
      "text": "3-nitro-p-cresol",
      "confidence": 1.0,
      "uuid": "25398df9-a7ed-4faf-8172-0c5aa67899f8",
      "name": "3-Nitro-p-cresol",
      "url": "https://haz-map.com/Agents/10808",
      "category": "agents"
    },
    {
      "type": "name_match",
      "text": "p-cresol",
      "confidence": 1.0,
      "uuid": "83dc0e97-a553-4ff2-bf69-99074b62caad",
      "name": "p-Cresol",
      "url": "https://haz-map.com/Agents/16387",
      "category": "agents"
    },
    {
      "type": "fuzzy_match",
      "text": "crystalline",
      "matched_name": "Silica, crystalline",
      "confidence": 0.7061403508771931,
      "uuid": "f920e8a2-46df-41b7-af8d-0368a777251e",
      "category": "agents",
      "url": "https://haz-map.com/Agents/427"
    }
  ],
  "all_links": [
    {
      "text": "Search PubMed",
      "url": "https://www.ncbi.nlm.nih.gov/pubmed?term=3-Nitro-p-cresol%20AND%20human%5Bmh%5D%20AND%20%28Occupational%20Diseases%20%5Bmh%5D%20OR%20Occupational%20Exposure%20%5Bmh%5D%29%20%20AND%20%28tox%5Bsb%5D%29&cmd=search"
    }
  ]
}