{
  "metadata": {
    "scraped_from": "https://haz-map.com/Agents/3176",
    "entity_name": "3,3,5-Trimethylcyclohexanol",
    "category": "agents",
    "uuid": "26133393-6aaa-4d96-bd8f-1b0181a567ae",
    "scraped_at": "2025-07-23T19:25:13.892652"
  },
  "parsed_at": "2025-07-24T00:56:41.308871",
  "title": "3,3,5-Trimethylcyclohexanol",
  "sections": {
    "general": {
      "agent_name": {
        "original_name": "Agent Name",
        "value": "3,3,5-Trimethylcyclohexanol",
        "links": [],
        "cross_references": [
          {
            "type": "name_match",
            "text": "methylcyclohexanol",
            "confidence": 1.0,
            "uuid": "22f08510-21ee-4de7-afd9-d5b08745568b",
            "name": "Methylcyclohexanol",
            "url": "https://haz-map.com/Agents/558",
            "category": "agents"
          },
          {
            "type": "name_match",
            "text": "cyclohexanol",
            "confidence": 1.0,
            "uuid": "24ac6370-b064-46ca-bf9a-8fb5eada1573",
            "name": "Cyclohexanol",
            "url": "https://haz-map.com/Agents/772",
            "category": "agents"
          },
          {
            "type": "name_match",
            "text": "3,3,5-trimethylcyclohexanol",
            "confidence": 1.0,
            "uuid": "26133393-6aaa-4d96-bd8f-1b0181a567ae",
            "name": "3,3,5-Trimethylcyclohexanol",
            "url": "https://haz-map.com/Agents/3176",
            "category": "agents"
          }
        ]
      },
      "cas_number": {
        "original_name": "CAS Number",
        "value": "116-02-9",
        "links": [],
        "cross_references": []
      },
      "formula": {
        "original_name": "Formula",
        "value": "C9-H18-O",
        "links": [],
        "cross_references": []
      },
      "major_category": {
        "original_name": "Major Category",
        "value": "Other Classes",
        "links": [],
        "cross_references": []
      },
      "synonyms": {
        "original_name": "Synonyms",
        "value": "1-Methyl-3-dimethylcyclohexanol-5; 3,3,5-Trimethyl-1-cyclohexanol; 3,5,5-Trimethylcyclohexanol; Cyclonol; Homomenthol; Isophorol, dihydro-; TMC; Trimethylcyclohexanol; Cyclohexanol, 3,3,5-trimethyl-; [ChemIDplus] UN1993",
        "links": [],
        "cross_references": [
          {
            "type": "name_match",
            "text": "methylcyclohexanol",
            "confidence": 1.0,
            "uuid": "22f08510-21ee-4de7-afd9-d5b08745568b",
            "name": "Methylcyclohexanol",
            "url": "https://haz-map.com/Agents/558",
            "category": "agents"
          },
          {
            "type": "name_match",
            "text": "cyclohexanol",
            "confidence": 1.0,
            "uuid": "24ac6370-b064-46ca-bf9a-8fb5eada1573",
            "name": "Cyclohexanol",
            "url": "https://haz-map.com/Agents/772",
            "category": "agents"
          },
          {
            "type": "name_match",
            "text": "menthol",
            "confidence": 1.0,
            "uuid": "3997b2ab-a5d2-4a7e-a2c6-4a1ad2e57b50",
            "name": "Menthol",
            "url": "https://haz-map.com/Agents/5943",
            "category": "agents"
          },
          {
            "type": "fuzzy_match",
            "text": "5-trimethylcyclohexanol",
            "matched_name": "3,3,5-Trimethylcyclohexanol",
            "confidence": 0.8671023965141612,
            "uuid": "26133393-6aaa-4d96-bd8f-1b0181a567ae",
            "category": "agents",
            "url": "https://haz-map.com/Agents/3176"
          }
        ]
      },
      "category": {
        "original_name": "Category",
        "value": "Alcohols and Polyols, Other",
        "links": [],
        "cross_references": []
      },
      "description": {
        "original_name": "Description",
        "value": "Colorless liquid; [Hawley] May be supercooled liquid; [MSDSonline]",
        "links": [],
        "cross_references": []
      },
      "sourcesuses": {
        "original_name": "Sources/Uses",
        "value": "Used as a menthol and camphor substitute, an antifoaming agent, an odor masking chemical, an esterification agent, and a wax additive; Also used in pharmaceuticals, printing inks, hydraulic fluids, and textile soaps; [Hawley]",
        "links": [],
        "cross_references": [
          {
            "type": "name_match",
            "text": "mica",
            "confidence": 1.0,
            "uuid": "433f26f1-c399-4596-b179-ce3843cfd465",
            "name": "Mica",
            "url": "https://haz-map.com/Agents/621",
            "category": "agents"
          },
          {
            "type": "name_match",
            "text": "pharmaceuticals",
            "confidence": 1.0,
            "uuid": "713c3c30-b67e-4a2f-a90f-b32f8a306332",
            "name": "PHARMACEUTICALS",
            "url": "https://haz-map.com/Agents/1000",
            "category": "agents"
          },
          {
            "type": "name_match",
            "text": "menthol",
            "confidence": 1.0,
            "uuid": "3997b2ab-a5d2-4a7e-a2c6-4a1ad2e57b50",
            "name": "Menthol",
            "url": "https://haz-map.com/Agents/5943",
            "category": "agents"
          },
          {
            "type": "fuzzy_match",
            "text": "d camphor",
            "matched_name": "D-Camphor",
            "confidence": 0.9,
            "uuid": "78afe51e-dee9-43cd-8f6f-c6030a83f95b",
            "category": "agents",
            "url": "https://haz-map.com/Agents/10984"
          }
        ]
      },
      "comments": {
        "original_name": "Comments",
        "value": "Emergency treatment: see \"Cyclohexanol.\" [HSDB] An irritant; May cause serious injury to eyes; [MSDSonline]",
        "links": [],
        "cross_references": [
          {
            "type": "name_match",
            "text": "cyclohexanol",
            "confidence": 1.0,
            "uuid": "24ac6370-b064-46ca-bf9a-8fb5eada1573",
            "name": "Cyclohexanol",
            "url": "https://haz-map.com/Agents/772",
            "category": "agents"
          }
        ]
      },
      "biomedical_references": {
        "original_name": "Biomedical References",
        "value": "Search PubMed",
        "links": [
          {
            "text": "Search PubMed",
            "url": "https://www.ncbi.nlm.nih.gov/pubmed?term=3%2c3%2c5-Trimethylcyclohexanol%20AND%20human%5Bmh%5D%20AND%20%28Occupational%20Diseases%20%5Bmh%5D%20OR%20Occupational%20Exposure%20%5Bmh%5D%29%20%20AND%20%28tox%5Bsb%5D%29&cmd=search"
          }
        ],
        "cross_references": []
      }
    },
    "exposure_assessment": {
      "vapor_pressure": {
        "original_name": "Vapor Pressure",
        "value": "0.1 mm Hg",
        "links": [],
        "cross_references": []
      },
      "explanatory_notes": {
        "original_name": "Explanatory Notes",
        "value": "Flash point = 73.9 deg C; [Hawley] The Guide in the Emergency Response Guidebook is for \"Combustible liquid, n.o.s.\"",
        "links": [],
        "cross_references": [
          {
            "type": "name_match",
            "text": "ash",
            "confidence": 1.0,
            "uuid": "68b360f1-5ad0-4337-bea0-d7adca2961b5",
            "name": "Ash",
            "url": "https://haz-map.com/Agents/965",
            "category": "agents"
          }
        ]
      }
    },
    "adverse_effects": {
      "neurotoxin": {
        "original_name": "Neurotoxin",
        "value": "Acute solvent syndrome",
        "links": [],
        "cross_references": []
      },
      "hepatotoxin": {
        "original_name": "Hepatotoxin",
        "value": "Hepatoxic (a) from occupational exposure (secondary effect) or (b) in animal studies or in humans after ingestion",
        "links": [],
        "cross_references": []
      }
    },
    "diseases_processes_and_activities_linked_to_this_agent": {
      "diseases": {
        "original_name": "Diseases",
        "value": "Occupational diseases associated with exposure to this agent: Solvents, acute toxic effect",
        "links": [
          {
            "text": "Solvents, acute toxic effect",
            "url": "https://haz-map.com/Diseases/326"
          }
        ],
        "cross_references": [
          {
            "type": "url_match",
            "text": "Solvents, acute toxic effect",
            "url": "https://haz-map.com/Diseases/326",
            "confidence": 1.0,
            "uuid": "581e90e3-9d0c-45f0-aa6c-3468c28da129",
            "name": "Solvents, acute toxic effect",
            "category": "diseases"
          }
        ]
      },
      "processes": {
        "original_name": "Processes",
        "value": "Industrial Processes with risk of exposure: Textiles (Fiber & Fabric Manufacturing)",
        "links": [
          {
            "text": "Textiles (Fiber & Fabric Manufacturing)",
            "url": "https://haz-map.com/Processes/135"
          }
        ],
        "cross_references": [
          {
            "type": "url_match",
            "text": "Textiles (Fiber & Fabric Manufacturing)",
            "url": "https://haz-map.com/Processes/135",
            "confidence": 1.0,
            "uuid": "43ebdcdb-bb09-4402-87b6-ae8cf169dddd",
            "name": "Textiles (Fiber & Fabric Manufacturing)",
            "category": "processes"
          }
        ]
      }
    }
  },
  "cross_references": [
    {
      "type": "url_match",
      "text": "Solvents, acute toxic effect",
      "url": "https://haz-map.com/Diseases/326",
      "confidence": 1.0,
      "uuid": "581e90e3-9d0c-45f0-aa6c-3468c28da129",
      "name": "Solvents, acute toxic effect",
      "category": "diseases"
    },
    {
      "type": "url_match",
      "text": "Textiles (Fiber & Fabric Manufacturing)",
      "url": "https://haz-map.com/Processes/135",
      "confidence": 1.0,
      "uuid": "43ebdcdb-bb09-4402-87b6-ae8cf169dddd",
      "name": "Textiles (Fiber & Fabric Manufacturing)",
      "category": "processes"
    },
    {
      "type": "name_match",
      "text": "methylcyclohexanol",
      "confidence": 1.0,
      "uuid": "22f08510-21ee-4de7-afd9-d5b08745568b",
      "name": "Methylcyclohexanol",
      "url": "https://haz-map.com/Agents/558",
      "category": "agents"
    },
    {
      "type": "name_match",
      "text": "mica",
      "confidence": 1.0,
      "uuid": "433f26f1-c399-4596-b179-ce3843cfd465",
      "name": "Mica",
      "url": "https://haz-map.com/Agents/621",
      "category": "agents"
    },
    {
      "type": "name_match",
      "text": "cyclohexanol",
      "confidence": 1.0,
      "uuid": "24ac6370-b064-46ca-bf9a-8fb5eada1573",
      "name": "Cyclohexanol",
      "url": "https://haz-map.com/Agents/772",
      "category": "agents"
    },
    {
      "type": "name_match",
      "text": "ash",
      "confidence": 1.0,
      "uuid": "68b360f1-5ad0-4337-bea0-d7adca2961b5",
      "name": "Ash",
      "url": "https://haz-map.com/Agents/965",
      "category": "agents"
    },
    {
      "type": "name_match",
      "text": "pharmaceuticals",
      "confidence": 1.0,
      "uuid": "713c3c30-b67e-4a2f-a90f-b32f8a306332",
      "name": "PHARMACEUTICALS",
      "url": "https://haz-map.com/Agents/1000",
      "category": "agents"
    },
    {
      "type": "name_match",
      "text": "3,3,5-trimethylcyclohexanol",
      "confidence": 1.0,
      "uuid": "26133393-6aaa-4d96-bd8f-1b0181a567ae",
      "name": "3,3,5-Trimethylcyclohexanol",
      "url": "https://haz-map.com/Agents/3176",
      "category": "agents"
    },
    {
      "type": "name_match",
      "text": "menthol",
      "confidence": 1.0,
      "uuid": "3997b2ab-a5d2-4a7e-a2c6-4a1ad2e57b50",
      "name": "Menthol",
      "url": "https://haz-map.com/Agents/5943",
      "category": "agents"
    },
    {
      "type": "fuzzy_match",
      "text": "d camphor",
      "matched_name": "D-Camphor",
      "confidence": 0.9,
      "uuid": "78afe51e-dee9-43cd-8f6f-c6030a83f95b",
      "category": "agents",
      "url": "https://haz-map.com/Agents/10984"
    }
  ],
  "all_links": [
    {
      "text": "Search PubMed",
      "url": "https://www.ncbi.nlm.nih.gov/pubmed?term=3%2c3%2c5-Trimethylcyclohexanol%20AND%20human%5Bmh%5D%20AND%20%28Occupational%20Diseases%20%5Bmh%5D%20OR%20Occupational%20Exposure%20%5Bmh%5D%29%20%20AND%20%28tox%5Bsb%5D%29&cmd=search"
    },
    {
      "text": "Solvents, acute toxic effect",
      "url": "https://haz-map.com/Diseases/326"
    },
    {
      "text": "Textiles (Fiber & Fabric Manufacturing)",
      "url": "https://haz-map.com/Processes/135"
    }
  ]
}