{
  "metadata": {
    "scraped_from": "https://haz-map.com/Agents/9656",
    "entity_name": "3-Hexanol",
    "category": "agents",
    "uuid": "267eab71-9c00-420b-8514-7857ec3cc639",
    "scraped_at": "2025-07-23T20:40:39.997079"
  },
  "parsed_at": "2025-07-24T00:54:38.810607",
  "title": "3-Hexanol",
  "sections": {
    "general": {
      "agent_name": {
        "original_name": "Agent Name",
        "value": "3-Hexanol",
        "links": [],
        "cross_references": [
          {
            "type": "name_match",
            "text": "3-hexanol",
            "confidence": 1.0,
            "uuid": "267eab71-9c00-420b-8514-7857ec3cc639",
            "name": "3-Hexanol",
            "url": "https://haz-map.com/Agents/9656",
            "category": "agents"
          }
        ]
      },
      "cas_number": {
        "original_name": "CAS Number",
        "value": "623-37-0",
        "links": [],
        "cross_references": []
      },
      "formula": {
        "original_name": "Formula",
        "value": "C6-H14-O",
        "links": [],
        "cross_references": []
      },
      "major_category": {
        "original_name": "Major Category",
        "value": "Solvents",
        "links": [],
        "cross_references": []
      },
      "synonyms": {
        "original_name": "Synonyms",
        "value": "3-Hexanol (natural); 3-Hexyl alcohol; Ethyl propyl carbinol; [ChemIDplus] Hexan-3-ol; [Aldrich MSDS] UN2282",
        "links": [],
        "cross_references": [
          {
            "type": "name_match",
            "text": "3-hexanol",
            "confidence": 1.0,
            "uuid": "267eab71-9c00-420b-8514-7857ec3cc639",
            "name": "3-Hexanol",
            "url": "https://haz-map.com/Agents/9656",
            "category": "agents"
          }
        ]
      },
      "category": {
        "original_name": "Category",
        "value": "Alcohols (<C12)",
        "links": [],
        "cross_references": []
      },
      "description": {
        "original_name": "Description",
        "value": "Clear colorless liquid; [Aldrich MSDS]",
        "links": [],
        "cross_references": []
      },
      "sourcesuses": {
        "original_name": "Sources/Uses",
        "value": "Used as flavoring agent or adjuvant; [FDA]",
        "links": [],
        "cross_references": []
      },
      "comments": {
        "original_name": "Comments",
        "value": "Safe when used as a flavoring agent in food; [JECFA] Causes cough in inhalation toxic-concentration study of humans; [RTECS] May cause irritation; [Aldrich MSDS] See \"3-Pentanol.\"",
        "links": [],
        "cross_references": [
          {
            "type": "name_match",
            "text": "cough",
            "confidence": 1.0,
            "uuid": "c18f3d8e-9c2e-4cef-ace6-8008147b34b1",
            "name": "cough",
            "url": "https://haz-map.com/Findings/4",
            "category": "findings"
          },
          {
            "type": "name_match",
            "text": "3-pentanol",
            "confidence": 1.0,
            "uuid": "a473c8d0-c328-40cc-9095-3d70467dcf36",
            "name": "3-Pentanol",
            "url": "https://haz-map.com/Agents/9662",
            "category": "agents"
          }
        ]
      },
      "biomedical_references": {
        "original_name": "Biomedical References",
        "value": "Search PubMed",
        "links": [
          {
            "text": "Search PubMed",
            "url": "https://www.ncbi.nlm.nih.gov/pubmed?term=3-Hexanol%20AND%20human%5Bmh%5D%20AND%20%28Occupational%20Diseases%20%5Bmh%5D%20OR%20Occupational%20Exposure%20%5Bmh%5D%29%20%20AND%20%28tox%5Bsb%5D%29&cmd=search"
          }
        ],
        "cross_references": []
      }
    },
    "exposure_assessment": {
      "vapor_pressure": {
        "original_name": "Vapor Pressure",
        "value": "4.81 mm Hg",
        "links": [],
        "cross_references": []
      },
      "explanatory_notes": {
        "original_name": "Explanatory Notes",
        "value": "The Guide in the Emergency Response Guidebook is for \"Hexanols.\" VP from ChemIDplus;",
        "links": [],
        "cross_references": []
      }
    },
    "adverse_effects": {
      "neurotoxin": {
        "original_name": "Neurotoxin",
        "value": "Acute solvent syndrome",
        "links": [],
        "cross_references": []
      }
    },
    "diseases_processes_and_activities_linked_to_this_agent": {
      "diseases": {
        "original_name": "Diseases",
        "value": "Occupational diseases associated with exposure to this agent: Solvents, acute toxic effect",
        "links": [
          {
            "text": "Solvents, acute toxic effect",
            "url": "https://haz-map.com/Diseases/326"
          }
        ],
        "cross_references": [
          {
            "type": "url_match",
            "text": "Solvents, acute toxic effect",
            "url": "https://haz-map.com/Diseases/326",
            "confidence": 1.0,
            "uuid": "581e90e3-9d0c-45f0-aa6c-3468c28da129",
            "name": "Solvents, acute toxic effect",
            "category": "diseases"
          }
        ]
      }
    }
  },
  "cross_references": [
    {
      "type": "url_match",
      "text": "Solvents, acute toxic effect",
      "url": "https://haz-map.com/Diseases/326",
      "confidence": 1.0,
      "uuid": "581e90e3-9d0c-45f0-aa6c-3468c28da129",
      "name": "Solvents, acute toxic effect",
      "category": "diseases"
    },
    {
      "type": "name_match",
      "text": "cough",
      "confidence": 1.0,
      "uuid": "c18f3d8e-9c2e-4cef-ace6-8008147b34b1",
      "name": "cough",
      "url": "https://haz-map.com/Findings/4",
      "category": "findings"
    },
    {
      "type": "name_match",
      "text": "3-hexanol",
      "confidence": 1.0,
      "uuid": "267eab71-9c00-420b-8514-7857ec3cc639",
      "name": "3-Hexanol",
      "url": "https://haz-map.com/Agents/9656",
      "category": "agents"
    },
    {
      "type": "name_match",
      "text": "3-pentanol",
      "confidence": 1.0,
      "uuid": "a473c8d0-c328-40cc-9095-3d70467dcf36",
      "name": "3-Pentanol",
      "url": "https://haz-map.com/Agents/9662",
      "category": "agents"
    }
  ],
  "all_links": [
    {
      "text": "Search PubMed",
      "url": "https://www.ncbi.nlm.nih.gov/pubmed?term=3-Hexanol%20AND%20human%5Bmh%5D%20AND%20%28Occupational%20Diseases%20%5Bmh%5D%20OR%20Occupational%20Exposure%20%5Bmh%5D%29%20%20AND%20%28tox%5Bsb%5D%29&cmd=search"
    },
    {
      "text": "Solvents, acute toxic effect",
      "url": "https://haz-map.com/Diseases/326"
    }
  ]
}