{
  "metadata": {
    "scraped_from": "https://haz-map.com/Agents/4025",
    "entity_name": "1,4-Butanediol diglycidyl ether",
    "category": "agents",
    "uuid": "26bb0d45-9eb5-4946-97d1-ff7e0baa80c3",
    "scraped_at": "2025-07-23T19:35:53.559203"
  },
  "parsed_at": "2025-07-24T01:13:34.461942",
  "title": "1,4-Butanediol diglycidyl ether",
  "sections": {
    "general": {
      "agent_name": {
        "original_name": "Agent Name",
        "value": "1,4-Butanediol diglycidyl ether",
        "links": [],
        "cross_references": [
          {
            "type": "name_match",
            "text": "diglycidyl ether",
            "confidence": 1.0,
            "uuid": "d255928b-fd72-4f79-aca3-52f09cff263e",
            "name": "Diglycidyl ether",
            "url": "https://haz-map.com/Agents/126",
            "category": "agents"
          },
          {
            "type": "name_match",
            "text": "1,4-butanediol",
            "confidence": 1.0,
            "uuid": "4fcfde27-fcb1-4332-a2e4-017c95271f10",
            "name": "1,4-Butanediol",
            "url": "https://haz-map.com/Agents/2812",
            "category": "agents"
          },
          {
            "type": "name_match",
            "text": "1,4-butanediol diglycidyl ether",
            "confidence": 1.0,
            "uuid": "26bb0d45-9eb5-4946-97d1-ff7e0baa80c3",
            "name": "1,4-Butanediol diglycidyl ether",
            "url": "https://haz-map.com/Agents/4025",
            "category": "agents"
          },
          {
            "type": "name_match",
            "text": "butanediol",
            "confidence": 1.0,
            "uuid": "4503a08d-7604-45cb-97d3-9fc34b6475f6",
            "name": "Butanediol",
            "url": "https://haz-map.com/Agents/12518",
            "category": "agents"
          }
        ]
      },
      "cas_number": {
        "original_name": "CAS Number",
        "value": "2425-79-8",
        "links": [],
        "cross_references": []
      },
      "formula": {
        "original_name": "Formula",
        "value": "C10-H18-O4",
        "links": [],
        "cross_references": []
      },
      "major_category": {
        "original_name": "Major Category",
        "value": "Plastics & Rubber",
        "links": [],
        "cross_references": []
      },
      "synonyms": {
        "original_name": "Synonyms",
        "value": "(Tetramethylenebis(oxymethylene))dioxirane; 1,4-Bis(2,3-epoxypropoxy)butane; 1,4-Bis(2,3-epoxypropyloxy)butane; 1,4-Bis(glycidyloxy)butane; 1,4-Bis(oxiranylmethyloxy)butane; 1,4-Butane diglycidyl ether; 1,4-Diglycidloxybutane; 1,4-Diglycidyloxybutane; 2,2'-(1,4-Butanediylbis(oxymethylene))bis(oxirane); Araldit DY 026; Butane, 1,4-bis(2,3-epoxypropoxy)-; Butane-1:4-diol diglycidyl ether; Butanediol diglycidyl ether; CD 15006 A; ChS-RR2; Grilonit RV 1806; Oxirane, 2,2'-(1,4-butanediylbis(oxymethylene))bis-; TK 10352; Tetramethylene glycol diglycidyl ether; [ChemIDplus]",
        "links": [],
        "cross_references": [
          {
            "type": "name_match",
            "text": "diglycidyl ether",
            "confidence": 1.0,
            "uuid": "d255928b-fd72-4f79-aca3-52f09cff263e",
            "name": "Diglycidyl ether",
            "url": "https://haz-map.com/Agents/126",
            "category": "agents"
          },
          {
            "type": "name_match",
            "text": "ethylene glycol",
            "confidence": 1.0,
            "uuid": "99589035-d71c-415a-914c-81c7a166be11",
            "name": "Ethylene glycol",
            "url": "https://haz-map.com/Agents/488",
            "category": "agents"
          },
          {
            "type": "name_match",
            "text": "ethylene",
            "confidence": 1.0,
            "uuid": "958eacc0-5135-4b62-bb93-6df972bf552f",
            "name": "Ethylene",
            "url": "https://haz-map.com/Agents/1076",
            "category": "agents"
          },
          {
            "type": "name_match",
            "text": "butanediol",
            "confidence": 1.0,
            "uuid": "4503a08d-7604-45cb-97d3-9fc34b6475f6",
            "name": "Butanediol",
            "url": "https://haz-map.com/Agents/12518",
            "category": "agents"
          }
        ]
      },
      "category": {
        "original_name": "Category",
        "value": "Glycidyl Ethers",
        "links": [],
        "cross_references": [
          {
            "type": "name_match",
            "text": "glycidyl ethers",
            "confidence": 1.0,
            "uuid": "98e1a57e-699e-42d4-9ba1-63424bb1f3ce",
            "name": "GLYCIDYL ETHERS",
            "url": "https://haz-map.com/Agents/705",
            "category": "agents"
          }
        ]
      },
      "description": {
        "original_name": "Description",
        "value": "Colorless to yellow liquid; [ICSC] Light yellow viscous liquid; [MSDSonline]",
        "links": [],
        "cross_references": [
          {
            "type": "name_match",
            "text": "ht",
            "confidence": 1.0,
            "uuid": "764df367-8d53-4a11-81a2-31ccfe122a8d",
            "name": "HT",
            "url": "https://haz-map.com/Agents/2168",
            "category": "agents"
          }
        ]
      },
      "sourcesuses": {
        "original_name": "Sources/Uses",
        "value": "Used as reactive diluent for epoxy resins (reduces viscosity) and as a flexibilizer for aromatic resins; [HSDB]",
        "links": [],
        "cross_references": [
          {
            "type": "name_match",
            "text": "epoxy resins",
            "confidence": 1.0,
            "uuid": "4724cfe8-e98a-4ee6-a6de-25e8d9534e62",
            "name": "EPOXY RESINS",
            "url": "https://haz-map.com/Agents/30",
            "category": "agents"
          }
        ]
      },
      "comments": {
        "original_name": "Comments",
        "value": "A respiratory tract irritant; A severe skin and eye irritant; May cause skin sensitization; [ICSC] An irritant; May cause skin sensitization; Can be absorbed through skin; [MSDSonline] Danger of skin sensitization; [MAK] See \"GLYCDYL ETHERS.\"",
        "links": [],
        "cross_references": []
      },
      "biomedical_references": {
        "original_name": "Biomedical References",
        "value": "Search PubMed",
        "links": [
          {
            "text": "Search PubMed",
            "url": "https://www.ncbi.nlm.nih.gov/pubmed?term=1%2c4-Butanediol+diglycidyl+ether%20AND%20human%5Bmh%5D%20AND%20%28Occupational%20Diseases%20%5Bmh%5D%20OR%20Occupational%20Exposure%20%5Bmh%5D%29%20%20AND%20%28tox%5Bsb%5D%29&cmd=search"
          }
        ],
        "cross_references": []
      }
    },
    "exposure_assessment": {
      "vapor_pressure": {
        "original_name": "Vapor Pressure",
        "value": "9.8 mm Hg",
        "links": [],
        "cross_references": []
      },
      "lethal_concentration": {
        "original_name": "Lethal Concentration",
        "value": "LC (rat) > 250 ppm/6h",
        "links": [],
        "cross_references": []
      },
      "explanatory_notes": {
        "original_name": "Explanatory Notes",
        "value": "Flash point = 129 deg C; [ICSC]",
        "links": [],
        "cross_references": [
          {
            "type": "name_match",
            "text": "ash",
            "confidence": 1.0,
            "uuid": "68b360f1-5ad0-4337-bea0-d7adca2961b5",
            "name": "Ash",
            "url": "https://haz-map.com/Agents/965",
            "category": "agents"
          }
        ]
      }
    },
    "adverse_effects": {
      "skin_sensitizer": {
        "original_name": "Skin Sensitizer",
        "value": "Yes",
        "links": [],
        "cross_references": []
      }
    },
    "diseases_processes_and_activities_linked_to_this_agent": {
      "diseases": {
        "original_name": "Diseases",
        "value": "Occupational diseases associated with exposure to this agent: Contact dermatitis, allergic",
        "links": [
          {
            "text": "Contact dermatitis, allergic",
            "url": "https://haz-map.com/Diseases/18"
          }
        ],
        "cross_references": [
          {
            "type": "url_match",
            "text": "Contact dermatitis, allergic",
            "url": "https://haz-map.com/Diseases/18",
            "confidence": 1.0,
            "uuid": "c9499de0-9aa1-41bf-8753-cd5b28a63e29",
            "name": "Contact dermatitis, allergic",
            "category": "diseases"
          },
          {
            "type": "name_match",
            "text": "dermatitis",
            "confidence": 1.0,
            "uuid": "fe9c05f2-b19f-4ceb-ac7a-ffb7d7a0cae0",
            "name": "dermatitis",
            "url": "https://haz-map.com/Findings/59",
            "category": "findings"
          }
        ]
      },
      "processes": {
        "original_name": "Processes",
        "value": "Industrial Processes with risk of exposure: Plastic Composites Manufacturing",
        "links": [
          {
            "text": "Plastic Composites Manufacturing",
            "url": "https://haz-map.com/Processes/222"
          }
        ],
        "cross_references": [
          {
            "type": "url_match",
            "text": "Plastic Composites Manufacturing",
            "url": "https://haz-map.com/Processes/222",
            "confidence": 1.0,
            "uuid": "d4461b82-dc77-4172-8e3d-0a5e3b213911",
            "name": "Plastic Composites Manufacturing",
            "category": "processes"
          }
        ]
      }
    }
  },
  "cross_references": [
    {
      "type": "url_match",
      "text": "Contact dermatitis, allergic",
      "url": "https://haz-map.com/Diseases/18",
      "confidence": 1.0,
      "uuid": "c9499de0-9aa1-41bf-8753-cd5b28a63e29",
      "name": "Contact dermatitis, allergic",
      "category": "diseases"
    },
    {
      "type": "url_match",
      "text": "Plastic Composites Manufacturing",
      "url": "https://haz-map.com/Processes/222",
      "confidence": 1.0,
      "uuid": "d4461b82-dc77-4172-8e3d-0a5e3b213911",
      "name": "Plastic Composites Manufacturing",
      "category": "processes"
    },
    {
      "type": "name_match",
      "text": "dermatitis",
      "confidence": 1.0,
      "uuid": "fe9c05f2-b19f-4ceb-ac7a-ffb7d7a0cae0",
      "name": "dermatitis",
      "url": "https://haz-map.com/Findings/59",
      "category": "findings"
    },
    {
      "type": "name_match",
      "text": "epoxy resins",
      "confidence": 1.0,
      "uuid": "4724cfe8-e98a-4ee6-a6de-25e8d9534e62",
      "name": "EPOXY RESINS",
      "url": "https://haz-map.com/Agents/30",
      "category": "agents"
    },
    {
      "type": "name_match",
      "text": "diglycidyl ether",
      "confidence": 1.0,
      "uuid": "d255928b-fd72-4f79-aca3-52f09cff263e",
      "name": "Diglycidyl ether",
      "url": "https://haz-map.com/Agents/126",
      "category": "agents"
    },
    {
      "type": "name_match",
      "text": "ethylene glycol",
      "confidence": 1.0,
      "uuid": "99589035-d71c-415a-914c-81c7a166be11",
      "name": "Ethylene glycol",
      "url": "https://haz-map.com/Agents/488",
      "category": "agents"
    },
    {
      "type": "name_match",
      "text": "glycidyl ethers",
      "confidence": 1.0,
      "uuid": "98e1a57e-699e-42d4-9ba1-63424bb1f3ce",
      "name": "GLYCIDYL ETHERS",
      "url": "https://haz-map.com/Agents/705",
      "category": "agents"
    },
    {
      "type": "name_match",
      "text": "ash",
      "confidence": 1.0,
      "uuid": "68b360f1-5ad0-4337-bea0-d7adca2961b5",
      "name": "Ash",
      "url": "https://haz-map.com/Agents/965",
      "category": "agents"
    },
    {
      "type": "name_match",
      "text": "ethylene",
      "confidence": 1.0,
      "uuid": "958eacc0-5135-4b62-bb93-6df972bf552f",
      "name": "Ethylene",
      "url": "https://haz-map.com/Agents/1076",
      "category": "agents"
    },
    {
      "type": "name_match",
      "text": "ht",
      "confidence": 1.0,
      "uuid": "764df367-8d53-4a11-81a2-31ccfe122a8d",
      "name": "HT",
      "url": "https://haz-map.com/Agents/2168",
      "category": "agents"
    },
    {
      "type": "name_match",
      "text": "1,4-butanediol",
      "confidence": 1.0,
      "uuid": "4fcfde27-fcb1-4332-a2e4-017c95271f10",
      "name": "1,4-Butanediol",
      "url": "https://haz-map.com/Agents/2812",
      "category": "agents"
    },
    {
      "type": "name_match",
      "text": "1,4-butanediol diglycidyl ether",
      "confidence": 1.0,
      "uuid": "26bb0d45-9eb5-4946-97d1-ff7e0baa80c3",
      "name": "1,4-Butanediol diglycidyl ether",
      "url": "https://haz-map.com/Agents/4025",
      "category": "agents"
    },
    {
      "type": "name_match",
      "text": "butanediol",
      "confidence": 1.0,
      "uuid": "4503a08d-7604-45cb-97d3-9fc34b6475f6",
      "name": "Butanediol",
      "url": "https://haz-map.com/Agents/12518",
      "category": "agents"
    }
  ],
  "all_links": [
    {
      "text": "Search PubMed",
      "url": "https://www.ncbi.nlm.nih.gov/pubmed?term=1%2c4-Butanediol+diglycidyl+ether%20AND%20human%5Bmh%5D%20AND%20%28Occupational%20Diseases%20%5Bmh%5D%20OR%20Occupational%20Exposure%20%5Bmh%5D%29%20%20AND%20%28tox%5Bsb%5D%29&cmd=search"
    },
    {
      "text": "Contact dermatitis, allergic",
      "url": "https://haz-map.com/Diseases/18"
    },
    {
      "text": "Plastic Composites Manufacturing",
      "url": "https://haz-map.com/Processes/222"
    }
  ]
}