{
  "metadata": {
    "scraped_from": "https://haz-map.com/Agents/5820",
    "entity_name": "Lethane 384",
    "category": "agents",
    "uuid": "26f11f4b-d4a7-431b-a1aa-482d67632543",
    "scraped_at": "2025-07-23T19:56:12.625843"
  },
  "parsed_at": "2025-07-24T01:16:48.474100",
  "title": "Lethane 384",
  "sections": {
    "general": {
      "agent_name": {
        "original_name": "Agent Name",
        "value": "Lethane 384",
        "links": [],
        "cross_references": [
          {
            "type": "name_match",
            "text": "ethane",
            "confidence": 1.0,
            "uuid": "5162cc8c-dfb9-4060-81ac-38a8cec7f9dd",
            "name": "Ethane",
            "url": "https://haz-map.com/Agents/1075",
            "category": "agents"
          },
          {
            "type": "name_match",
            "text": "lethane 384",
            "confidence": 1.0,
            "uuid": "26f11f4b-d4a7-431b-a1aa-482d67632543",
            "name": "Lethane 384",
            "url": "https://haz-map.com/Agents/5820",
            "category": "agents"
          }
        ]
      },
      "cas_number": {
        "original_name": "CAS Number",
        "value": "112-56-1",
        "links": [],
        "cross_references": []
      },
      "formula": {
        "original_name": "Formula",
        "value": "C9-H17-N-O2-S",
        "links": [],
        "cross_references": []
      },
      "major_category": {
        "original_name": "Major Category",
        "value": "Pesticides",
        "links": [],
        "cross_references": []
      },
      "synonyms": {
        "original_name": "Synonyms",
        "value": "1-Butoxy-2-(2-thiocyanoethoxy)ethane; 1-Butoxy-alpha-(2-thiocyanoethoxy)ethane; 2-(2-(Butoxy)ethoxy)ethyl thiocyanic acid ester; 2-(2-Butoxyethoxy)ethyl ester of thiocyanic acid; 2-(2-Butoxyethoxy)ethyl thiocyanate; 2-(2-Butoxyethoxy)ethylthiocyanate; 2-(2-Butoxyethoxy)ethylthiokyanat [Czech]; 2-Butoxy-2'-thiocyanodiethyl ether; Butoxyrhodanodiethyl ether; Butyl carbitol rhodanate; Butyl carbitol thiocyanate; ENT 6; Ethane, 1-butoxy-2-(2-thiocyanatoethoxy)-; Ethanol, 2-(2-butoxyethoxy)-, thiocyanate; Lethane; Lethane 384 regular; beta-Butoxy beta'-thiocyano diethyl ether; beta-Butoxy-beta'-thiocyanodiethyl ether; [ChemIDplus]",
        "links": [],
        "cross_references": [
          {
            "type": "name_match",
            "text": "ethyl ether",
            "confidence": 1.0,
            "uuid": "c95edddc-9ad3-44f8-bafa-78e0bd19db3a",
            "name": "Ethyl ether",
            "url": "https://haz-map.com/Agents/455",
            "category": "agents"
          },
          {
            "type": "name_match",
            "text": "ethane",
            "confidence": 1.0,
            "uuid": "5162cc8c-dfb9-4060-81ac-38a8cec7f9dd",
            "name": "Ethane",
            "url": "https://haz-map.com/Agents/1075",
            "category": "agents"
          },
          {
            "type": "name_match",
            "text": "ethyl thiocyanate",
            "confidence": 1.0,
            "uuid": "d004435a-6a9a-4f38-b723-30026aa30288",
            "name": "Ethyl thiocyanate",
            "url": "https://haz-map.com/Agents/5255",
            "category": "agents"
          },
          {
            "type": "name_match",
            "text": "lethane 384",
            "confidence": 1.0,
            "uuid": "26f11f4b-d4a7-431b-a1aa-482d67632543",
            "name": "Lethane 384",
            "url": "https://haz-map.com/Agents/5820",
            "category": "agents"
          },
          {
            "type": "name_match",
            "text": "thiocyanic acid",
            "confidence": 1.0,
            "uuid": "1ea9faab-6fd3-4195-bb95-eb98a8e81823",
            "name": "Thiocyanic acid",
            "url": "https://haz-map.com/Agents/19869",
            "category": "agents"
          }
        ]
      },
      "category": {
        "original_name": "Category",
        "value": "Other Insecticides",
        "links": [],
        "cross_references": []
      },
      "description": {
        "original_name": "Description",
        "value": "Clear brown liquid; [HSDB] Brownish or clear yellow liquid; [CAMEO]",
        "links": [],
        "cross_references": []
      },
      "sourcesuses": {
        "original_name": "Sources/Uses",
        "value": "Used as contact insecticide and knockdown agent in household, livestock, and industrial sprays; Commercial product is 50% petroleum distillate (kerosene); No longer registered with the EPA for use in the US, cancelled; [HSDB]",
        "links": [],
        "cross_references": [
          {
            "type": "name_match",
            "text": "kerosene",
            "confidence": 1.0,
            "uuid": "0b2c968d-26dc-4602-8302-50afd6b4b871",
            "name": "Kerosene",
            "url": "https://haz-map.com/Agents/172",
            "category": "agents"
          },
          {
            "type": "name_match",
            "text": "oleum",
            "confidence": 1.0,
            "uuid": "12af84ee-bcf0-416d-9220-7c4c6dc330f1",
            "name": "Oleum",
            "url": "https://haz-map.com/Agents/2227",
            "category": "agents"
          }
        ]
      },
      "comments": {
        "original_name": "Comments",
        "value": "Most toxic of common thiocyanate insecticides; Poisoning is due to release of cyanide; Aliphatic thiocyanate poisoning may include injury to liver and kidneys; Lethal dose in humans is 1 tsp. to 1 oz. One fatal human case reported--after ingestion; [HSDB] A skin and mucous membrane irritant; Can be absorbed through skin; [CAMEO]",
        "links": [],
        "cross_references": [
          {
            "type": "name_match",
            "text": "cyanide",
            "confidence": 1.0,
            "uuid": "0b4d38ba-cc5c-4386-8079-9e7ff8fb2d3a",
            "name": "Cyanide",
            "url": "https://haz-map.com/Agents/13350",
            "category": "agents"
          }
        ]
      },
      "biomedical_references": {
        "original_name": "Biomedical References",
        "value": "Search PubMed",
        "links": [
          {
            "text": "Search PubMed",
            "url": "https://www.ncbi.nlm.nih.gov/pubmed?term=Lethane+384%20AND%20human%5Bmh%5D%20AND%20%28Occupational%20Diseases%20%5Bmh%5D%20OR%20Occupational%20Exposure%20%5Bmh%5D%29%20%20AND%20%28tox%5Bsb%5D%29&cmd=search"
          }
        ],
        "cross_references": []
      }
    },
    "exposure_assessment": {
      "vapor_pressure": {
        "original_name": "Vapor Pressure",
        "value": "0.000594 mm Hg",
        "links": [],
        "cross_references": []
      }
    },
    "adverse_effects": {
      "hepatotoxin": {
        "original_name": "Hepatotoxin",
        "value": "Hepatoxic (a) from occupational exposure (secondary effect) or (b) in animal studies or in humans after ingestion",
        "links": [],
        "cross_references": []
      },
      "other_poison": {
        "original_name": "Other Poison",
        "value": "Chemical Asphyxiant",
        "links": [],
        "cross_references": [
          {
            "type": "name_match",
            "text": "mica",
            "confidence": 1.0,
            "uuid": "433f26f1-c399-4596-b179-ce3843cfd465",
            "name": "Mica",
            "url": "https://haz-map.com/Agents/621",
            "category": "agents"
          }
        ]
      }
    },
    "diseases_processes_and_activities_linked_to_this_agent": {
      "processes": {
        "original_name": "Processes",
        "value": "Industrial Processes with risk of exposure: Farming (Pesticides)",
        "links": [
          {
            "text": "Farming (Pesticides)",
            "url": "https://haz-map.com/Processes/218"
          }
        ],
        "cross_references": [
          {
            "type": "url_match",
            "text": "Farming (Pesticides)",
            "url": "https://haz-map.com/Processes/218",
            "confidence": 1.0,
            "uuid": "cf1e5815-c9bb-4917-82a5-391848170b7e",
            "name": "Farming (Pesticides)",
            "category": "processes"
          }
        ]
      }
    }
  },
  "cross_references": [
    {
      "type": "url_match",
      "text": "Farming (Pesticides)",
      "url": "https://haz-map.com/Processes/218",
      "confidence": 1.0,
      "uuid": "cf1e5815-c9bb-4917-82a5-391848170b7e",
      "name": "Farming (Pesticides)",
      "category": "processes"
    },
    {
      "type": "name_match",
      "text": "kerosene",
      "confidence": 1.0,
      "uuid": "0b2c968d-26dc-4602-8302-50afd6b4b871",
      "name": "Kerosene",
      "url": "https://haz-map.com/Agents/172",
      "category": "agents"
    },
    {
      "type": "name_match",
      "text": "ethyl ether",
      "confidence": 1.0,
      "uuid": "c95edddc-9ad3-44f8-bafa-78e0bd19db3a",
      "name": "Ethyl ether",
      "url": "https://haz-map.com/Agents/455",
      "category": "agents"
    },
    {
      "type": "name_match",
      "text": "mica",
      "confidence": 1.0,
      "uuid": "433f26f1-c399-4596-b179-ce3843cfd465",
      "name": "Mica",
      "url": "https://haz-map.com/Agents/621",
      "category": "agents"
    },
    {
      "type": "name_match",
      "text": "ethane",
      "confidence": 1.0,
      "uuid": "5162cc8c-dfb9-4060-81ac-38a8cec7f9dd",
      "name": "Ethane",
      "url": "https://haz-map.com/Agents/1075",
      "category": "agents"
    },
    {
      "type": "name_match",
      "text": "oleum",
      "confidence": 1.0,
      "uuid": "12af84ee-bcf0-416d-9220-7c4c6dc330f1",
      "name": "Oleum",
      "url": "https://haz-map.com/Agents/2227",
      "category": "agents"
    },
    {
      "type": "name_match",
      "text": "ethyl thiocyanate",
      "confidence": 1.0,
      "uuid": "d004435a-6a9a-4f38-b723-30026aa30288",
      "name": "Ethyl thiocyanate",
      "url": "https://haz-map.com/Agents/5255",
      "category": "agents"
    },
    {
      "type": "name_match",
      "text": "lethane 384",
      "confidence": 1.0,
      "uuid": "26f11f4b-d4a7-431b-a1aa-482d67632543",
      "name": "Lethane 384",
      "url": "https://haz-map.com/Agents/5820",
      "category": "agents"
    },
    {
      "type": "name_match",
      "text": "cyanide",
      "confidence": 1.0,
      "uuid": "0b4d38ba-cc5c-4386-8079-9e7ff8fb2d3a",
      "name": "Cyanide",
      "url": "https://haz-map.com/Agents/13350",
      "category": "agents"
    },
    {
      "type": "name_match",
      "text": "thiocyanic acid",
      "confidence": 1.0,
      "uuid": "1ea9faab-6fd3-4195-bb95-eb98a8e81823",
      "name": "Thiocyanic acid",
      "url": "https://haz-map.com/Agents/19869",
      "category": "agents"
    }
  ],
  "all_links": [
    {
      "text": "Search PubMed",
      "url": "https://www.ncbi.nlm.nih.gov/pubmed?term=Lethane+384%20AND%20human%5Bmh%5D%20AND%20%28Occupational%20Diseases%20%5Bmh%5D%20OR%20Occupational%20Exposure%20%5Bmh%5D%29%20%20AND%20%28tox%5Bsb%5D%29&cmd=search"
    },
    {
      "text": "Farming (Pesticides)",
      "url": "https://haz-map.com/Processes/218"
    }
  ]
}