{
  "metadata": {
    "scraped_from": "https://haz-map.com/Agents/3047",
    "entity_name": "2,6-Dinitrophenol",
    "category": "agents",
    "uuid": "26f21dc0-c4e0-405d-a91d-6de110e5f35a",
    "scraped_at": "2025-07-23T19:23:16.488014"
  },
  "parsed_at": "2025-07-24T01:00:28.897358",
  "title": "2,6-Dinitrophenol",
  "sections": {
    "general": {
      "agent_name": {
        "original_name": "Agent Name",
        "value": "2,6-Dinitrophenol",
        "links": [],
        "cross_references": [
          {
            "type": "name_match",
            "text": "phenol",
            "confidence": 1.0,
            "uuid": "03141a03-a7df-4f51-9a37-adde1a7c4b31",
            "name": "Phenol",
            "url": "https://haz-map.com/Agents/84",
            "category": "agents"
          },
          {
            "type": "name_match",
            "text": "dinitrophenol",
            "confidence": 1.0,
            "uuid": "6335b5e4-a456-4dd1-a0ca-6671d9371e92",
            "name": "Dinitrophenol",
            "url": "https://haz-map.com/Agents/683",
            "category": "agents"
          },
          {
            "type": "name_match",
            "text": "2,6-dinitrophenol",
            "confidence": 1.0,
            "uuid": "26f21dc0-c4e0-405d-a91d-6de110e5f35a",
            "name": "2,6-Dinitrophenol",
            "url": "https://haz-map.com/Agents/3047",
            "category": "agents"
          }
        ]
      },
      "cas_number": {
        "original_name": "CAS Number",
        "value": "573-56-8",
        "links": [],
        "cross_references": []
      },
      "formula": {
        "original_name": "Formula",
        "value": "C6-H4-N2-O5",
        "links": [],
        "cross_references": []
      },
      "major_category": {
        "original_name": "Major Category",
        "value": "Nitrogen Compounds",
        "links": [],
        "cross_references": [
          {
            "type": "name_match",
            "text": "nitrogen",
            "confidence": 1.0,
            "uuid": "db5e90a9-06d2-45b9-8b81-f345a89b0bc0",
            "name": "Nitrogen",
            "url": "https://haz-map.com/Agents/1072",
            "category": "agents"
          }
        ]
      },
      "synonyms": {
        "original_name": "Synonyms",
        "value": "2,6-DNP; 2,6-Dinitrofenol [Czech]; Phenol, 2,6-dinitro-; o-Dinitrophenol; [ChemIDplus] UN1320; UN0076",
        "links": [],
        "cross_references": [
          {
            "type": "name_match",
            "text": "phenol",
            "confidence": 1.0,
            "uuid": "03141a03-a7df-4f51-9a37-adde1a7c4b31",
            "name": "Phenol",
            "url": "https://haz-map.com/Agents/84",
            "category": "agents"
          },
          {
            "type": "name_match",
            "text": "dinitrophenol",
            "confidence": 1.0,
            "uuid": "6335b5e4-a456-4dd1-a0ca-6671d9371e92",
            "name": "Dinitrophenol",
            "url": "https://haz-map.com/Agents/683",
            "category": "agents"
          },
          {
            "type": "name_match",
            "text": "nitrofen",
            "confidence": 1.0,
            "uuid": "edffc9d8-cb1b-4889-af6e-b0efc2a70f02",
            "name": "Nitrofen",
            "url": "https://haz-map.com/Agents/6349",
            "category": "agents"
          }
        ]
      },
      "category": {
        "original_name": "Category",
        "value": "Nitrophenols",
        "links": [],
        "cross_references": [
          {
            "type": "name_match",
            "text": "phenol",
            "confidence": 1.0,
            "uuid": "03141a03-a7df-4f51-9a37-adde1a7c4b31",
            "name": "Phenol",
            "url": "https://haz-map.com/Agents/84",
            "category": "agents"
          }
        ]
      },
      "description": {
        "original_name": "Description",
        "value": "Light yellow solid; [Merck Index] Yellow powder; [MSDSonline]",
        "links": [],
        "cross_references": [
          {
            "type": "name_match",
            "text": "ht",
            "confidence": 1.0,
            "uuid": "764df367-8d53-4a11-81a2-31ccfe122a8d",
            "name": "HT",
            "url": "https://haz-map.com/Agents/2168",
            "category": "agents"
          }
        ]
      },
      "sourcesuses": {
        "original_name": "Sources/Uses",
        "value": "Used as an indicator, lumber preservative, and to make dyes, explosives, photographic developers, and other organic chemicals; [HSDB]",
        "links": [],
        "cross_references": [
          {
            "type": "name_match",
            "text": "mica",
            "confidence": 1.0,
            "uuid": "433f26f1-c399-4596-b179-ce3843cfd465",
            "name": "Mica",
            "url": "https://haz-map.com/Agents/621",
            "category": "agents"
          }
        ]
      },
      "comments": {
        "original_name": "Comments",
        "value": "Corrosive to skin; [CHRIS] Emergency treatment: \"Dinitro phenol group\"; A mucous membrane irritant; Can induce methemoglobinemia; [HSDB] Toxic by inhalation, ingestion, and skin contact; [eChemPortal: ESIS] An irritant; Readily absorbed through skin; Disrupts oxidative phosphorylation; May cause liver damage; [MSDSonline] See \"Dinitrophenol.\"",
        "links": [],
        "cross_references": [
          {
            "type": "name_match",
            "text": "phenol",
            "confidence": 1.0,
            "uuid": "03141a03-a7df-4f51-9a37-adde1a7c4b31",
            "name": "Phenol",
            "url": "https://haz-map.com/Agents/84",
            "category": "agents"
          },
          {
            "type": "name_match",
            "text": "dinitrophenol",
            "confidence": 1.0,
            "uuid": "6335b5e4-a456-4dd1-a0ca-6671d9371e92",
            "name": "Dinitrophenol",
            "url": "https://haz-map.com/Agents/683",
            "category": "agents"
          },
          {
            "type": "name_match",
            "text": "methemoglobin",
            "confidence": 1.0,
            "uuid": "afb7ebf5-d2a3-4e60-8d2e-3a19456344ee",
            "name": "Methemoglobin",
            "url": "https://haz-map.com/Agents/15467",
            "category": "agents"
          },
          {
            "type": "fuzzy_match",
            "text": "methemoglobinemia",
            "matched_name": "Methemoglobinemia, acute",
            "confidence": 0.7208333333333333,
            "uuid": "473a44bd-cf11-4710-a769-e8e2b25ba317",
            "category": "diseases",
            "url": "https://haz-map.com/Diseases/210"
          }
        ]
      },
      "biomedical_references": {
        "original_name": "Biomedical References",
        "value": "Search PubMed",
        "links": [
          {
            "text": "Search PubMed",
            "url": "https://www.ncbi.nlm.nih.gov/pubmed?term=2%2c6-Dinitrophenol%20AND%20human%5Bmh%5D%20AND%20%28Occupational%20Diseases%20%5Bmh%5D%20OR%20Occupational%20Exposure%20%5Bmh%5D%29%20%20AND%20%28tox%5Bsb%5D%29&cmd=search"
          }
        ],
        "cross_references": []
      }
    },
    "exposure_assessment": {
      "vapor_pressure": {
        "original_name": "Vapor Pressure",
        "value": "1.2E-05 mm Hg",
        "links": [],
        "cross_references": []
      },
      "explanatory_notes": {
        "original_name": "Explanatory Notes",
        "value": "The Guide in the Emergency Response Guidebook is for \"Dinitrophenol, wetted with not less than 15% water, by weight\".",
        "links": [],
        "cross_references": [
          {
            "type": "name_match",
            "text": "phenol",
            "confidence": 1.0,
            "uuid": "03141a03-a7df-4f51-9a37-adde1a7c4b31",
            "name": "Phenol",
            "url": "https://haz-map.com/Agents/84",
            "category": "agents"
          },
          {
            "type": "name_match",
            "text": "dinitrophenol",
            "confidence": 1.0,
            "uuid": "6335b5e4-a456-4dd1-a0ca-6671d9371e92",
            "name": "Dinitrophenol",
            "url": "https://haz-map.com/Agents/683",
            "category": "agents"
          },
          {
            "type": "name_match",
            "text": "ht",
            "confidence": 1.0,
            "uuid": "764df367-8d53-4a11-81a2-31ccfe122a8d",
            "name": "HT",
            "url": "https://haz-map.com/Agents/2168",
            "category": "agents"
          },
          {
            "type": "name_match",
            "text": "water",
            "confidence": 1.0,
            "uuid": "6f2a7557-dfd2-49bc-9b4b-a93cd8e225d4",
            "name": "Water",
            "url": "https://haz-map.com/Agents/18668",
            "category": "agents"
          }
        ]
      }
    },
    "adverse_effects": {
      "methemoglobinemia": {
        "original_name": "Methemoglobinemia",
        "value": "MetHgb is secondary toxic effect",
        "links": [],
        "cross_references": []
      },
      "hepatotoxin": {
        "original_name": "Hepatotoxin",
        "value": "Hepatoxic (a) from occupational exposure (secondary effect) or (b) in animal studies or in humans after ingestion",
        "links": [],
        "cross_references": []
      },
      "nephrotoxin": {
        "original_name": "Nephrotoxin",
        "value": "Yes",
        "links": [],
        "cross_references": []
      },
      "dermatotoxin": {
        "original_name": "Dermatotoxin",
        "value": "Skin burns",
        "links": [],
        "cross_references": [
          {
            "type": "name_match",
            "text": "burn",
            "confidence": 1.0,
            "uuid": "63665de5-6376-4918-8dbf-4c10c4d63837",
            "name": "burn",
            "url": "https://haz-map.com/Findings/204",
            "category": "findings"
          }
        ]
      },
      "other_poison": {
        "original_name": "Other Poison",
        "value": "Uncoupler",
        "links": [],
        "cross_references": []
      }
    },
    "diseases_processes_and_activities_linked_to_this_agent": {
      "diseases": {
        "original_name": "Diseases",
        "value": "Occupational diseases associated with exposure to this agent: Acute tubular necrosis Cataract, chemical or radiation induced Pentachlorophenol/Dinitrophenol, acute poisoning",
        "links": [
          {
            "text": "Acute tubular necrosis",
            "url": "https://haz-map.com/Diseases/656"
          },
          {
            "text": "Cataract, chemical or radiation induced",
            "url": "https://haz-map.com/Diseases/308"
          },
          {
            "text": "Pentachlorophenol/Dinitrophenol, acute poisoning",
            "url": "https://haz-map.com/Diseases/160"
          }
        ],
        "cross_references": [
          {
            "type": "url_match",
            "text": "Cataract, chemical or radiation induced",
            "url": "https://haz-map.com/Diseases/308",
            "confidence": 1.0,
            "uuid": "5972a0ee-7174-461f-9b09-65815de7bc26",
            "name": "Cataract, chemical or radiation induced",
            "category": "diseases"
          },
          {
            "type": "url_match",
            "text": "Pentachlorophenol/Dinitrophenol, acute poisoning",
            "url": "https://haz-map.com/Diseases/160",
            "confidence": 1.0,
            "uuid": "ebc7c16f-be74-4bc3-8817-baa9a17eec5c",
            "name": "Pentachlorophenol/Dinitrophenol, acute poisoning",
            "category": "diseases"
          },
          {
            "type": "name_match",
            "text": "cataract",
            "confidence": 1.0,
            "uuid": "3e1b6957-4241-488a-8796-192306a93517",
            "name": "cataract",
            "url": "https://haz-map.com/Findings/131",
            "category": "findings"
          },
          {
            "type": "name_match",
            "text": "pentachlorophenol",
            "confidence": 1.0,
            "uuid": "932cef10-2ea1-446c-8acd-cf572d61731b",
            "name": "Pentachlorophenol",
            "url": "https://haz-map.com/Agents/36",
            "category": "agents"
          },
          {
            "type": "name_match",
            "text": "phenol",
            "confidence": 1.0,
            "uuid": "03141a03-a7df-4f51-9a37-adde1a7c4b31",
            "name": "Phenol",
            "url": "https://haz-map.com/Agents/84",
            "category": "agents"
          },
          {
            "type": "name_match",
            "text": "mica",
            "confidence": 1.0,
            "uuid": "433f26f1-c399-4596-b179-ce3843cfd465",
            "name": "Mica",
            "url": "https://haz-map.com/Agents/621",
            "category": "agents"
          },
          {
            "type": "name_match",
            "text": "dinitrophenol",
            "confidence": 1.0,
            "uuid": "6335b5e4-a456-4dd1-a0ca-6671d9371e92",
            "name": "Dinitrophenol",
            "url": "https://haz-map.com/Agents/683",
            "category": "agents"
          }
        ]
      },
      "processes": {
        "original_name": "Processes",
        "value": "Industrial Processes with risk of exposure: Applying Wood Preservatives",
        "links": [
          {
            "text": "Applying Wood Preservatives",
            "url": "https://haz-map.com/Processes/160"
          }
        ],
        "cross_references": [
          {
            "type": "url_match",
            "text": "Applying Wood Preservatives",
            "url": "https://haz-map.com/Processes/160",
            "confidence": 1.0,
            "uuid": "f04d008f-6345-4199-a15d-51f765989cfa",
            "name": "Applying Wood Preservatives",
            "category": "processes"
          }
        ]
      }
    }
  },
  "cross_references": [
    {
      "type": "url_match",
      "text": "Cataract, chemical or radiation induced",
      "url": "https://haz-map.com/Diseases/308",
      "confidence": 1.0,
      "uuid": "5972a0ee-7174-461f-9b09-65815de7bc26",
      "name": "Cataract, chemical or radiation induced",
      "category": "diseases"
    },
    {
      "type": "url_match",
      "text": "Pentachlorophenol/Dinitrophenol, acute poisoning",
      "url": "https://haz-map.com/Diseases/160",
      "confidence": 1.0,
      "uuid": "ebc7c16f-be74-4bc3-8817-baa9a17eec5c",
      "name": "Pentachlorophenol/Dinitrophenol, acute poisoning",
      "category": "diseases"
    },
    {
      "type": "url_match",
      "text": "Applying Wood Preservatives",
      "url": "https://haz-map.com/Processes/160",
      "confidence": 1.0,
      "uuid": "f04d008f-6345-4199-a15d-51f765989cfa",
      "name": "Applying Wood Preservatives",
      "category": "processes"
    },
    {
      "type": "name_match",
      "text": "cataract",
      "confidence": 1.0,
      "uuid": "3e1b6957-4241-488a-8796-192306a93517",
      "name": "cataract",
      "url": "https://haz-map.com/Findings/131",
      "category": "findings"
    },
    {
      "type": "name_match",
      "text": "burn",
      "confidence": 1.0,
      "uuid": "63665de5-6376-4918-8dbf-4c10c4d63837",
      "name": "burn",
      "url": "https://haz-map.com/Findings/204",
      "category": "findings"
    },
    {
      "type": "name_match",
      "text": "pentachlorophenol",
      "confidence": 1.0,
      "uuid": "932cef10-2ea1-446c-8acd-cf572d61731b",
      "name": "Pentachlorophenol",
      "url": "https://haz-map.com/Agents/36",
      "category": "agents"
    },
    {
      "type": "name_match",
      "text": "phenol",
      "confidence": 1.0,
      "uuid": "03141a03-a7df-4f51-9a37-adde1a7c4b31",
      "name": "Phenol",
      "url": "https://haz-map.com/Agents/84",
      "category": "agents"
    },
    {
      "type": "name_match",
      "text": "mica",
      "confidence": 1.0,
      "uuid": "433f26f1-c399-4596-b179-ce3843cfd465",
      "name": "Mica",
      "url": "https://haz-map.com/Agents/621",
      "category": "agents"
    },
    {
      "type": "name_match",
      "text": "dinitrophenol",
      "confidence": 1.0,
      "uuid": "6335b5e4-a456-4dd1-a0ca-6671d9371e92",
      "name": "Dinitrophenol",
      "url": "https://haz-map.com/Agents/683",
      "category": "agents"
    },
    {
      "type": "name_match",
      "text": "nitrogen",
      "confidence": 1.0,
      "uuid": "db5e90a9-06d2-45b9-8b81-f345a89b0bc0",
      "name": "Nitrogen",
      "url": "https://haz-map.com/Agents/1072",
      "category": "agents"
    },
    {
      "type": "name_match",
      "text": "ht",
      "confidence": 1.0,
      "uuid": "764df367-8d53-4a11-81a2-31ccfe122a8d",
      "name": "HT",
      "url": "https://haz-map.com/Agents/2168",
      "category": "agents"
    },
    {
      "type": "name_match",
      "text": "2,6-dinitrophenol",
      "confidence": 1.0,
      "uuid": "26f21dc0-c4e0-405d-a91d-6de110e5f35a",
      "name": "2,6-Dinitrophenol",
      "url": "https://haz-map.com/Agents/3047",
      "category": "agents"
    },
    {
      "type": "name_match",
      "text": "nitrofen",
      "confidence": 1.0,
      "uuid": "edffc9d8-cb1b-4889-af6e-b0efc2a70f02",
      "name": "Nitrofen",
      "url": "https://haz-map.com/Agents/6349",
      "category": "agents"
    },
    {
      "type": "name_match",
      "text": "methemoglobin",
      "confidence": 1.0,
      "uuid": "afb7ebf5-d2a3-4e60-8d2e-3a19456344ee",
      "name": "Methemoglobin",
      "url": "https://haz-map.com/Agents/15467",
      "category": "agents"
    },
    {
      "type": "name_match",
      "text": "water",
      "confidence": 1.0,
      "uuid": "6f2a7557-dfd2-49bc-9b4b-a93cd8e225d4",
      "name": "Water",
      "url": "https://haz-map.com/Agents/18668",
      "category": "agents"
    },
    {
      "type": "fuzzy_match",
      "text": "methemoglobinemia",
      "matched_name": "Methemoglobinemia, acute",
      "confidence": 0.7208333333333333,
      "uuid": "473a44bd-cf11-4710-a769-e8e2b25ba317",
      "category": "diseases",
      "url": "https://haz-map.com/Diseases/210"
    }
  ],
  "all_links": [
    {
      "text": "Search PubMed",
      "url": "https://www.ncbi.nlm.nih.gov/pubmed?term=2%2c6-Dinitrophenol%20AND%20human%5Bmh%5D%20AND%20%28Occupational%20Diseases%20%5Bmh%5D%20OR%20Occupational%20Exposure%20%5Bmh%5D%29%20%20AND%20%28tox%5Bsb%5D%29&cmd=search"
    },
    {
      "text": "Acute tubular necrosis",
      "url": "https://haz-map.com/Diseases/656"
    },
    {
      "text": "Cataract, chemical or radiation induced",
      "url": "https://haz-map.com/Diseases/308"
    },
    {
      "text": "Pentachlorophenol/Dinitrophenol, acute poisoning",
      "url": "https://haz-map.com/Diseases/160"
    },
    {
      "text": "Applying Wood Preservatives",
      "url": "https://haz-map.com/Processes/160"
    }
  ]
}