{
  "metadata": {
    "scraped_from": "https://haz-map.com/Agents/3923",
    "entity_name": "Binapacryl",
    "category": "agents",
    "uuid": "279834e7-1ea8-481e-a16b-acfda00f0b99",
    "scraped_at": "2025-07-23T19:34:43.380374"
  },
  "parsed_at": "2025-07-24T01:00:23.343329",
  "title": "Binapacryl",
  "sections": {
    "general": {
      "agent_name": {
        "original_name": "Agent Name",
        "value": "Binapacryl",
        "links": [],
        "cross_references": [
          {
            "type": "name_match",
            "text": "binapacryl",
            "confidence": 1.0,
            "uuid": "279834e7-1ea8-481e-a16b-acfda00f0b99",
            "name": "Binapacryl",
            "url": "https://haz-map.com/Agents/3923",
            "category": "agents"
          }
        ]
      },
      "cas_number": {
        "original_name": "CAS Number",
        "value": "485-31-4",
        "links": [],
        "cross_references": []
      },
      "formula": {
        "original_name": "Formula",
        "value": "C15-H18-N2-O6",
        "links": [],
        "cross_references": []
      },
      "major_category": {
        "original_name": "Major Category",
        "value": "Pesticides",
        "links": [],
        "cross_references": []
      },
      "synonyms": {
        "original_name": "Synonyms",
        "value": "(6-(1-Methyl-propyl)-2,4-dinitro-fenyl)-3,3-dimethyl-acrylaat [Dutch]; (6-(1-Methyl-propyl)-2,4-dinitro-phenyl)-3,3-dimethyl-acrylat [German]; (6-(1-Metil-propil)-2,4-dinitro-fenil)-3,3-dimetil-acrilato; [Italian]; 2,4-Dinitro-6-sec-butylphenyl 2-methylcrotonate; 2-(1-Methylpropyl)-4,6-dinitrophenyl 3,3-dimethylacrylate; 2-(1-Methylpropyl)-4,6-dinitrophenyl 3-methyl-2-butenoate; 2-(1-Methylpropyl)-4,6-dinitrophenyl beta,beta-dimethacrylate; 2-Butenoic acid, 3-methyl-, 2-(1-methylpropyl)-4,6-dinitrophenyl ester; 2-sec-Butyl-4,6-dinitrophenyl 3-methyl-2-butenoate; 2-sec-Butyl-4,6-dinitrophenyl 3-methylcrotonate; 2-sec-Butyl-4,6-dinitrophenyl beta,beta-dimethylacrylate; 2-sec-Butyl-4,6-dinitrophenyl senecioate; 2-sec-Butyl-4,6-dinitrophenyl-3,3-dimethylacrylate; 2-sek.Butyl-4,6-dinitrofenylester kyseliny 3-methylkrotonove [Czech]; 3,3 Dimethyl-acrylate de 2,4-dinitro-6-(1-methylpropyle) phenyle [French]; 3,3 dimethyl-acrylate de 2,4-dinitro-6-(1-methylpropyle)phenyl [French]; 3,3 dimethyl-acrylate de 2,4-dinitro-6-(1-methylpropyle)phenyle [French]; 3,3-Dimethylacrylic acid 2-sec-butyl-4,6-dinitrophenyl ester; 3-Methyl-2-butenoic acid 2-(1-methylpropyl)-4,6-dinitrophenyl ester; 3-Methyl-2-butenoic acid 2-sec-butyl-4,6-dinitrophenyl ester; 3-Methylcrotonic acid 2-sec-butyl-4,6-dinitrophenyl ester; 4,6-Dinitro-2-sec-butylphenyl beta,beta-dimethylacrylate; 4,6-Dinitrophenyl-2-sec-butyl-3-methyl-2-butenonate; Acricid; Ambox; Crotonic acid, 3-methyl-, 2-sec-butyl-4,6-dinitrophenyl ester; Dapacryl; Dinapacryl; Dinoseb methacrylate; Dinoseb, 3,3-dimethylacryl ester; Endosan; FMC 9044; HOE 2784; HOE 2784 OA; Morocide; Morrocid; NIA 9044; Niagara 9044; Phenol, 2-sec-butyl-4,6-dinitro-, 3-methylcrotonate; Senecioic acid 2-sec butyl-4,6-dinitrophenyl ester; Senecioic acid 2-sec-butyl-4,6-dinitrophenyl ester; [ChemIDplus] UN2779",
        "links": [],
        "cross_references": [
          {
            "type": "name_match",
            "text": "acrylic acid",
            "confidence": 1.0,
            "uuid": "c8e65755-0f00-4e14-91fe-d4fa705d17da",
            "name": "Acrylic acid",
            "url": "https://haz-map.com/Agents/67",
            "category": "agents"
          },
          {
            "type": "name_match",
            "text": "phenol",
            "confidence": 1.0,
            "uuid": "03141a03-a7df-4f51-9a37-adde1a7c4b31",
            "name": "Phenol",
            "url": "https://haz-map.com/Agents/84",
            "category": "agents"
          },
          {
            "type": "name_match",
            "text": "2,4-d",
            "confidence": 1.0,
            "uuid": "bed35f54-2d93-4ffd-a3ee-723ab365faf1",
            "name": "2,4-D",
            "url": "https://haz-map.com/Agents/389",
            "category": "agents"
          },
          {
            "type": "name_match",
            "text": "tali",
            "confidence": 1.0,
            "uuid": "8c3a0f99-2143-4122-b539-ec5cc49596b0",
            "name": "Tali",
            "url": "https://haz-map.com/Agents/1128",
            "category": "agents"
          },
          {
            "type": "name_match",
            "text": "crotonic acid",
            "confidence": 1.0,
            "uuid": "e74d2406-8ee5-4a5f-b0cc-3575bb476716",
            "name": "Crotonic acid",
            "url": "https://haz-map.com/Agents/4536",
            "category": "agents"
          },
          {
            "type": "name_match",
            "text": "nitrofen",
            "confidence": 1.0,
            "uuid": "edffc9d8-cb1b-4889-af6e-b0efc2a70f02",
            "name": "Nitrofen",
            "url": "https://haz-map.com/Agents/6349",
            "category": "agents"
          },
          {
            "type": "name_match",
            "text": "agar",
            "confidence": 1.0,
            "uuid": "6736375b-51bf-4ffa-9f36-f145228d4f0d",
            "name": "Agar",
            "url": "https://haz-map.com/Agents/11402",
            "category": "agents"
          },
          {
            "type": "name_match",
            "text": "3-methylcrotonic acid",
            "confidence": 1.0,
            "uuid": "cee19b1a-c6b8-411f-8653-58e8b89aaaca",
            "name": "3-Methylcrotonic acid",
            "url": "https://haz-map.com/Agents/19714",
            "category": "agents"
          },
          {
            "type": "fuzzy_match",
            "text": "3-dimethylacrylate",
            "matched_name": "Ethyl 3,3-dimethylacrylate",
            "confidence": 0.7794871794871795,
            "uuid": "f20096c8-ab90-406c-bba4-dcce3aeb39c7",
            "category": "agents",
            "url": "https://haz-map.com/Agents/20702"
          }
        ]
      },
      "category": {
        "original_name": "Category",
        "value": "Other Insecticides",
        "links": [],
        "cross_references": []
      },
      "description": {
        "original_name": "Description",
        "value": "Colorless solid; Insoluble in water; [ICSC] Pale yellow powder; Insoluble in water; [MSDSonline]",
        "links": [],
        "cross_references": [
          {
            "type": "name_match",
            "text": "water",
            "confidence": 1.0,
            "uuid": "6f2a7557-dfd2-49bc-9b4b-a93cd8e225d4",
            "name": "Water",
            "url": "https://haz-map.com/Agents/18668",
            "category": "agents"
          }
        ]
      },
      "sourcesuses": {
        "original_name": "Sources/Uses",
        "value": "Used as an acaricide and fungicide; [Hawley] Manufactured by Hoechst until 1987; No current manufacturer; [Reference #1]",
        "links": [],
        "cross_references": [
          {
            "type": "name_match",
            "text": "fungi",
            "confidence": 1.0,
            "uuid": "e0d489cb-bfee-4aee-b665-999c017268a2",
            "name": "Fungi",
            "url": "https://haz-map.com/Agents/1988",
            "category": "agents"
          }
        ]
      },
      "comments": {
        "original_name": "Comments",
        "value": "May be absorbed through skin; \"The substance may cause effects on the metabolism, resulting in high body temperature and sweating.\" [ICSC] In high-dose animal studies, causes somnolence and seizures; [RTECS] A dinitrophenol that uncouples oxidative metabolism--toxic to the liver, kidneys, and CNS; Most occupational poisoning cases occur in workers exposed in a hot environment; Dinitrophenols can also cause cataracts and yellow staining of the skin; [Reference #1]",
        "links": [],
        "cross_references": [
          {
            "type": "name_match",
            "text": "cataract",
            "confidence": 1.0,
            "uuid": "3e1b6957-4241-488a-8796-192306a93517",
            "name": "cataract",
            "url": "https://haz-map.com/Findings/131",
            "category": "findings"
          },
          {
            "type": "name_match",
            "text": "phenol",
            "confidence": 1.0,
            "uuid": "03141a03-a7df-4f51-9a37-adde1a7c4b31",
            "name": "Phenol",
            "url": "https://haz-map.com/Agents/84",
            "category": "agents"
          },
          {
            "type": "name_match",
            "text": "dinitrophenol",
            "confidence": 1.0,
            "uuid": "6335b5e4-a456-4dd1-a0ca-6671d9371e92",
            "name": "Dinitrophenol",
            "url": "https://haz-map.com/Agents/683",
            "category": "agents"
          },
          {
            "type": "name_match",
            "text": "iron",
            "confidence": 1.0,
            "uuid": "a6101f16-ec31-4d6c-af41-cbdbda5b1c7c",
            "name": "Iron",
            "url": "https://haz-map.com/Agents/1993",
            "category": "agents"
          }
        ]
      },
      "restricted": {
        "original_name": "Restricted",
        "value": "Banned in the EU; [Reference #1]",
        "links": [],
        "cross_references": []
      },
      "reference_link_1": {
        "original_name": "Reference Link #1",
        "value": "Rotterdam Convention: Decision Guidance Documents - Binapacryl - 2004",
        "links": [
          {
            "text": "Rotterdam Convention: Decision Guidance Documents - Binapacryl - 2004",
            "url": "http://www.eeaa.gov.eg/cmuic/cmuic_pdfs/pic-doc/Decision%20guidance%20document/Decision%20Guidance%20Document%20pdf/BpacrylEN.pdf"
          }
        ],
        "cross_references": [
          {
            "type": "name_match",
            "text": "binapacryl",
            "confidence": 1.0,
            "uuid": "279834e7-1ea8-481e-a16b-acfda00f0b99",
            "name": "Binapacryl",
            "url": "https://haz-map.com/Agents/3923",
            "category": "agents"
          }
        ]
      },
      "biomedical_references": {
        "original_name": "Biomedical References",
        "value": "Search PubMed",
        "links": [
          {
            "text": "Search PubMed",
            "url": "https://www.ncbi.nlm.nih.gov/pubmed?term=Binapacryl%20AND%20human%5Bmh%5D%20AND%20%28Occupational%20Diseases%20%5Bmh%5D%20OR%20Occupational%20Exposure%20%5Bmh%5D%29%20%20AND%20%28tox%5Bsb%5D%29&cmd=search"
          }
        ],
        "cross_references": []
      }
    },
    "exposure_assessment": {
      "vapor_pressure": {
        "original_name": "Vapor Pressure",
        "value": "3.16E-07 mm Hg",
        "links": [],
        "cross_references": []
      },
      "explanatory_notes": {
        "original_name": "Explanatory Notes",
        "value": "VP = 1x10-4 mm Hg at 60 deg C; [HSDB] The Guide in the Emergency Response Guidebook is for \"Substituted nitrophemol pesticide, solid, toxic.\"",
        "links": [],
        "cross_references": []
      }
    },
    "adverse_effects": {
      "hepatotoxin": {
        "original_name": "Hepatotoxin",
        "value": "Hepatoxic (a) from occupational exposure (secondary effect) or (b) in animal studies or in humans after ingestion",
        "links": [],
        "cross_references": []
      },
      "other_poison": {
        "original_name": "Other Poison",
        "value": "Uncoupler",
        "links": [],
        "cross_references": []
      }
    },
    "diseases_processes_and_activities_linked_to_this_agent": {
      "diseases": {
        "original_name": "Diseases",
        "value": "Occupational diseases associated with exposure to this agent: Acute tubular necrosis Pentachlorophenol/Dinitrophenol, acute poisoning",
        "links": [
          {
            "text": "Acute tubular necrosis",
            "url": "https://haz-map.com/Diseases/656"
          },
          {
            "text": "Pentachlorophenol/Dinitrophenol, acute poisoning",
            "url": "https://haz-map.com/Diseases/160"
          }
        ],
        "cross_references": [
          {
            "type": "url_match",
            "text": "Pentachlorophenol/Dinitrophenol, acute poisoning",
            "url": "https://haz-map.com/Diseases/160",
            "confidence": 1.0,
            "uuid": "ebc7c16f-be74-4bc3-8817-baa9a17eec5c",
            "name": "Pentachlorophenol/Dinitrophenol, acute poisoning",
            "category": "diseases"
          },
          {
            "type": "name_match",
            "text": "pentachlorophenol",
            "confidence": 1.0,
            "uuid": "932cef10-2ea1-446c-8acd-cf572d61731b",
            "name": "Pentachlorophenol",
            "url": "https://haz-map.com/Agents/36",
            "category": "agents"
          },
          {
            "type": "name_match",
            "text": "phenol",
            "confidence": 1.0,
            "uuid": "03141a03-a7df-4f51-9a37-adde1a7c4b31",
            "name": "Phenol",
            "url": "https://haz-map.com/Agents/84",
            "category": "agents"
          },
          {
            "type": "name_match",
            "text": "dinitrophenol",
            "confidence": 1.0,
            "uuid": "6335b5e4-a456-4dd1-a0ca-6671d9371e92",
            "name": "Dinitrophenol",
            "url": "https://haz-map.com/Agents/683",
            "category": "agents"
          }
        ]
      },
      "processes": {
        "original_name": "Processes",
        "value": "Industrial Processes with risk of exposure: Farming (Pesticides)",
        "links": [
          {
            "text": "Farming (Pesticides)",
            "url": "https://haz-map.com/Processes/218"
          }
        ],
        "cross_references": [
          {
            "type": "url_match",
            "text": "Farming (Pesticides)",
            "url": "https://haz-map.com/Processes/218",
            "confidence": 1.0,
            "uuid": "cf1e5815-c9bb-4917-82a5-391848170b7e",
            "name": "Farming (Pesticides)",
            "category": "processes"
          }
        ]
      }
    }
  },
  "cross_references": [
    {
      "type": "url_match",
      "text": "Pentachlorophenol/Dinitrophenol, acute poisoning",
      "url": "https://haz-map.com/Diseases/160",
      "confidence": 1.0,
      "uuid": "ebc7c16f-be74-4bc3-8817-baa9a17eec5c",
      "name": "Pentachlorophenol/Dinitrophenol, acute poisoning",
      "category": "diseases"
    },
    {
      "type": "url_match",
      "text": "Farming (Pesticides)",
      "url": "https://haz-map.com/Processes/218",
      "confidence": 1.0,
      "uuid": "cf1e5815-c9bb-4917-82a5-391848170b7e",
      "name": "Farming (Pesticides)",
      "category": "processes"
    },
    {
      "type": "name_match",
      "text": "cataract",
      "confidence": 1.0,
      "uuid": "3e1b6957-4241-488a-8796-192306a93517",
      "name": "cataract",
      "url": "https://haz-map.com/Findings/131",
      "category": "findings"
    },
    {
      "type": "name_match",
      "text": "pentachlorophenol",
      "confidence": 1.0,
      "uuid": "932cef10-2ea1-446c-8acd-cf572d61731b",
      "name": "Pentachlorophenol",
      "url": "https://haz-map.com/Agents/36",
      "category": "agents"
    },
    {
      "type": "name_match",
      "text": "acrylic acid",
      "confidence": 1.0,
      "uuid": "c8e65755-0f00-4e14-91fe-d4fa705d17da",
      "name": "Acrylic acid",
      "url": "https://haz-map.com/Agents/67",
      "category": "agents"
    },
    {
      "type": "name_match",
      "text": "phenol",
      "confidence": 1.0,
      "uuid": "03141a03-a7df-4f51-9a37-adde1a7c4b31",
      "name": "Phenol",
      "url": "https://haz-map.com/Agents/84",
      "category": "agents"
    },
    {
      "type": "name_match",
      "text": "2,4-d",
      "confidence": 1.0,
      "uuid": "bed35f54-2d93-4ffd-a3ee-723ab365faf1",
      "name": "2,4-D",
      "url": "https://haz-map.com/Agents/389",
      "category": "agents"
    },
    {
      "type": "name_match",
      "text": "dinitrophenol",
      "confidence": 1.0,
      "uuid": "6335b5e4-a456-4dd1-a0ca-6671d9371e92",
      "name": "Dinitrophenol",
      "url": "https://haz-map.com/Agents/683",
      "category": "agents"
    },
    {
      "type": "name_match",
      "text": "tali",
      "confidence": 1.0,
      "uuid": "8c3a0f99-2143-4122-b539-ec5cc49596b0",
      "name": "Tali",
      "url": "https://haz-map.com/Agents/1128",
      "category": "agents"
    },
    {
      "type": "name_match",
      "text": "fungi",
      "confidence": 1.0,
      "uuid": "e0d489cb-bfee-4aee-b665-999c017268a2",
      "name": "Fungi",
      "url": "https://haz-map.com/Agents/1988",
      "category": "agents"
    },
    {
      "type": "name_match",
      "text": "iron",
      "confidence": 1.0,
      "uuid": "a6101f16-ec31-4d6c-af41-cbdbda5b1c7c",
      "name": "Iron",
      "url": "https://haz-map.com/Agents/1993",
      "category": "agents"
    },
    {
      "type": "name_match",
      "text": "binapacryl",
      "confidence": 1.0,
      "uuid": "279834e7-1ea8-481e-a16b-acfda00f0b99",
      "name": "Binapacryl",
      "url": "https://haz-map.com/Agents/3923",
      "category": "agents"
    },
    {
      "type": "name_match",
      "text": "crotonic acid",
      "confidence": 1.0,
      "uuid": "e74d2406-8ee5-4a5f-b0cc-3575bb476716",
      "name": "Crotonic acid",
      "url": "https://haz-map.com/Agents/4536",
      "category": "agents"
    },
    {
      "type": "name_match",
      "text": "nitrofen",
      "confidence": 1.0,
      "uuid": "edffc9d8-cb1b-4889-af6e-b0efc2a70f02",
      "name": "Nitrofen",
      "url": "https://haz-map.com/Agents/6349",
      "category": "agents"
    },
    {
      "type": "name_match",
      "text": "agar",
      "confidence": 1.0,
      "uuid": "6736375b-51bf-4ffa-9f36-f145228d4f0d",
      "name": "Agar",
      "url": "https://haz-map.com/Agents/11402",
      "category": "agents"
    },
    {
      "type": "name_match",
      "text": "water",
      "confidence": 1.0,
      "uuid": "6f2a7557-dfd2-49bc-9b4b-a93cd8e225d4",
      "name": "Water",
      "url": "https://haz-map.com/Agents/18668",
      "category": "agents"
    },
    {
      "type": "name_match",
      "text": "3-methylcrotonic acid",
      "confidence": 1.0,
      "uuid": "cee19b1a-c6b8-411f-8653-58e8b89aaaca",
      "name": "3-Methylcrotonic acid",
      "url": "https://haz-map.com/Agents/19714",
      "category": "agents"
    },
    {
      "type": "fuzzy_match",
      "text": "3-dimethylacrylate",
      "matched_name": "Ethyl 3,3-dimethylacrylate",
      "confidence": 0.7794871794871795,
      "uuid": "f20096c8-ab90-406c-bba4-dcce3aeb39c7",
      "category": "agents",
      "url": "https://haz-map.com/Agents/20702"
    }
  ],
  "all_links": [
    {
      "text": "Rotterdam Convention: Decision Guidance Documents - Binapacryl - 2004",
      "url": "http://www.eeaa.gov.eg/cmuic/cmuic_pdfs/pic-doc/Decision%20guidance%20document/Decision%20Guidance%20Document%20pdf/BpacrylEN.pdf"
    },
    {
      "text": "Search PubMed",
      "url": "https://www.ncbi.nlm.nih.gov/pubmed?term=Binapacryl%20AND%20human%5Bmh%5D%20AND%20%28Occupational%20Diseases%20%5Bmh%5D%20OR%20Occupational%20Exposure%20%5Bmh%5D%29%20%20AND%20%28tox%5Bsb%5D%29&cmd=search"
    },
    {
      "text": "Acute tubular necrosis",
      "url": "https://haz-map.com/Diseases/656"
    },
    {
      "text": "Pentachlorophenol/Dinitrophenol, acute poisoning",
      "url": "https://haz-map.com/Diseases/160"
    },
    {
      "text": "Farming (Pesticides)",
      "url": "https://haz-map.com/Processes/218"
    }
  ]
}