{
  "metadata": {
    "scraped_from": "https://haz-map.com/Agents/8582",
    "entity_name": "Octene",
    "category": "agents",
    "uuid": "27cad3f1-2dc5-4f69-b1a8-bd463c7c9774",
    "scraped_at": "2025-07-23T20:28:55.841392"
  },
  "parsed_at": "2025-07-24T01:16:00.244105",
  "title": "Octene",
  "sections": {
    "general": {
      "agent_name": {
        "original_name": "Agent Name",
        "value": "Octene",
        "links": [],
        "cross_references": [
          {
            "type": "name_match",
            "text": "octene",
            "confidence": 1.0,
            "uuid": "27cad3f1-2dc5-4f69-b1a8-bd463c7c9774",
            "name": "Octene",
            "url": "https://haz-map.com/Agents/8582",
            "category": "agents"
          }
        ]
      },
      "cas_number": {
        "original_name": "CAS Number",
        "value": "25377-83-7",
        "links": [],
        "cross_references": []
      },
      "formula": {
        "original_name": "Formula",
        "value": "C8-H16",
        "links": [],
        "cross_references": []
      },
      "major_category": {
        "original_name": "Major Category",
        "value": "Other Classes",
        "links": [],
        "cross_references": []
      },
      "synonyms": {
        "original_name": "Synonyms",
        "value": "Octylene; Caprylene; [HSDB]",
        "links": [],
        "cross_references": []
      },
      "category": {
        "original_name": "Category",
        "value": "Aliphatics, Unsaturated",
        "links": [],
        "cross_references": []
      },
      "description": {
        "original_name": "Description",
        "value": "Colorless liquid; [HSDB]",
        "links": [],
        "cross_references": []
      },
      "sourcesuses": {
        "original_name": "Sources/Uses",
        "value": "Present in gasoline and emitted in exhausts of automobiles, turbines, and breweries; Detected in food, e.g., hot cooking oils; Octene includes the following isomers: 1-Octene, 2-Octene (E), 2-Octene (Z), 3-Octene (E), 3-Octene (Z), 4-Octene (E), 4-Octene (Z); Used to make polymers, surfactants, and detergents; 1-Octene used as a chemical intermediate, plasticizer, surfactant, and comonomer to produce polyethylene; [HSDB] Di-n-butene (25377-83-7) is a mixture of octenes with boiling points in the range of 116-126 deg C; [Ullmann].",
        "links": [],
        "cross_references": [
          {
            "type": "name_match",
            "text": "gasoline",
            "confidence": 1.0,
            "uuid": "af15c833-3eae-46c5-9af4-2214858d7282",
            "name": "Gasoline",
            "url": "https://haz-map.com/Agents/410",
            "category": "agents"
          },
          {
            "type": "name_match",
            "text": "mica",
            "confidence": 1.0,
            "uuid": "433f26f1-c399-4596-b179-ce3843cfd465",
            "name": "Mica",
            "url": "https://haz-map.com/Agents/621",
            "category": "agents"
          },
          {
            "type": "name_match",
            "text": "polyethylene",
            "confidence": 1.0,
            "uuid": "49cd0ad9-abe0-4650-bb5b-a2e2e68f0cae",
            "name": "Polyethylene",
            "url": "https://haz-map.com/Agents/850",
            "category": "agents"
          },
          {
            "type": "name_match",
            "text": "ethylene",
            "confidence": 1.0,
            "uuid": "958eacc0-5135-4b62-bb93-6df972bf552f",
            "name": "Ethylene",
            "url": "https://haz-map.com/Agents/1076",
            "category": "agents"
          },
          {
            "type": "name_match",
            "text": "1-octene",
            "confidence": 1.0,
            "uuid": "9bdec4f0-51e8-46da-b552-8e0804f3e980",
            "name": "1-Octene",
            "url": "https://haz-map.com/Agents/2917",
            "category": "agents"
          },
          {
            "type": "name_match",
            "text": "2-octene",
            "confidence": 1.0,
            "uuid": "eff86d37-e489-4195-9cb7-c18cfdfb60bd",
            "name": "2-Octene",
            "url": "https://haz-map.com/Agents/8528",
            "category": "agents"
          },
          {
            "type": "name_match",
            "text": "octene",
            "confidence": 1.0,
            "uuid": "27cad3f1-2dc5-4f69-b1a8-bd463c7c9774",
            "name": "Octene",
            "url": "https://haz-map.com/Agents/8582",
            "category": "agents"
          },
          {
            "type": "name_match",
            "text": "3-octene",
            "confidence": 1.0,
            "uuid": "497d5cb6-6f49-4729-aa5c-f95c86cf44a2",
            "name": "3-Octene",
            "url": "https://haz-map.com/Agents/10815",
            "category": "agents"
          }
        ]
      },
      "comments": {
        "original_name": "Comments",
        "value": "May be a skin irritant; [HSDB] See \"1-Octene.\"",
        "links": [],
        "cross_references": [
          {
            "type": "name_match",
            "text": "1-octene",
            "confidence": 1.0,
            "uuid": "9bdec4f0-51e8-46da-b552-8e0804f3e980",
            "name": "1-Octene",
            "url": "https://haz-map.com/Agents/2917",
            "category": "agents"
          },
          {
            "type": "name_match",
            "text": "octene",
            "confidence": 1.0,
            "uuid": "27cad3f1-2dc5-4f69-b1a8-bd463c7c9774",
            "name": "Octene",
            "url": "https://haz-map.com/Agents/8582",
            "category": "agents"
          }
        ]
      },
      "biomedical_references": {
        "original_name": "Biomedical References",
        "value": "Search PubMed",
        "links": [
          {
            "text": "Search PubMed",
            "url": "https://www.ncbi.nlm.nih.gov/pubmed?term=Octene%20AND%20human%5Bmh%5D%20AND%20%28Occupational%20Diseases%20%5Bmh%5D%20OR%20Occupational%20Exposure%20%5Bmh%5D%29%20%20AND%20%28tox%5Bsb%5D%29&cmd=search"
          }
        ],
        "cross_references": []
      }
    },
    "exposure_assessment": {
      "vapor_pressure": {
        "original_name": "Vapor Pressure",
        "value": "2.03 mm Hg",
        "links": [],
        "cross_references": []
      },
      "explanatory_notes": {
        "original_name": "Explanatory Notes",
        "value": "VP from ChemIDplus;",
        "links": [],
        "cross_references": []
      }
    },
    "adverse_effects": {
      "neurotoxin": {
        "original_name": "Neurotoxin",
        "value": "Acute solvent syndrome",
        "links": [],
        "cross_references": []
      },
      "hepatotoxin": {
        "original_name": "Hepatotoxin",
        "value": "Hepatoxic (a) from occupational exposure (secondary effect) or (b) in animal studies or in humans after ingestion",
        "links": [],
        "cross_references": []
      }
    },
    "diseases_processes_and_activities_linked_to_this_agent": {
      "diseases": {
        "original_name": "Diseases",
        "value": "Occupational diseases associated with exposure to this agent: Solvents, acute toxic effect",
        "links": [
          {
            "text": "Solvents, acute toxic effect",
            "url": "https://haz-map.com/Diseases/326"
          }
        ],
        "cross_references": [
          {
            "type": "url_match",
            "text": "Solvents, acute toxic effect",
            "url": "https://haz-map.com/Diseases/326",
            "confidence": 1.0,
            "uuid": "581e90e3-9d0c-45f0-aa6c-3468c28da129",
            "name": "Solvents, acute toxic effect",
            "category": "diseases"
          }
        ]
      }
    }
  },
  "cross_references": [
    {
      "type": "url_match",
      "text": "Solvents, acute toxic effect",
      "url": "https://haz-map.com/Diseases/326",
      "confidence": 1.0,
      "uuid": "581e90e3-9d0c-45f0-aa6c-3468c28da129",
      "name": "Solvents, acute toxic effect",
      "category": "diseases"
    },
    {
      "type": "name_match",
      "text": "gasoline",
      "confidence": 1.0,
      "uuid": "af15c833-3eae-46c5-9af4-2214858d7282",
      "name": "Gasoline",
      "url": "https://haz-map.com/Agents/410",
      "category": "agents"
    },
    {
      "type": "name_match",
      "text": "mica",
      "confidence": 1.0,
      "uuid": "433f26f1-c399-4596-b179-ce3843cfd465",
      "name": "Mica",
      "url": "https://haz-map.com/Agents/621",
      "category": "agents"
    },
    {
      "type": "name_match",
      "text": "polyethylene",
      "confidence": 1.0,
      "uuid": "49cd0ad9-abe0-4650-bb5b-a2e2e68f0cae",
      "name": "Polyethylene",
      "url": "https://haz-map.com/Agents/850",
      "category": "agents"
    },
    {
      "type": "name_match",
      "text": "ethylene",
      "confidence": 1.0,
      "uuid": "958eacc0-5135-4b62-bb93-6df972bf552f",
      "name": "Ethylene",
      "url": "https://haz-map.com/Agents/1076",
      "category": "agents"
    },
    {
      "type": "name_match",
      "text": "1-octene",
      "confidence": 1.0,
      "uuid": "9bdec4f0-51e8-46da-b552-8e0804f3e980",
      "name": "1-Octene",
      "url": "https://haz-map.com/Agents/2917",
      "category": "agents"
    },
    {
      "type": "name_match",
      "text": "2-octene",
      "confidence": 1.0,
      "uuid": "eff86d37-e489-4195-9cb7-c18cfdfb60bd",
      "name": "2-Octene",
      "url": "https://haz-map.com/Agents/8528",
      "category": "agents"
    },
    {
      "type": "name_match",
      "text": "octene",
      "confidence": 1.0,
      "uuid": "27cad3f1-2dc5-4f69-b1a8-bd463c7c9774",
      "name": "Octene",
      "url": "https://haz-map.com/Agents/8582",
      "category": "agents"
    },
    {
      "type": "name_match",
      "text": "3-octene",
      "confidence": 1.0,
      "uuid": "497d5cb6-6f49-4729-aa5c-f95c86cf44a2",
      "name": "3-Octene",
      "url": "https://haz-map.com/Agents/10815",
      "category": "agents"
    }
  ],
  "all_links": [
    {
      "text": "Search PubMed",
      "url": "https://www.ncbi.nlm.nih.gov/pubmed?term=Octene%20AND%20human%5Bmh%5D%20AND%20%28Occupational%20Diseases%20%5Bmh%5D%20OR%20Occupational%20Exposure%20%5Bmh%5D%29%20%20AND%20%28tox%5Bsb%5D%29&cmd=search"
    },
    {
      "text": "Solvents, acute toxic effect",
      "url": "https://haz-map.com/Diseases/326"
    }
  ]
}