{
  "metadata": {
    "scraped_from": "https://haz-map.com/Agents/7914",
    "entity_name": "1,4-Hexadiene",
    "category": "agents",
    "uuid": "27e54e37-45f9-4894-93be-fbd4c02e9bd6",
    "scraped_at": "2025-07-23T20:18:50.932976"
  },
  "parsed_at": "2025-07-24T01:18:47.470557",
  "title": "1,4-Hexadiene",
  "sections": {
    "general": {
      "agent_name": {
        "original_name": "Agent Name",
        "value": "1,4-Hexadiene",
        "links": [],
        "cross_references": [
          {
            "type": "name_match",
            "text": "1,4-hexadiene",
            "confidence": 1.0,
            "uuid": "27e54e37-45f9-4894-93be-fbd4c02e9bd6",
            "name": "1,4-Hexadiene",
            "url": "https://haz-map.com/Agents/7914",
            "category": "agents"
          },
          {
            "type": "fuzzy_match",
            "text": "4-hexadiene",
            "matched_name": "2,4-Hexadiene",
            "confidence": 0.8321678321678322,
            "uuid": "23468ff8-0423-4fb4-b9eb-67daea26eab9",
            "category": "agents",
            "url": "https://haz-map.com/Agents/9627"
          }
        ]
      },
      "cas_number": {
        "original_name": "CAS Number",
        "value": "592-45-0",
        "links": [],
        "cross_references": []
      },
      "formula": {
        "original_name": "Formula",
        "value": "C6-H10",
        "links": [],
        "cross_references": []
      },
      "major_category": {
        "original_name": "Major Category",
        "value": "Plastics & Rubber",
        "links": [],
        "cross_references": []
      },
      "synonyms": {
        "original_name": "Synonyms",
        "value": "1-Allylpropene; Allylpropenyl; [ChemIDplus] UN2458",
        "links": [],
        "cross_references": []
      },
      "category": {
        "original_name": "Category",
        "value": "Other Monomers",
        "links": [],
        "cross_references": []
      },
      "description": {
        "original_name": "Description",
        "value": "Colorless liquid; [HSDB]",
        "links": [],
        "cross_references": []
      },
      "sourcesuses": {
        "original_name": "Sources/Uses",
        "value": "Used as the third monomer in ethylene-propylene diene monomer (EPDM) synthetic elastomers; [HSDB]",
        "links": [],
        "cross_references": [
          {
            "type": "name_match",
            "text": "ethylene",
            "confidence": 1.0,
            "uuid": "958eacc0-5135-4b62-bb93-6df972bf552f",
            "name": "Ethylene",
            "url": "https://haz-map.com/Agents/1076",
            "category": "agents"
          },
          {
            "type": "name_match",
            "text": "propylene",
            "confidence": 1.0,
            "uuid": "78ac73a1-0029-4a50-b283-561134c72041",
            "name": "Propylene",
            "url": "https://haz-map.com/Agents/1078",
            "category": "agents"
          }
        ]
      },
      "comments": {
        "original_name": "Comments",
        "value": "Causes tremors and unconsciousness in lethal concentration studies; Rats survived, but 4/4 mice died when exposed to 3620 ppm, 6 hours per day for 2 days; [AIHA] An irritant; [MSDSonline] See \"trans-1,3-Pentadiene.\"",
        "links": [],
        "cross_references": [
          {
            "type": "name_match",
            "text": "tremor",
            "confidence": 1.0,
            "uuid": "5532ab3c-17c6-467e-a96a-d8807c63fb9e",
            "name": "tremor",
            "url": "https://haz-map.com/Findings/50",
            "category": "findings"
          },
          {
            "type": "name_match",
            "text": "1,3-pentadiene",
            "confidence": 1.0,
            "uuid": "7f7aae9d-ed68-4a1c-8823-076958057c36",
            "name": "1,3-Pentadiene",
            "url": "https://haz-map.com/Agents/1545",
            "category": "agents"
          },
          {
            "type": "name_match",
            "text": "trans-1,3-pentadiene",
            "confidence": 1.0,
            "uuid": "12d07722-dbf9-4ba3-8e8d-2f0bc0eb0600",
            "name": "trans-1,3-Pentadiene",
            "url": "https://haz-map.com/Agents/7481",
            "category": "agents"
          }
        ]
      },
      "biomedical_references": {
        "original_name": "Biomedical References",
        "value": "Search PubMed",
        "links": [
          {
            "text": "Search PubMed",
            "url": "https://www.ncbi.nlm.nih.gov/pubmed?term=1%2c4-Hexadiene%20AND%20human%5Bmh%5D%20AND%20%28Occupational%20Diseases%20%5Bmh%5D%20OR%20Occupational%20Exposure%20%5Bmh%5D%29%20%20AND%20%28tox%5Bsb%5D%29&cmd=search"
          }
        ],
        "cross_references": []
      }
    },
    "exposure_assessment": {
      "vapor_pressure": {
        "original_name": "Vapor Pressure",
        "value": "172 mm Hg",
        "links": [],
        "cross_references": []
      },
      "explanatory_notes": {
        "original_name": "Explanatory Notes",
        "value": "Flash point = -21 deg C; [HSDB] VP from ChemIDplus;",
        "links": [],
        "cross_references": [
          {
            "type": "name_match",
            "text": "ash",
            "confidence": 1.0,
            "uuid": "68b360f1-5ad0-4337-bea0-d7adca2961b5",
            "name": "Ash",
            "url": "https://haz-map.com/Agents/965",
            "category": "agents"
          }
        ]
      },
      "weel": {
        "original_name": "WEEL",
        "value": "10 ppm",
        "links": [],
        "cross_references": []
      }
    },
    "adverse_effects": {
      "neurotoxin": {
        "original_name": "Neurotoxin",
        "value": "Acute solvent syndrome",
        "links": [],
        "cross_references": []
      }
    },
    "diseases_processes_and_activities_linked_to_this_agent": {
      "diseases": {
        "original_name": "Diseases",
        "value": "Occupational diseases associated with exposure to this agent: Solvents, acute toxic effect",
        "links": [
          {
            "text": "Solvents, acute toxic effect",
            "url": "https://haz-map.com/Diseases/326"
          }
        ],
        "cross_references": [
          {
            "type": "url_match",
            "text": "Solvents, acute toxic effect",
            "url": "https://haz-map.com/Diseases/326",
            "confidence": 1.0,
            "uuid": "581e90e3-9d0c-45f0-aa6c-3468c28da129",
            "name": "Solvents, acute toxic effect",
            "category": "diseases"
          }
        ]
      }
    }
  },
  "cross_references": [
    {
      "type": "url_match",
      "text": "Solvents, acute toxic effect",
      "url": "https://haz-map.com/Diseases/326",
      "confidence": 1.0,
      "uuid": "581e90e3-9d0c-45f0-aa6c-3468c28da129",
      "name": "Solvents, acute toxic effect",
      "category": "diseases"
    },
    {
      "type": "name_match",
      "text": "tremor",
      "confidence": 1.0,
      "uuid": "5532ab3c-17c6-467e-a96a-d8807c63fb9e",
      "name": "tremor",
      "url": "https://haz-map.com/Findings/50",
      "category": "findings"
    },
    {
      "type": "name_match",
      "text": "ash",
      "confidence": 1.0,
      "uuid": "68b360f1-5ad0-4337-bea0-d7adca2961b5",
      "name": "Ash",
      "url": "https://haz-map.com/Agents/965",
      "category": "agents"
    },
    {
      "type": "name_match",
      "text": "ethylene",
      "confidence": 1.0,
      "uuid": "958eacc0-5135-4b62-bb93-6df972bf552f",
      "name": "Ethylene",
      "url": "https://haz-map.com/Agents/1076",
      "category": "agents"
    },
    {
      "type": "name_match",
      "text": "propylene",
      "confidence": 1.0,
      "uuid": "78ac73a1-0029-4a50-b283-561134c72041",
      "name": "Propylene",
      "url": "https://haz-map.com/Agents/1078",
      "category": "agents"
    },
    {
      "type": "name_match",
      "text": "1,3-pentadiene",
      "confidence": 1.0,
      "uuid": "7f7aae9d-ed68-4a1c-8823-076958057c36",
      "name": "1,3-Pentadiene",
      "url": "https://haz-map.com/Agents/1545",
      "category": "agents"
    },
    {
      "type": "name_match",
      "text": "trans-1,3-pentadiene",
      "confidence": 1.0,
      "uuid": "12d07722-dbf9-4ba3-8e8d-2f0bc0eb0600",
      "name": "trans-1,3-Pentadiene",
      "url": "https://haz-map.com/Agents/7481",
      "category": "agents"
    },
    {
      "type": "name_match",
      "text": "1,4-hexadiene",
      "confidence": 1.0,
      "uuid": "27e54e37-45f9-4894-93be-fbd4c02e9bd6",
      "name": "1,4-Hexadiene",
      "url": "https://haz-map.com/Agents/7914",
      "category": "agents"
    },
    {
      "type": "fuzzy_match",
      "text": "4-hexadiene",
      "matched_name": "2,4-Hexadiene",
      "confidence": 0.8321678321678322,
      "uuid": "23468ff8-0423-4fb4-b9eb-67daea26eab9",
      "category": "agents",
      "url": "https://haz-map.com/Agents/9627"
    }
  ],
  "all_links": [
    {
      "text": "Search PubMed",
      "url": "https://www.ncbi.nlm.nih.gov/pubmed?term=1%2c4-Hexadiene%20AND%20human%5Bmh%5D%20AND%20%28Occupational%20Diseases%20%5Bmh%5D%20OR%20Occupational%20Exposure%20%5Bmh%5D%29%20%20AND%20%28tox%5Bsb%5D%29&cmd=search"
    },
    {
      "text": "Solvents, acute toxic effect",
      "url": "https://haz-map.com/Diseases/326"
    }
  ]
}