{
  "metadata": {
    "scraped_from": "https://haz-map.com/Agents/17855",
    "entity_name": "Taurine",
    "category": "agents",
    "uuid": "27f7bf71-0f9b-40f5-9fdc-f7402c9a3a2f",
    "scraped_at": "2025-07-23T21:50:10.777135"
  },
  "parsed_at": "2025-07-24T01:04:09.878368",
  "title": "Taurine",
  "sections": {
    "general": {
      "agent_name": {
        "original_name": "Agent Name",
        "value": "Taurine",
        "links": [],
        "cross_references": [
          {
            "type": "name_match",
            "text": "aurin",
            "confidence": 1.0,
            "uuid": "d84a3e17-c22e-49c8-a819-c0f493df6b46",
            "name": "Aurin",
            "url": "https://haz-map.com/Agents/12002",
            "category": "agents"
          },
          {
            "type": "name_match",
            "text": "taurine",
            "confidence": 1.0,
            "uuid": "27f7bf71-0f9b-40f5-9fdc-f7402c9a3a2f",
            "name": "Taurine",
            "url": "https://haz-map.com/Agents/17855",
            "category": "agents"
          }
        ]
      },
      "cas_number": {
        "original_name": "CAS Number",
        "value": "107-35-7",
        "links": [],
        "cross_references": []
      },
      "formula": {
        "original_name": "Formula",
        "value": "C2-H7-N-O3-S",
        "links": [],
        "cross_references": []
      },
      "major_category": {
        "original_name": "Major Category",
        "value": "Biological Agents",
        "links": [],
        "cross_references": []
      },
      "synonyms": {
        "original_name": "Synonyms",
        "value": "2-Aminoethanesulfonic acid; 2-Aminoethylsulfonic acid; 2-Sulfoethylamine; Aminoethanesulfonic acid; O-Due; Taufon; Tauphon; Taurina [Spanish]; Taurinum [Latin]; beta-Aminoethylsulfonic acid; Ethanesulfonic acid, 2-amino-; [ChemIDplus] 1-Aminoethane-2-sulfonic acid; beta-Aminoethylsulfonic acid; Taukard; [CAMEO]",
        "links": [],
        "cross_references": [
          {
            "type": "name_match",
            "text": "ethylamine",
            "confidence": 1.0,
            "uuid": "41ca4da8-b990-420a-86b2-3d77404fb7f4",
            "name": "Ethylamine",
            "url": "https://haz-map.com/Agents/220",
            "category": "agents"
          },
          {
            "type": "name_match",
            "text": "ethane",
            "confidence": 1.0,
            "uuid": "5162cc8c-dfb9-4060-81ac-38a8cec7f9dd",
            "name": "Ethane",
            "url": "https://haz-map.com/Agents/1075",
            "category": "agents"
          },
          {
            "type": "name_match",
            "text": "aurin",
            "confidence": 1.0,
            "uuid": "d84a3e17-c22e-49c8-a819-c0f493df6b46",
            "name": "Aurin",
            "url": "https://haz-map.com/Agents/12002",
            "category": "agents"
          },
          {
            "type": "name_match",
            "text": "ethanesulfonic acid",
            "confidence": 1.0,
            "uuid": "b21ff073-f9ac-47dc-a941-22a6957ce9a9",
            "name": "Ethanesulfonic acid",
            "url": "https://haz-map.com/Agents/14157",
            "category": "agents"
          }
        ]
      },
      "category": {
        "original_name": "Category",
        "value": "Amino Acids and Derivatives",
        "links": [],
        "cross_references": []
      },
      "description": {
        "original_name": "Description",
        "value": "Colorless solid; [Merck Index] White solid; [CAMEO] Colorless crystals with lumps; [Sigma-Aldrich MSDS]",
        "links": [],
        "cross_references": []
      },
      "sourcesuses": {
        "original_name": "Sources/Uses",
        "value": "A \"conditionally essential\" amino acid; Used as a nutritional supplement; [Merck Index] Used in biochemical research, pharmaceuticals, and as a wetting agent; [NTP]",
        "links": [],
        "cross_references": [
          {
            "type": "name_match",
            "text": "mica",
            "confidence": 1.0,
            "uuid": "433f26f1-c399-4596-b179-ce3843cfd465",
            "name": "Mica",
            "url": "https://haz-map.com/Agents/621",
            "category": "agents"
          },
          {
            "type": "name_match",
            "text": "pharmaceuticals",
            "confidence": 1.0,
            "uuid": "713c3c30-b67e-4a2f-a90f-b32f8a306332",
            "name": "PHARMACEUTICALS",
            "url": "https://haz-map.com/Agents/1000",
            "category": "agents"
          }
        ]
      },
      "comments": {
        "original_name": "Comments",
        "value": "Safe when used as a flavoring agent in food; [JECFA] A skin and strong eye irritant; [Sigma-Aldrich MSDS]",
        "links": [],
        "cross_references": []
      },
      "biomedical_references": {
        "original_name": "Biomedical References",
        "value": "Search PubMed",
        "links": [
          {
            "text": "Search PubMed",
            "url": "https://www.ncbi.nlm.nih.gov/pubmed?term=Taurine%20AND%20human%5Bmh%5D%20AND%20%28Occupational%20Diseases%20%5Bmh%5D%20OR%20Occupational%20Exposure%20%5Bmh%5D%29%20%20AND%20%28tox%5Bsb%5D%29&cmd=search"
          }
        ],
        "cross_references": []
      }
    },
    "exposure_assessment": {
      "vapor_pressure": {
        "original_name": "Vapor Pressure",
        "value": "0.000172 mm Hg",
        "links": [],
        "cross_references": []
      }
    },
    "diseases_processes_and_activities_linked_to_this_agent": {
      "other_information": {
        "original_name": "Other Information",
        "value": "No other related information on this agent was found.",
        "links": [],
        "cross_references": []
      }
    }
  },
  "cross_references": [
    {
      "type": "name_match",
      "text": "ethylamine",
      "confidence": 1.0,
      "uuid": "41ca4da8-b990-420a-86b2-3d77404fb7f4",
      "name": "Ethylamine",
      "url": "https://haz-map.com/Agents/220",
      "category": "agents"
    },
    {
      "type": "name_match",
      "text": "mica",
      "confidence": 1.0,
      "uuid": "433f26f1-c399-4596-b179-ce3843cfd465",
      "name": "Mica",
      "url": "https://haz-map.com/Agents/621",
      "category": "agents"
    },
    {
      "type": "name_match",
      "text": "pharmaceuticals",
      "confidence": 1.0,
      "uuid": "713c3c30-b67e-4a2f-a90f-b32f8a306332",
      "name": "PHARMACEUTICALS",
      "url": "https://haz-map.com/Agents/1000",
      "category": "agents"
    },
    {
      "type": "name_match",
      "text": "ethane",
      "confidence": 1.0,
      "uuid": "5162cc8c-dfb9-4060-81ac-38a8cec7f9dd",
      "name": "Ethane",
      "url": "https://haz-map.com/Agents/1075",
      "category": "agents"
    },
    {
      "type": "name_match",
      "text": "aurin",
      "confidence": 1.0,
      "uuid": "d84a3e17-c22e-49c8-a819-c0f493df6b46",
      "name": "Aurin",
      "url": "https://haz-map.com/Agents/12002",
      "category": "agents"
    },
    {
      "type": "name_match",
      "text": "ethanesulfonic acid",
      "confidence": 1.0,
      "uuid": "b21ff073-f9ac-47dc-a941-22a6957ce9a9",
      "name": "Ethanesulfonic acid",
      "url": "https://haz-map.com/Agents/14157",
      "category": "agents"
    },
    {
      "type": "name_match",
      "text": "taurine",
      "confidence": 1.0,
      "uuid": "27f7bf71-0f9b-40f5-9fdc-f7402c9a3a2f",
      "name": "Taurine",
      "url": "https://haz-map.com/Agents/17855",
      "category": "agents"
    }
  ],
  "all_links": [
    {
      "text": "Search PubMed",
      "url": "https://www.ncbi.nlm.nih.gov/pubmed?term=Taurine%20AND%20human%5Bmh%5D%20AND%20%28Occupational%20Diseases%20%5Bmh%5D%20OR%20Occupational%20Exposure%20%5Bmh%5D%29%20%20AND%20%28tox%5Bsb%5D%29&cmd=search"
    }
  ]
}