{
  "metadata": {
    "scraped_from": "https://haz-map.com/Agents/2725",
    "entity_name": "1,2,3-Benzotriazin-4(1H)-one",
    "category": "agents",
    "uuid": "28384f5b-3379-480e-8cdd-79bd07599c18",
    "scraped_at": "2025-07-23T19:18:09.724168"
  },
  "parsed_at": "2025-07-24T00:54:48.023573",
  "title": "1,2,3-Benzotriazin-4(1H)-one",
  "sections": {
    "general": {
      "agent_name": {
        "original_name": "Agent Name",
        "value": "1,2,3-Benzotriazin-4(1H)-one",
        "links": [],
        "cross_references": [
          {
            "type": "name_match",
            "text": "1,2,3-benzotriazin-4(1h)-one",
            "confidence": 1.0,
            "uuid": "28384f5b-3379-480e-8cdd-79bd07599c18",
            "name": "1,2,3-Benzotriazin-4(1H)-one",
            "url": "https://haz-map.com/Agents/2725",
            "category": "agents"
          }
        ]
      },
      "cas_number": {
        "original_name": "CAS Number",
        "value": "90-16-4",
        "links": [],
        "cross_references": []
      },
      "formula": {
        "original_name": "Formula",
        "value": "C7-H5-N3-O",
        "links": [],
        "cross_references": []
      },
      "major_category": {
        "original_name": "Major Category",
        "value": "Nitrogen Compounds",
        "links": [],
        "cross_references": [
          {
            "type": "name_match",
            "text": "nitrogen",
            "confidence": 1.0,
            "uuid": "db5e90a9-06d2-45b9-8b81-f345a89b0bc0",
            "name": "Nitrogen",
            "url": "https://haz-map.com/Agents/1072",
            "category": "agents"
          }
        ]
      },
      "synonyms": {
        "original_name": "Synonyms",
        "value": "1,2,3-Benzotriazin-4-one; 1,2,3-Benzotriazin-4(3H)-one; 1,2,3-Benzotriazin-4-ol; 3H-1,2,3-Benzotriazin-4-one; 4-Keto-(3H)-1,2,3-benzotriazine; 4-Ketobenz-1,2,3-triazine; 4-Ketobenzotriazine; Benzazimide; Benzazimidone; Benzoketotriazine; [ChemIDplus]",
        "links": [],
        "cross_references": [
          {
            "type": "fuzzy_match",
            "text": "1,2,3-benzotriazin-4",
            "matched_name": "1,2,3-Benzotriazin-4(1H)-one",
            "confidence": 0.7738095238095238,
            "uuid": "28384f5b-3379-480e-8cdd-79bd07599c18",
            "category": "agents",
            "url": "https://haz-map.com/Agents/2725"
          }
        ]
      },
      "category": {
        "original_name": "Category",
        "value": "Other Nitrogen Rings",
        "links": [],
        "cross_references": [
          {
            "type": "name_match",
            "text": "nitrogen",
            "confidence": 1.0,
            "uuid": "db5e90a9-06d2-45b9-8b81-f345a89b0bc0",
            "name": "Nitrogen",
            "url": "https://haz-map.com/Agents/1072",
            "category": "agents"
          }
        ]
      },
      "description": {
        "original_name": "Description",
        "value": "Tan solid; [HSDB] Off-white powder; [Alfa Aesar MSDS]",
        "links": [],
        "cross_references": []
      },
      "sourcesuses": {
        "original_name": "Sources/Uses",
        "value": "A biodegradation and photolysis product of azinphos-methyl (organophosphate pesticide); Used for organic synthesis; [HSDB]",
        "links": [],
        "cross_references": [
          {
            "type": "name_match",
            "text": "azinphos-methyl",
            "confidence": 1.0,
            "uuid": "0bb4ca03-1438-4f90-a4fc-f35ecaa59996",
            "name": "Azinphos-methyl",
            "url": "https://haz-map.com/Agents/247",
            "category": "agents"
          }
        ]
      },
      "comments": {
        "original_name": "Comments",
        "value": "Causes somnolence in intraperitoneal lethal-dose studies of rats; [RTECS] An irritant; [Alfa Aesar MSDS]",
        "links": [],
        "cross_references": []
      },
      "biomedical_references": {
        "original_name": "Biomedical References",
        "value": "Search PubMed",
        "links": [
          {
            "text": "Search PubMed",
            "url": "https://www.ncbi.nlm.nih.gov/pubmed?term=1%2c2%2c3-Benzotriazin-4(1H)-one%20AND%20human%5Bmh%5D%20AND%20%28Occupational%20Diseases%20%5Bmh%5D%20OR%20Occupational%20Exposure%20%5Bmh%5D%29%20%20AND%20%28tox%5Bsb%5D%29&cmd=search"
          }
        ],
        "cross_references": []
      }
    },
    "exposure_assessment": {
      "vapor_pressure": {
        "original_name": "Vapor Pressure",
        "value": "1.14E-06 mm Hg",
        "links": [],
        "cross_references": []
      },
      "lethal_concentration": {
        "original_name": "Lethal Concentration",
        "value": "LC (rat) > 2,000 mg/kg/4h",
        "links": [],
        "cross_references": []
      }
    },
    "diseases_processes_and_activities_linked_to_this_agent": {
      "processes": {
        "original_name": "Processes",
        "value": "Industrial Processes with risk of exposure: Farming (Pesticides)",
        "links": [
          {
            "text": "Farming (Pesticides)",
            "url": "https://haz-map.com/Processes/218"
          }
        ],
        "cross_references": [
          {
            "type": "url_match",
            "text": "Farming (Pesticides)",
            "url": "https://haz-map.com/Processes/218",
            "confidence": 1.0,
            "uuid": "cf1e5815-c9bb-4917-82a5-391848170b7e",
            "name": "Farming (Pesticides)",
            "category": "processes"
          }
        ]
      }
    }
  },
  "cross_references": [
    {
      "type": "url_match",
      "text": "Farming (Pesticides)",
      "url": "https://haz-map.com/Processes/218",
      "confidence": 1.0,
      "uuid": "cf1e5815-c9bb-4917-82a5-391848170b7e",
      "name": "Farming (Pesticides)",
      "category": "processes"
    },
    {
      "type": "name_match",
      "text": "azinphos-methyl",
      "confidence": 1.0,
      "uuid": "0bb4ca03-1438-4f90-a4fc-f35ecaa59996",
      "name": "Azinphos-methyl",
      "url": "https://haz-map.com/Agents/247",
      "category": "agents"
    },
    {
      "type": "name_match",
      "text": "nitrogen",
      "confidence": 1.0,
      "uuid": "db5e90a9-06d2-45b9-8b81-f345a89b0bc0",
      "name": "Nitrogen",
      "url": "https://haz-map.com/Agents/1072",
      "category": "agents"
    },
    {
      "type": "name_match",
      "text": "1,2,3-benzotriazin-4(1h)-one",
      "confidence": 1.0,
      "uuid": "28384f5b-3379-480e-8cdd-79bd07599c18",
      "name": "1,2,3-Benzotriazin-4(1H)-one",
      "url": "https://haz-map.com/Agents/2725",
      "category": "agents"
    }
  ],
  "all_links": [
    {
      "text": "Search PubMed",
      "url": "https://www.ncbi.nlm.nih.gov/pubmed?term=1%2c2%2c3-Benzotriazin-4(1H)-one%20AND%20human%5Bmh%5D%20AND%20%28Occupational%20Diseases%20%5Bmh%5D%20OR%20Occupational%20Exposure%20%5Bmh%5D%29%20%20AND%20%28tox%5Bsb%5D%29&cmd=search"
    },
    {
      "text": "Farming (Pesticides)",
      "url": "https://haz-map.com/Processes/218"
    }
  ]
}