{
  "metadata": {
    "scraped_from": "https://haz-map.com/Agents/10542",
    "entity_name": "1,4-Diamino-2-methoxy-9,10-anthracenedione",
    "category": "agents",
    "uuid": "28cc3535-264d-4dae-951c-b4dfcd6c7e5f",
    "scraped_at": "2025-07-23T20:49:00.014319"
  },
  "parsed_at": "2025-07-24T01:15:21.132449",
  "title": "1,4-Diamino-2-methoxy-9,10-anthracenedione",
  "sections": {
    "general": {
      "agent_name": {
        "original_name": "Agent Name",
        "value": "1,4-Diamino-2-methoxy-9,10-anthracenedione",
        "links": [],
        "cross_references": [
          {
            "type": "name_match",
            "text": "anthracene",
            "confidence": 1.0,
            "uuid": "f11a62e4-1e69-4f6d-a8b7-240c9de086ff",
            "name": "Anthracene",
            "url": "https://haz-map.com/Agents/7821",
            "category": "agents"
          },
          {
            "type": "name_match",
            "text": "1,4-diamino-2-methoxy-9,10-anthracenedione",
            "confidence": 1.0,
            "uuid": "28cc3535-264d-4dae-951c-b4dfcd6c7e5f",
            "name": "1,4-Diamino-2-methoxy-9,10-anthracenedione",
            "url": "https://haz-map.com/Agents/10542",
            "category": "agents"
          }
        ]
      },
      "alternative_name": {
        "original_name": "Alternative Name",
        "value": "Disperse Red 11",
        "links": [],
        "cross_references": [
          {
            "type": "name_match",
            "text": "disperse red 1",
            "confidence": 1.0,
            "uuid": "ce7561b7-02ad-471e-9299-ae25ae6ad67b",
            "name": "Disperse Red 1",
            "url": "https://haz-map.com/Agents/1326",
            "category": "agents"
          }
        ]
      },
      "cas_number": {
        "original_name": "CAS Number",
        "value": "2872-48-2",
        "links": [],
        "cross_references": []
      },
      "formula": {
        "original_name": "Formula",
        "value": "C15-H12-N2-O3",
        "links": [],
        "cross_references": []
      },
      "major_category": {
        "original_name": "Major Category",
        "value": "Dyes",
        "links": [],
        "cross_references": []
      },
      "synonyms": {
        "original_name": "Synonyms",
        "value": "Disperse Red 11; CI 62015; 1,4-DA-2-Moa; 1,4-DA-2-Moa [Russian]; 1,4-Diamino-2-methoxy-9,10-anthracenedione; 1,4-Diamino-2-methoxyanthraquinone; Acetate Fast Pink 3B; Amacel Cerise B; Artisil Brilliant Rose 5BP; C.I. 11/52015; C.I. 62015; C.I. Disperse Red 11; C.I. Solvent Violet 26; Celanthrene Fast Pink 3B; Celliton Fast Pink FF3B; Celliton Fast Pink FF3BA-CF; Celliton Rose FF3B; Cerven disperzni 11 [Czech]; Cibacet Brilliant Pink 4BN; Cibacete Brilliant Pink 4BN; Cilla Fast Pink FF3B; Disperse Brilliant Pink; Disperse Brilliant Rose; Dispersol Red B 3B; Duranol Red X3B; Fenacet Fast Pink 3BE; Interchem Acetate Pink 3B; Miketon Fast Pink FF 3B; Nacelan Pink 3B; Palanil Violet 6R; Perliton Red Violet FFB; Samaron Red Violet F3B; Seriplas Red X3B; Serisol Brilliant Red X 3B; Setacyl Red P-3B; Solvent Violet 26; Supracet Fast Pink 3B; Teraprint Red 6B; Terasil Brilliant Pink 4BN; Violet rozpoustedlova 26 [Czech]; 9,10-Anthracenedione, 1,4-diamino-2-methoxy-; Anthraquinone, 1,4-diamino-2-methoxy-; [ChemIDplus]",
        "links": [],
        "cross_references": [
          {
            "type": "name_match",
            "text": "quinone",
            "confidence": 1.0,
            "uuid": "d01e66c3-ad06-4707-8d42-3c6655001c1a",
            "name": "Quinone",
            "url": "https://haz-map.com/Agents/303",
            "category": "agents"
          },
          {
            "type": "name_match",
            "text": "disperse red 1",
            "confidence": 1.0,
            "uuid": "ce7561b7-02ad-471e-9299-ae25ae6ad67b",
            "name": "Disperse Red 1",
            "url": "https://haz-map.com/Agents/1326",
            "category": "agents"
          },
          {
            "type": "name_match",
            "text": "anthraquinone",
            "confidence": 1.0,
            "uuid": "953f43e3-2275-41f0-9f8e-f5764f83b717",
            "name": "Anthraquinone",
            "url": "https://haz-map.com/Agents/3713",
            "category": "agents"
          },
          {
            "type": "name_match",
            "text": "anthracene",
            "confidence": 1.0,
            "uuid": "f11a62e4-1e69-4f6d-a8b7-240c9de086ff",
            "name": "Anthracene",
            "url": "https://haz-map.com/Agents/7821",
            "category": "agents"
          },
          {
            "type": "name_match",
            "text": "1,4-diamino-2-methoxy-9,10-anthracenedione",
            "confidence": 1.0,
            "uuid": "28cc3535-264d-4dae-951c-b4dfcd6c7e5f",
            "name": "1,4-Diamino-2-methoxy-9,10-anthracenedione",
            "url": "https://haz-map.com/Agents/10542",
            "category": "agents"
          }
        ]
      },
      "category": {
        "original_name": "Category",
        "value": "Anthraquinone Dyes",
        "links": [],
        "cross_references": [
          {
            "type": "name_match",
            "text": "quinone",
            "confidence": 1.0,
            "uuid": "d01e66c3-ad06-4707-8d42-3c6655001c1a",
            "name": "Quinone",
            "url": "https://haz-map.com/Agents/303",
            "category": "agents"
          },
          {
            "type": "name_match",
            "text": "anthraquinone",
            "confidence": 1.0,
            "uuid": "953f43e3-2275-41f0-9f8e-f5764f83b717",
            "name": "Anthraquinone",
            "url": "https://haz-map.com/Agents/3713",
            "category": "agents"
          }
        ]
      },
      "description": {
        "original_name": "Description",
        "value": "Solid; [Aldrich MSDS]",
        "links": [],
        "cross_references": []
      },
      "comments": {
        "original_name": "Comments",
        "value": "A moderate skin irritant; Causes somnolence, other GI changes, and changes in urine composition in oral lethal-dose studies of rats; [RTECS] An irritant; Harmful by ingestion; [Aldrich MSDS]",
        "links": [],
        "cross_references": []
      },
      "biomedical_references": {
        "original_name": "Biomedical References",
        "value": "Search PubMed",
        "links": [
          {
            "text": "Search PubMed",
            "url": "https://www.ncbi.nlm.nih.gov/pubmed?term=1%2c4-Diamino-2-methoxy-9%2c10-anthracenedione%20AND%20human%5Bmh%5D%20AND%20%28Occupational%20Diseases%20%5Bmh%5D%20OR%20Occupational%20Exposure%20%5Bmh%5D%29%20%20AND%20%28tox%5Bsb%5D%29&cmd=search"
          }
        ],
        "cross_references": []
      }
    },
    "exposure_assessment": {
      "vapor_pressure": {
        "original_name": "Vapor Pressure",
        "value": "1.95E-09 mm Hg",
        "links": [],
        "cross_references": []
      }
    },
    "diseases_processes_and_activities_linked_to_this_agent": {
      "other_information": {
        "original_name": "Other Information",
        "value": "No other related information on this agent was found.",
        "links": [],
        "cross_references": []
      }
    }
  },
  "cross_references": [
    {
      "type": "name_match",
      "text": "quinone",
      "confidence": 1.0,
      "uuid": "d01e66c3-ad06-4707-8d42-3c6655001c1a",
      "name": "Quinone",
      "url": "https://haz-map.com/Agents/303",
      "category": "agents"
    },
    {
      "type": "name_match",
      "text": "disperse red 1",
      "confidence": 1.0,
      "uuid": "ce7561b7-02ad-471e-9299-ae25ae6ad67b",
      "name": "Disperse Red 1",
      "url": "https://haz-map.com/Agents/1326",
      "category": "agents"
    },
    {
      "type": "name_match",
      "text": "anthraquinone",
      "confidence": 1.0,
      "uuid": "953f43e3-2275-41f0-9f8e-f5764f83b717",
      "name": "Anthraquinone",
      "url": "https://haz-map.com/Agents/3713",
      "category": "agents"
    },
    {
      "type": "name_match",
      "text": "anthracene",
      "confidence": 1.0,
      "uuid": "f11a62e4-1e69-4f6d-a8b7-240c9de086ff",
      "name": "Anthracene",
      "url": "https://haz-map.com/Agents/7821",
      "category": "agents"
    },
    {
      "type": "name_match",
      "text": "1,4-diamino-2-methoxy-9,10-anthracenedione",
      "confidence": 1.0,
      "uuid": "28cc3535-264d-4dae-951c-b4dfcd6c7e5f",
      "name": "1,4-Diamino-2-methoxy-9,10-anthracenedione",
      "url": "https://haz-map.com/Agents/10542",
      "category": "agents"
    }
  ],
  "all_links": [
    {
      "text": "Search PubMed",
      "url": "https://www.ncbi.nlm.nih.gov/pubmed?term=1%2c4-Diamino-2-methoxy-9%2c10-anthracenedione%20AND%20human%5Bmh%5D%20AND%20%28Occupational%20Diseases%20%5Bmh%5D%20OR%20Occupational%20Exposure%20%5Bmh%5D%29%20%20AND%20%28tox%5Bsb%5D%29&cmd=search"
    }
  ]
}