{
  "metadata": {
    "scraped_from": "https://haz-map.com/Agents/4971",
    "entity_name": "Dimetilan",
    "category": "agents",
    "uuid": "294c7a46-fce4-4d71-8ba6-c59462218634",
    "scraped_at": "2025-07-23T19:47:27.178056"
  },
  "parsed_at": "2025-07-24T01:05:28.818874",
  "title": "Dimetilan",
  "sections": {
    "general": {
      "agent_name": {
        "original_name": "Agent Name",
        "value": "Dimetilan",
        "links": [],
        "cross_references": [
          {
            "type": "name_match",
            "text": "dimetilan",
            "confidence": 1.0,
            "uuid": "294c7a46-fce4-4d71-8ba6-c59462218634",
            "name": "Dimetilan",
            "url": "https://haz-map.com/Agents/4971",
            "category": "agents"
          }
        ]
      },
      "cas_number": {
        "original_name": "CAS Number",
        "value": "644-64-4",
        "links": [],
        "cross_references": []
      },
      "formula": {
        "original_name": "Formula",
        "value": "C10-H16-N4-O3",
        "links": [],
        "cross_references": []
      },
      "major_category": {
        "original_name": "Major Category",
        "value": "Pesticides",
        "links": [],
        "cross_references": []
      },
      "synonyms": {
        "original_name": "Synonyms",
        "value": "1-Dimethylcarbamoyl-5-methyl-3-pyrazolyl dimethylcarbamate; 2-(N,N-Dimethylcarbamyl)-3-methylpyrazolyl-5 N,N-dimethylcarbamate; 2-Dimethylcarbamoyl-3-methyl-5-pyrazolyl dimethylcarbamate; 2-Dimethylcarbamoyl-3-methylpyrazolyl-(5)-N,N-dimethylcarbamat [German]; 3-Hydroxy-N,N,5-trimethylpyrazole-1-carboxamide dimethylcarbamate; Carbamic acid, dimethyl-, 1-((dimethylamino)carbonyl)-5-methyl-1H-pyrazol-3-yl ester; Carbamic acid, dimethyl-, ester with 3-hydroxy-N,N,5-trimethylpyrazole-1-carboxamide; Dimethyl 2-carbamyl-3-methylpyrazolyldimethylcarbamate; Dimethylcarbamic acid 1-((dimethylamino)carbonyl)-5-methyl-1H-pyrazol-3-yl ester; Dimethylcarbamic acid ester with 3-hydroxy-N,N,5-trimethylpyrazole-1-carboxamide; Dimetilan [BSI]; Dimetilane; ENT 25,922; ENT 25595-X; FLY Bands; G-22870; Geigy 22870; Geigy GS-13332; GS-13332; OMS 479; Pyrazole-1-carboxamide, 3-hydroxy-N,N,5-trimethyl-, dimethyl carbamate (ester); Pyrazole-1-carboxamide, 3-hydroxy-N,N,5-trimethyl-, dimethylcarbamate (ester); Snip; Snip fly; Snip fly bands; [ChemIDplus]",
        "links": [],
        "cross_references": [
          {
            "type": "name_match",
            "text": "carbon",
            "confidence": 1.0,
            "uuid": "b53f8815-ee80-40ef-b4aa-3b000e17dab5",
            "name": "Carbon",
            "url": "https://haz-map.com/Agents/1891",
            "category": "agents"
          },
          {
            "type": "name_match",
            "text": "dimetilan",
            "confidence": 1.0,
            "uuid": "294c7a46-fce4-4d71-8ba6-c59462218634",
            "name": "Dimetilan",
            "url": "https://haz-map.com/Agents/4971",
            "category": "agents"
          },
          {
            "type": "name_match",
            "text": "methyl carbamate",
            "confidence": 1.0,
            "uuid": "25095735-49b1-4267-b344-d478f57808d9",
            "name": "Methyl carbamate",
            "url": "https://haz-map.com/Agents/6075",
            "category": "agents"
          },
          {
            "type": "name_match",
            "text": "oxamide",
            "confidence": 1.0,
            "uuid": "3b911451-e34f-4ab7-9228-2919a8e1aad5",
            "name": "Oxamide",
            "url": "https://haz-map.com/Agents/16307",
            "category": "agents"
          },
          {
            "type": "name_match",
            "text": "pyrazole",
            "confidence": 1.0,
            "uuid": "fb421227-9ca1-4832-91a0-448287f10e92",
            "name": "Pyrazole",
            "url": "https://haz-map.com/Agents/17016",
            "category": "agents"
          }
        ]
      },
      "category": {
        "original_name": "Category",
        "value": "Carbamate Insecticides",
        "links": [],
        "cross_references": [
          {
            "type": "name_match",
            "text": "carbamate insecticides",
            "confidence": 1.0,
            "uuid": "d406afe4-aed9-49d6-a6fa-726d8c380439",
            "name": "CARBAMATE INSECTICIDES",
            "url": "https://haz-map.com/Agents/33",
            "category": "agents"
          }
        ]
      },
      "description": {
        "original_name": "Description",
        "value": "Colorless to red-brown solid; [Hawley] Colorless solid; Technical form: light yellow to reddish-brown solid; [HSDB] Colorless crystalline solid; [MSDSonline]",
        "links": [],
        "cross_references": [
          {
            "type": "name_match",
            "text": "ht",
            "confidence": 1.0,
            "uuid": "764df367-8d53-4a11-81a2-31ccfe122a8d",
            "name": "HT",
            "url": "https://haz-map.com/Agents/2168",
            "category": "agents"
          },
          {
            "type": "fuzzy_match",
            "text": "crystalline",
            "matched_name": "Silica, crystalline",
            "confidence": 0.7061403508771931,
            "uuid": "f920e8a2-46df-41b7-af8d-0368a777251e",
            "category": "agents",
            "url": "https://haz-map.com/Agents/427"
          }
        ]
      },
      "sourcesuses": {
        "original_name": "Sources/Uses",
        "value": "Used as insecticide for control of flies (especially in livestock); Not commercially produced in the US; Likely discontinued for pesticide use worldwide; [HSDB]",
        "links": [],
        "cross_references": []
      },
      "comments": {
        "original_name": "Comments",
        "value": "Highly toxic cholinesterase inhibitor; Not irritating to skin or eyes of rabbits; No adverse effects in blood or organs of rats following four weeks of feeding at 20 mg/kg; [HSDB]; Highly toxic cholinesterase inhibitor; [CAMEO] See \"CARBAMATE INSECTICIDES.\"",
        "links": [],
        "cross_references": [
          {
            "type": "name_match",
            "text": "carbamate insecticides",
            "confidence": 1.0,
            "uuid": "d406afe4-aed9-49d6-a6fa-726d8c380439",
            "name": "CARBAMATE INSECTICIDES",
            "url": "https://haz-map.com/Agents/33",
            "category": "agents"
          },
          {
            "type": "name_match",
            "text": "choline",
            "confidence": 1.0,
            "uuid": "a21a71e9-9d67-4563-9da2-98c4dcb1b766",
            "name": "Choline",
            "url": "https://haz-map.com/Agents/12978",
            "category": "agents"
          }
        ]
      },
      "biomedical_references": {
        "original_name": "Biomedical References",
        "value": "Search PubMed",
        "links": [
          {
            "text": "Search PubMed",
            "url": "https://www.ncbi.nlm.nih.gov/pubmed?term=Dimetilan%20AND%20human%5Bmh%5D%20AND%20%28Occupational%20Diseases%20%5Bmh%5D%20OR%20Occupational%20Exposure%20%5Bmh%5D%29%20%20AND%20%28tox%5Bsb%5D%29&cmd=search"
          }
        ],
        "cross_references": []
      }
    },
    "exposure_assessment": {
      "bei": {
        "original_name": "BEI",
        "value": "Acetylcholinesterase activity in red blood cells = 70% of individual's baseline; Butylcholinesterase activity in serum or plasma = 60% of individual's baseline; Sample at end of shift; [TLVs and BEIs]",
        "links": [],
        "cross_references": [
          {
            "type": "name_match",
            "text": "choline",
            "confidence": 1.0,
            "uuid": "a21a71e9-9d67-4563-9da2-98c4dcb1b766",
            "name": "Choline",
            "url": "https://haz-map.com/Agents/12978",
            "category": "agents"
          }
        ]
      },
      "vapor_pressure": {
        "original_name": "Vapor Pressure",
        "value": "9.7E-05 mm Hg",
        "links": [],
        "cross_references": []
      }
    },
    "adverse_effects": {
      "other_poison": {
        "original_name": "Other Poison",
        "value": "Carbamate",
        "links": [],
        "cross_references": []
      }
    },
    "diseases_processes_and_activities_linked_to_this_agent": {
      "diseases": {
        "original_name": "Diseases",
        "value": "Occupational diseases associated with exposure to this agent: Organophosphates & carbamates, acute poisoning",
        "links": [
          {
            "text": "Organophosphates & carbamates, acute poisoning",
            "url": "https://haz-map.com/Diseases/66"
          }
        ],
        "cross_references": [
          {
            "type": "url_match",
            "text": "Organophosphates & carbamates, acute poisoning",
            "url": "https://haz-map.com/Diseases/66",
            "confidence": 1.0,
            "uuid": "aea2cba9-fb36-463f-84d8-b819551bb327",
            "name": "Organophosphates & carbamates, acute poisoning",
            "category": "diseases"
          },
          {
            "type": "name_match",
            "text": "organophosphates",
            "confidence": 1.0,
            "uuid": "8d2d239c-20f9-4f02-9916-5e7667b9990c",
            "name": "ORGANOPHOSPHATES",
            "url": "https://haz-map.com/Agents/702",
            "category": "agents"
          }
        ]
      },
      "processes": {
        "original_name": "Processes",
        "value": "Industrial Processes with risk of exposure: Farming (Pesticides)",
        "links": [
          {
            "text": "Farming (Pesticides)",
            "url": "https://haz-map.com/Processes/218"
          }
        ],
        "cross_references": [
          {
            "type": "url_match",
            "text": "Farming (Pesticides)",
            "url": "https://haz-map.com/Processes/218",
            "confidence": 1.0,
            "uuid": "cf1e5815-c9bb-4917-82a5-391848170b7e",
            "name": "Farming (Pesticides)",
            "category": "processes"
          }
        ]
      }
    }
  },
  "cross_references": [
    {
      "type": "url_match",
      "text": "Organophosphates & carbamates, acute poisoning",
      "url": "https://haz-map.com/Diseases/66",
      "confidence": 1.0,
      "uuid": "aea2cba9-fb36-463f-84d8-b819551bb327",
      "name": "Organophosphates & carbamates, acute poisoning",
      "category": "diseases"
    },
    {
      "type": "url_match",
      "text": "Farming (Pesticides)",
      "url": "https://haz-map.com/Processes/218",
      "confidence": 1.0,
      "uuid": "cf1e5815-c9bb-4917-82a5-391848170b7e",
      "name": "Farming (Pesticides)",
      "category": "processes"
    },
    {
      "type": "name_match",
      "text": "carbamate insecticides",
      "confidence": 1.0,
      "uuid": "d406afe4-aed9-49d6-a6fa-726d8c380439",
      "name": "CARBAMATE INSECTICIDES",
      "url": "https://haz-map.com/Agents/33",
      "category": "agents"
    },
    {
      "type": "name_match",
      "text": "organophosphates",
      "confidence": 1.0,
      "uuid": "8d2d239c-20f9-4f02-9916-5e7667b9990c",
      "name": "ORGANOPHOSPHATES",
      "url": "https://haz-map.com/Agents/702",
      "category": "agents"
    },
    {
      "type": "name_match",
      "text": "carbon",
      "confidence": 1.0,
      "uuid": "b53f8815-ee80-40ef-b4aa-3b000e17dab5",
      "name": "Carbon",
      "url": "https://haz-map.com/Agents/1891",
      "category": "agents"
    },
    {
      "type": "name_match",
      "text": "ht",
      "confidence": 1.0,
      "uuid": "764df367-8d53-4a11-81a2-31ccfe122a8d",
      "name": "HT",
      "url": "https://haz-map.com/Agents/2168",
      "category": "agents"
    },
    {
      "type": "name_match",
      "text": "dimetilan",
      "confidence": 1.0,
      "uuid": "294c7a46-fce4-4d71-8ba6-c59462218634",
      "name": "Dimetilan",
      "url": "https://haz-map.com/Agents/4971",
      "category": "agents"
    },
    {
      "type": "name_match",
      "text": "methyl carbamate",
      "confidence": 1.0,
      "uuid": "25095735-49b1-4267-b344-d478f57808d9",
      "name": "Methyl carbamate",
      "url": "https://haz-map.com/Agents/6075",
      "category": "agents"
    },
    {
      "type": "name_match",
      "text": "choline",
      "confidence": 1.0,
      "uuid": "a21a71e9-9d67-4563-9da2-98c4dcb1b766",
      "name": "Choline",
      "url": "https://haz-map.com/Agents/12978",
      "category": "agents"
    },
    {
      "type": "name_match",
      "text": "oxamide",
      "confidence": 1.0,
      "uuid": "3b911451-e34f-4ab7-9228-2919a8e1aad5",
      "name": "Oxamide",
      "url": "https://haz-map.com/Agents/16307",
      "category": "agents"
    },
    {
      "type": "name_match",
      "text": "pyrazole",
      "confidence": 1.0,
      "uuid": "fb421227-9ca1-4832-91a0-448287f10e92",
      "name": "Pyrazole",
      "url": "https://haz-map.com/Agents/17016",
      "category": "agents"
    },
    {
      "type": "fuzzy_match",
      "text": "crystalline",
      "matched_name": "Silica, crystalline",
      "confidence": 0.7061403508771931,
      "uuid": "f920e8a2-46df-41b7-af8d-0368a777251e",
      "category": "agents",
      "url": "https://haz-map.com/Agents/427"
    }
  ],
  "all_links": [
    {
      "text": "Search PubMed",
      "url": "https://www.ncbi.nlm.nih.gov/pubmed?term=Dimetilan%20AND%20human%5Bmh%5D%20AND%20%28Occupational%20Diseases%20%5Bmh%5D%20OR%20Occupational%20Exposure%20%5Bmh%5D%29%20%20AND%20%28tox%5Bsb%5D%29&cmd=search"
    },
    {
      "text": "Organophosphates & carbamates, acute poisoning",
      "url": "https://haz-map.com/Diseases/66"
    },
    {
      "text": "Farming (Pesticides)",
      "url": "https://haz-map.com/Processes/218"
    }
  ]
}