{
  "metadata": {
    "scraped_from": "https://haz-map.com/Agents/187",
    "entity_name": "1-Dodecanethiol",
    "category": "agents",
    "uuid": "29559258-f39d-403b-8ce1-0198b5876b90",
    "scraped_at": "2025-07-23T18:36:35.949580"
  },
  "parsed_at": "2025-07-24T00:58:08.336084",
  "title": "1-Dodecanethiol",
  "sections": {
    "general": {
      "agent_name": {
        "original_name": "Agent Name",
        "value": "1-Dodecanethiol",
        "links": [],
        "cross_references": [
          {
            "type": "name_match",
            "text": "1-dodecanethiol",
            "confidence": 1.0,
            "uuid": "29559258-f39d-403b-8ce1-0198b5876b90",
            "name": "1-Dodecanethiol",
            "url": "https://haz-map.com/Agents/187",
            "category": "agents"
          },
          {
            "type": "name_match",
            "text": "dodecane",
            "confidence": 1.0,
            "uuid": "e446b8fe-aaab-4728-8e79-211dfc827a2e",
            "name": "Dodecane",
            "url": "https://haz-map.com/Agents/1785",
            "category": "agents"
          }
        ]
      },
      "alternative_name": {
        "original_name": "Alternative Name",
        "value": "Dodecyl mercaptan",
        "links": [],
        "cross_references": [
          {
            "type": "name_match",
            "text": "captan",
            "confidence": 1.0,
            "uuid": "19bf918c-9caa-4481-999a-002bb3395f5a",
            "name": "Captan",
            "url": "https://haz-map.com/Agents/341",
            "category": "agents"
          }
        ]
      },
      "cas_number": {
        "original_name": "CAS Number",
        "value": "112-55-0",
        "links": [],
        "cross_references": []
      },
      "formula": {
        "original_name": "Formula",
        "value": "C12-H26-S",
        "links": [],
        "cross_references": []
      },
      "major_category": {
        "original_name": "Major Category",
        "value": "Other Classes",
        "links": [],
        "cross_references": []
      },
      "synonyms": {
        "original_name": "Synonyms",
        "value": "1-Dodecyl mercaptan; n-Dodecyl mercaptan; Lauryl mercaptan; n-Lauryl mercaptan; 1-Mercaptododecane; [NIOSH]",
        "links": [],
        "cross_references": [
          {
            "type": "name_match",
            "text": "captan",
            "confidence": 1.0,
            "uuid": "19bf918c-9caa-4481-999a-002bb3395f5a",
            "name": "Captan",
            "url": "https://haz-map.com/Agents/341",
            "category": "agents"
          },
          {
            "type": "name_match",
            "text": "dodecane",
            "confidence": 1.0,
            "uuid": "e446b8fe-aaab-4728-8e79-211dfc827a2e",
            "name": "Dodecane",
            "url": "https://haz-map.com/Agents/1785",
            "category": "agents"
          }
        ]
      },
      "category": {
        "original_name": "Category",
        "value": "Thiols",
        "links": [],
        "cross_references": [
          {
            "type": "name_match",
            "text": "thiols",
            "confidence": 1.0,
            "uuid": "c2e8a59b-9094-4832-9851-2c3cfd1fa8f9",
            "name": "THIOLS",
            "url": "https://haz-map.com/Agents/709",
            "category": "agents"
          }
        ]
      },
      "description": {
        "original_name": "Description",
        "value": "Colorless, water-white, or pale-yellow, oily liquid with a mild, skunk-like odor; Note: A solid below 15 degrees F; [NIOSH]",
        "links": [],
        "cross_references": [
          {
            "type": "name_match",
            "text": "water",
            "confidence": 1.0,
            "uuid": "6f2a7557-dfd2-49bc-9b4b-a93cd8e225d4",
            "name": "Water",
            "url": "https://haz-map.com/Agents/18668",
            "category": "agents"
          }
        ]
      },
      "sourcesuses": {
        "original_name": "Sources/Uses",
        "value": "Used in the production of drugs, insecticides, detergents, and synthetic rubber and as a flotation agent for metal refining; [ACGIH]",
        "links": [],
        "cross_references": []
      },
      "comments": {
        "original_name": "Comments",
        "value": "This chemical is listed in the Chemotechnique Diagnostics \"Shoe Series\" for patch testing. [Marks, p. 376] Not highly toxic after acute exposure; Rats and mice had no adverse effects after exposure to 8-9 ppm for 1 to 6 hours. Some mice died after exposure to 8 ppm (6 hours/day, 5 days/week for 4 weeks); No adverse effects in rats exposed to 329 ppm (twenty 6-hour exposures); A dermal sensitizer; [ACGIH] Danger of skin sensitization; [MAK] See \"THIOLS.\"",
        "links": [],
        "cross_references": [
          {
            "type": "name_match",
            "text": "mica",
            "confidence": 1.0,
            "uuid": "433f26f1-c399-4596-b179-ce3843cfd465",
            "name": "Mica",
            "url": "https://haz-map.com/Agents/621",
            "category": "agents"
          },
          {
            "type": "name_match",
            "text": "thiols",
            "confidence": 1.0,
            "uuid": "c2e8a59b-9094-4832-9851-2c3cfd1fa8f9",
            "name": "THIOLS",
            "url": "https://haz-map.com/Agents/709",
            "category": "agents"
          }
        ]
      },
      "biomedical_references": {
        "original_name": "Biomedical References",
        "value": "Search PubMed",
        "links": [
          {
            "text": "Search PubMed",
            "url": "https://www.ncbi.nlm.nih.gov/pubmed?term=1-Dodecanethiol%20AND%20human%5Bmh%5D%20AND%20%28Occupational%20Diseases%20%5Bmh%5D%20OR%20Occupational%20Exposure%20%5Bmh%5D%29%20%20AND%20%28tox%5Bsb%5D%29&cmd=search"
          }
        ],
        "cross_references": []
      }
    },
    "exposure_assessment": {
      "skin_designation_acgih": {
        "original_name": "Skin Designation (ACGIH)",
        "value": "Insufficient data",
        "links": [],
        "cross_references": []
      },
      "tlv_acgih": {
        "original_name": "TLV (ACGIH)",
        "value": "0.1 ppm",
        "links": [],
        "cross_references": []
      },
      "vapor_pressure": {
        "original_name": "Vapor Pressure",
        "value": "0.00853 mm Hg",
        "links": [],
        "cross_references": []
      },
      "odor_threshold_low": {
        "original_name": "Odor Threshold Low",
        "value": "0.00025 ppm",
        "links": [],
        "cross_references": []
      },
      "explanatory_notes": {
        "original_name": "Explanatory Notes",
        "value": "NIOSH REL = 15 min. ceiling of 0.5 ppm; Flash point = 128 deg C; Odor threshold from ACGIH; VP from HSDB;",
        "links": [],
        "cross_references": [
          {
            "type": "name_match",
            "text": "ash",
            "confidence": 1.0,
            "uuid": "68b360f1-5ad0-4337-bea0-d7adca2961b5",
            "name": "Ash",
            "url": "https://haz-map.com/Agents/965",
            "category": "agents"
          }
        ]
      },
      "nfpa": {
        "original_name": "NFPA",
        "value": "must be preheated",
        "links": [],
        "cross_references": []
      }
    },
    "adverse_effects": {
      "skin_sensitizer": {
        "original_name": "Skin Sensitizer",
        "value": "Yes",
        "links": [],
        "cross_references": []
      },
      "other_poison": {
        "original_name": "Other Poison",
        "value": "Chemical Asphyxiant",
        "links": [],
        "cross_references": [
          {
            "type": "name_match",
            "text": "mica",
            "confidence": 1.0,
            "uuid": "433f26f1-c399-4596-b179-ce3843cfd465",
            "name": "Mica",
            "url": "https://haz-map.com/Agents/621",
            "category": "agents"
          }
        ]
      }
    },
    "diseases_processes_and_activities_linked_to_this_agent": {
      "diseases": {
        "original_name": "Diseases",
        "value": "Occupational diseases associated with exposure to this agent: Contact dermatitis, allergic",
        "links": [
          {
            "text": "Contact dermatitis, allergic",
            "url": "https://haz-map.com/Diseases/18"
          }
        ],
        "cross_references": [
          {
            "type": "url_match",
            "text": "Contact dermatitis, allergic",
            "url": "https://haz-map.com/Diseases/18",
            "confidence": 1.0,
            "uuid": "c9499de0-9aa1-41bf-8753-cd5b28a63e29",
            "name": "Contact dermatitis, allergic",
            "category": "diseases"
          },
          {
            "type": "name_match",
            "text": "dermatitis",
            "confidence": 1.0,
            "uuid": "fe9c05f2-b19f-4ceb-ac7a-ffb7d7a0cae0",
            "name": "dermatitis",
            "url": "https://haz-map.com/Findings/59",
            "category": "findings"
          }
        ]
      },
      "processes": {
        "original_name": "Processes",
        "value": "Industrial Processes with risk of exposure: Metal Extraction and Refining",
        "links": [
          {
            "text": "Metal Extraction and Refining",
            "url": "https://haz-map.com/Processes/261"
          }
        ],
        "cross_references": []
      }
    }
  },
  "cross_references": [
    {
      "type": "url_match",
      "text": "Contact dermatitis, allergic",
      "url": "https://haz-map.com/Diseases/18",
      "confidence": 1.0,
      "uuid": "c9499de0-9aa1-41bf-8753-cd5b28a63e29",
      "name": "Contact dermatitis, allergic",
      "category": "diseases"
    },
    {
      "type": "name_match",
      "text": "dermatitis",
      "confidence": 1.0,
      "uuid": "fe9c05f2-b19f-4ceb-ac7a-ffb7d7a0cae0",
      "name": "dermatitis",
      "url": "https://haz-map.com/Findings/59",
      "category": "findings"
    },
    {
      "type": "name_match",
      "text": "1-dodecanethiol",
      "confidence": 1.0,
      "uuid": "29559258-f39d-403b-8ce1-0198b5876b90",
      "name": "1-Dodecanethiol",
      "url": "https://haz-map.com/Agents/187",
      "category": "agents"
    },
    {
      "type": "name_match",
      "text": "captan",
      "confidence": 1.0,
      "uuid": "19bf918c-9caa-4481-999a-002bb3395f5a",
      "name": "Captan",
      "url": "https://haz-map.com/Agents/341",
      "category": "agents"
    },
    {
      "type": "name_match",
      "text": "mica",
      "confidence": 1.0,
      "uuid": "433f26f1-c399-4596-b179-ce3843cfd465",
      "name": "Mica",
      "url": "https://haz-map.com/Agents/621",
      "category": "agents"
    },
    {
      "type": "name_match",
      "text": "thiols",
      "confidence": 1.0,
      "uuid": "c2e8a59b-9094-4832-9851-2c3cfd1fa8f9",
      "name": "THIOLS",
      "url": "https://haz-map.com/Agents/709",
      "category": "agents"
    },
    {
      "type": "name_match",
      "text": "ash",
      "confidence": 1.0,
      "uuid": "68b360f1-5ad0-4337-bea0-d7adca2961b5",
      "name": "Ash",
      "url": "https://haz-map.com/Agents/965",
      "category": "agents"
    },
    {
      "type": "name_match",
      "text": "dodecane",
      "confidence": 1.0,
      "uuid": "e446b8fe-aaab-4728-8e79-211dfc827a2e",
      "name": "Dodecane",
      "url": "https://haz-map.com/Agents/1785",
      "category": "agents"
    },
    {
      "type": "name_match",
      "text": "water",
      "confidence": 1.0,
      "uuid": "6f2a7557-dfd2-49bc-9b4b-a93cd8e225d4",
      "name": "Water",
      "url": "https://haz-map.com/Agents/18668",
      "category": "agents"
    }
  ],
  "all_links": [
    {
      "text": "Search PubMed",
      "url": "https://www.ncbi.nlm.nih.gov/pubmed?term=1-Dodecanethiol%20AND%20human%5Bmh%5D%20AND%20%28Occupational%20Diseases%20%5Bmh%5D%20OR%20Occupational%20Exposure%20%5Bmh%5D%29%20%20AND%20%28tox%5Bsb%5D%29&cmd=search"
    },
    {
      "text": "Contact dermatitis, allergic",
      "url": "https://haz-map.com/Diseases/18"
    },
    {
      "text": "Metal Extraction and Refining",
      "url": "https://haz-map.com/Processes/261"
    }
  ]
}