{
  "metadata": {
    "scraped_from": "https://haz-map.com/Agents/665",
    "entity_name": "Trimellitic anhydride",
    "category": "agents",
    "uuid": "295d315e-ccb9-4595-a639-124891f86c59",
    "scraped_at": "2025-07-23T18:46:34.558653"
  },
  "parsed_at": "2025-07-24T00:53:22.839462",
  "title": "Trimellitic anhydride",
  "sections": {
    "general": {
      "agent_name": {
        "original_name": "Agent Name",
        "value": "Trimellitic anhydride",
        "links": [],
        "cross_references": [
          {
            "type": "name_match",
            "text": "trimellitic anhydride",
            "confidence": 1.0,
            "uuid": "295d315e-ccb9-4595-a639-124891f86c59",
            "name": "Trimellitic anhydride",
            "url": "https://haz-map.com/Agents/665",
            "category": "agents"
          }
        ]
      },
      "cas_number": {
        "original_name": "CAS Number",
        "value": "552-30-7",
        "links": [],
        "cross_references": []
      },
      "formula": {
        "original_name": "Formula",
        "value": "C9-H4-O5",
        "links": [],
        "cross_references": []
      },
      "major_category": {
        "original_name": "Major Category",
        "value": "Plastics & Rubber",
        "links": [],
        "cross_references": []
      },
      "synonyms": {
        "original_name": "Synonyms",
        "value": "1,2,4-Benzenetricarboxylic anhydride; 4-Carboxyphthalic anhydride; TMA; TMAN; Trimellic acid anhydride; [Note: TMA is also a synonym for Trimethylamine.]; [NIOSH]",
        "links": [],
        "cross_references": [
          {
            "type": "name_match",
            "text": "benzene",
            "confidence": 1.0,
            "uuid": "b05124de-5f34-4c14-8f04-ccb20c3780d9",
            "name": "Benzene",
            "url": "https://haz-map.com/Agents/5",
            "category": "agents"
          },
          {
            "type": "name_match",
            "text": "methylamine",
            "confidence": 1.0,
            "uuid": "7c3781b5-5294-474a-a015-e59574d00b69",
            "name": "Methylamine",
            "url": "https://haz-map.com/Agents/217",
            "category": "agents"
          },
          {
            "type": "name_match",
            "text": "trimethylamine",
            "confidence": 1.0,
            "uuid": "3a21152b-0cd4-42e0-a7f0-f9a4dcf674be",
            "name": "Trimethylamine",
            "url": "https://haz-map.com/Agents/219",
            "category": "agents"
          },
          {
            "type": "name_match",
            "text": "ethylamine",
            "confidence": 1.0,
            "uuid": "41ca4da8-b990-420a-86b2-3d77404fb7f4",
            "name": "Ethylamine",
            "url": "https://haz-map.com/Agents/220",
            "category": "agents"
          },
          {
            "type": "name_match",
            "text": "phthalic anhydride",
            "confidence": 1.0,
            "uuid": "1bda4d65-bf7f-4775-add4-a93906dcc2db",
            "name": "Phthalic anhydride",
            "url": "https://haz-map.com/Agents/599",
            "category": "agents"
          },
          {
            "type": "name_match",
            "text": "ht",
            "confidence": 1.0,
            "uuid": "764df367-8d53-4a11-81a2-31ccfe122a8d",
            "name": "HT",
            "url": "https://haz-map.com/Agents/2168",
            "category": "agents"
          }
        ]
      },
      "category": {
        "original_name": "Category",
        "value": "Acid Anhydrides, Cyclic",
        "links": [],
        "cross_references": [
          {
            "type": "name_match",
            "text": "acid anhydrides",
            "confidence": 1.0,
            "uuid": "541f6a39-e623-4b95-8854-3d5fe27fdeca",
            "name": "ACID ANHYDRIDES",
            "url": "https://haz-map.com/Agents/744",
            "category": "agents"
          }
        ]
      },
      "description": {
        "original_name": "Description",
        "value": "Colorless solid; [NIOSH]",
        "links": [],
        "cross_references": []
      },
      "sourcesuses": {
        "original_name": "Sources/Uses",
        "value": "Used primarily as a curing agent for alkyl and epoxy resins; [Rom p. 1213] Used in the synthesis of, or as a curing agent for, epoxy resins, plasticizers, paints, wall and floor coverings, and insulation for cable and wire; [ACGIH]",
        "links": [],
        "cross_references": [
          {
            "type": "name_match",
            "text": "epoxy resins",
            "confidence": 1.0,
            "uuid": "4724cfe8-e98a-4ee6-a6de-25e8d9534e62",
            "name": "EPOXY RESINS",
            "url": "https://haz-map.com/Agents/30",
            "category": "agents"
          }
        ]
      },
      "comments": {
        "original_name": "Comments",
        "value": "There are three syndromes caused by trimellitic anhydride (TMA) based on its ability to irritate and sensitize lung tissue. Sensitized workers can develop upon re-exposure 1) asthma-rhinitis; 2) late respiratory systemic syndrome (LRSS); or very rarely 3) pulmonary disease anemia syndrome (PDA). [Grammer LC et al. Review of trimellitic anhydride (TMA) induced respiratory response. Allergy Asthma Proc 1997 Jul-Aug;18(4):235-7] Workers exposed to less than 0.002 mg/m3 are at low risk for developing disease. [Grammer LC et al. A Clinical and Immunologic Study to Assess Risk of TMA-Induced Lung Disease as Related to Exposure. JOEM 1999 Dec;41(12):1048-51] TMAN is a potent sensitizer after inhalation of either dust or fume. It causes IgE and IgG mediated disease (asthma/rhinitis, late respiratory systemic syndrome, pulmonary disease anemia, and late arthralgia myalgia). Symptoms include sneezing, rhinitis, dry throat, watery eyes, conjunctivitis, and dyspnea. Dermal contact may cause or exacerbate respiratory sensitization. When workers are not exposed to >2 ug/m3, there are no cases of disease or IgG against TM-HAS (Human Serum Albumin), but there are still cases of non-diseased workers with IgE against TM-HAS (9% incidence). TMAN cause both immediate and delayed dermal sensitization in animal studies. [ACGIH] Danger of airway sensitization; [MAK] \"TMA skin testing provides an alternative and potentially more practical method for monitoring TMA-exposed workers for developing IgE sensitization.\" [ PMID 21915071 ] See \"ACID ANHYDRIDES.\"",
        "links": [
          {
            "text": "PMID 21915071",
            "url": "https://www.ncbi.nlm.nih.gov/pubmed/21915071"
          }
        ],
        "cross_references": [
          {
            "type": "name_match",
            "text": "arthralgia",
            "confidence": 1.0,
            "uuid": "e97d7b23-0120-43e6-aa11-3236454374cc",
            "name": "arthralgia",
            "url": "https://haz-map.com/Findings/13",
            "category": "findings"
          },
          {
            "type": "name_match",
            "text": "anemia",
            "confidence": 1.0,
            "uuid": "be5db7c0-2652-4940-a3d9-d0afb3e2b182",
            "name": "anemia",
            "url": "https://haz-map.com/Findings/54",
            "category": "findings"
          },
          {
            "type": "name_match",
            "text": "rhinitis",
            "confidence": 1.0,
            "uuid": "0bd4dc1b-0105-44df-9683-1232567564e0",
            "name": "rhinitis",
            "url": "https://haz-map.com/Findings/101",
            "category": "findings"
          },
          {
            "type": "name_match",
            "text": "myalgia",
            "confidence": 1.0,
            "uuid": "cd1628f0-c5df-42b9-938a-6d6597981b7a",
            "name": "myalgia",
            "url": "https://haz-map.com/Findings/244",
            "category": "findings"
          },
          {
            "type": "name_match",
            "text": "trimellitic anhydride",
            "confidence": 1.0,
            "uuid": "295d315e-ccb9-4595-a639-124891f86c59",
            "name": "Trimellitic anhydride",
            "url": "https://haz-map.com/Agents/665",
            "category": "agents"
          },
          {
            "type": "name_match",
            "text": "acid anhydrides",
            "confidence": 1.0,
            "uuid": "541f6a39-e623-4b95-8854-3d5fe27fdeca",
            "name": "ACID ANHYDRIDES",
            "url": "https://haz-map.com/Agents/744",
            "category": "agents"
          },
          {
            "type": "name_match",
            "text": "water",
            "confidence": 1.0,
            "uuid": "6f2a7557-dfd2-49bc-9b4b-a93cd8e225d4",
            "name": "Water",
            "url": "https://haz-map.com/Agents/18668",
            "category": "agents"
          }
        ]
      },
      "reference_link_1": {
        "original_name": "Reference Link #1",
        "value": "Review of trimellitic anhydride (TMA) induced respiratory response",
        "links": [
          {
            "text": "Review of trimellitic anhydride (TMA) induced respiratory response",
            "url": "http://www.ncbi.nlm.nih.gov/entrez/query.fcgi?cmd=Retrieve&db=PubMed&list_uids=9270885&dopt=Abstract"
          }
        ],
        "cross_references": [
          {
            "type": "name_match",
            "text": "trimellitic anhydride",
            "confidence": 1.0,
            "uuid": "295d315e-ccb9-4595-a639-124891f86c59",
            "name": "Trimellitic anhydride",
            "url": "https://haz-map.com/Agents/665",
            "category": "agents"
          }
        ]
      },
      "biomedical_references": {
        "original_name": "Biomedical References",
        "value": "Search PubMed",
        "links": [
          {
            "text": "Search PubMed",
            "url": "https://www.ncbi.nlm.nih.gov/pubmed?term=Trimellitic+anhydride%20AND%20human%5Bmh%5D%20AND%20%28Occupational%20Diseases%20%5Bmh%5D%20OR%20Occupational%20Exposure%20%5Bmh%5D%29%20%20AND%20%28tox%5Bsb%5D%29&cmd=search"
          }
        ],
        "cross_references": []
      }
    },
    "exposure_assessment": {
      "skin_designation_acgih": {
        "original_name": "Skin Designation (ACGIH)",
        "value": "Yes",
        "links": [],
        "cross_references": []
      },
      "tlv_acgih": {
        "original_name": "TLV (ACGIH)",
        "value": "0.0005 mg/m3, inhalable fraction and vapor",
        "links": [],
        "cross_references": []
      },
      "stel_acgih": {
        "original_name": "STEL (ACGIH)",
        "value": "0.002 mg/m3, inhalable fraction and vapor",
        "links": [],
        "cross_references": []
      },
      "mak": {
        "original_name": "MAK",
        "value": "0.04 mg/m3",
        "links": [],
        "cross_references": []
      },
      "vapor_pressure": {
        "original_name": "Vapor Pressure",
        "value": "9.86E-06 mm Hg",
        "links": [],
        "cross_references": []
      },
      "explanatory_notes": {
        "original_name": "Explanatory Notes",
        "value": "VP from HSDB;",
        "links": [],
        "cross_references": []
      },
      "reference_link_2": {
        "original_name": "Reference Link #2",
        "value": "A clinical and immunologic study to assess risk of TMA-induced lung disease as related to exposure",
        "links": [
          {
            "text": "A clinical and immunologic study to assess risk of TMA-induced lung disease as related to exposure",
            "url": "http://www.ncbi.nlm.nih.gov/entrez/query.fcgi?cmd=Retrieve&db=PubMed&list_uids=10609223&dopt=Abstract"
          }
        ],
        "cross_references": []
      }
    },
    "adverse_effects": {
      "anemia": {
        "original_name": "Anemia",
        "value": "Hemolytic anemia",
        "links": [],
        "cross_references": [
          {
            "type": "name_match",
            "text": "anemia",
            "confidence": 1.0,
            "uuid": "be5db7c0-2652-4940-a3d9-d0afb3e2b182",
            "name": "anemia",
            "url": "https://haz-map.com/Findings/54",
            "category": "findings"
          },
          {
            "type": "fuzzy_match",
            "text": "hemolytic anemia",
            "matched_name": "Hemolytic anemia, acute",
            "confidence": 0.7763975155279503,
            "uuid": "5036f7f9-e7c4-4f96-9fdb-89dd68e6462e",
            "category": "diseases",
            "url": "https://haz-map.com/Diseases/226"
          }
        ]
      },
      "asthma": {
        "original_name": "Asthma",
        "value": "Yes",
        "links": [],
        "cross_references": []
      },
      "toxic_pneumonitis": {
        "original_name": "Toxic Pneumonitis",
        "value": "Yes",
        "links": [],
        "cross_references": []
      },
      "fibrogenic": {
        "original_name": "Fibrogenic",
        "value": "Yes",
        "links": [],
        "cross_references": []
      }
    },
    "diseases_processes_and_activities_linked_to_this_agent": {
      "diseases": {
        "original_name": "Diseases",
        "value": "Occupational diseases associated with exposure to this agent: Asthma, occupational Hemolytic anemia, acute TMA HP",
        "links": [
          {
            "text": "Asthma, occupational",
            "url": "https://haz-map.com/Diseases/23"
          },
          {
            "text": "Hemolytic anemia, acute",
            "url": "https://haz-map.com/Diseases/226"
          },
          {
            "text": "TMA HP",
            "url": "https://haz-map.com/Diseases/388"
          }
        ],
        "cross_references": [
          {
            "type": "url_match",
            "text": "Asthma, occupational",
            "url": "https://haz-map.com/Diseases/23",
            "confidence": 1.0,
            "uuid": "29c464cb-36b2-43d8-b6fc-e19a0ea695cb",
            "name": "Asthma, occupational",
            "category": "diseases"
          },
          {
            "type": "url_match",
            "text": "Hemolytic anemia, acute",
            "url": "https://haz-map.com/Diseases/226",
            "confidence": 1.0,
            "uuid": "5036f7f9-e7c4-4f96-9fdb-89dd68e6462e",
            "name": "Hemolytic anemia, acute",
            "category": "diseases"
          },
          {
            "type": "url_match",
            "text": "TMA HP",
            "url": "https://haz-map.com/Diseases/388",
            "confidence": 1.0,
            "uuid": "3d3757e8-adfd-41b0-bdba-039c18a70d8d",
            "name": "TMA HP",
            "category": "diseases"
          },
          {
            "type": "name_match",
            "text": "anemia",
            "confidence": 1.0,
            "uuid": "be5db7c0-2652-4940-a3d9-d0afb3e2b182",
            "name": "anemia",
            "url": "https://haz-map.com/Findings/54",
            "category": "findings"
          }
        ]
      },
      "processes": {
        "original_name": "Processes",
        "value": "Industrial Processes with risk of exposure: Painting (Pigments, Binders, and Biocides) Semiconductor Manufacturing",
        "links": [
          {
            "text": "Painting (Pigments, Binders, and Biocides)",
            "url": "https://haz-map.com/Processes/145"
          },
          {
            "text": "Semiconductor Manufacturing",
            "url": "https://haz-map.com/Processes/97"
          }
        ],
        "cross_references": [
          {
            "type": "url_match",
            "text": "Painting (Pigments, Binders, and Biocides)",
            "url": "https://haz-map.com/Processes/145",
            "confidence": 1.0,
            "uuid": "25867878-e178-4c21-906f-d392d86b76de",
            "name": "Painting (Pigments, Binders, and Biocides)",
            "category": "processes"
          },
          {
            "type": "url_match",
            "text": "Semiconductor Manufacturing",
            "url": "https://haz-map.com/Processes/97",
            "confidence": 1.0,
            "uuid": "a1adedb7-a724-4539-9aff-c43b42706b89",
            "name": "Semiconductor Manufacturing",
            "category": "processes"
          },
          {
            "type": "name_match",
            "text": "painting",
            "confidence": 1.0,
            "uuid": "19816ce9-9edf-4a86-8e64-b0cbf7dcf520",
            "name": "Painting",
            "url": "https://haz-map.com/Activities/9",
            "category": "activities"
          }
        ]
      }
    }
  },
  "cross_references": [
    {
      "type": "url_match",
      "text": "Asthma, occupational",
      "url": "https://haz-map.com/Diseases/23",
      "confidence": 1.0,
      "uuid": "29c464cb-36b2-43d8-b6fc-e19a0ea695cb",
      "name": "Asthma, occupational",
      "category": "diseases"
    },
    {
      "type": "url_match",
      "text": "Hemolytic anemia, acute",
      "url": "https://haz-map.com/Diseases/226",
      "confidence": 1.0,
      "uuid": "5036f7f9-e7c4-4f96-9fdb-89dd68e6462e",
      "name": "Hemolytic anemia, acute",
      "category": "diseases"
    },
    {
      "type": "url_match",
      "text": "TMA HP",
      "url": "https://haz-map.com/Diseases/388",
      "confidence": 1.0,
      "uuid": "3d3757e8-adfd-41b0-bdba-039c18a70d8d",
      "name": "TMA HP",
      "category": "diseases"
    },
    {
      "type": "url_match",
      "text": "Painting (Pigments, Binders, and Biocides)",
      "url": "https://haz-map.com/Processes/145",
      "confidence": 1.0,
      "uuid": "25867878-e178-4c21-906f-d392d86b76de",
      "name": "Painting (Pigments, Binders, and Biocides)",
      "category": "processes"
    },
    {
      "type": "url_match",
      "text": "Semiconductor Manufacturing",
      "url": "https://haz-map.com/Processes/97",
      "confidence": 1.0,
      "uuid": "a1adedb7-a724-4539-9aff-c43b42706b89",
      "name": "Semiconductor Manufacturing",
      "category": "processes"
    },
    {
      "type": "name_match",
      "text": "painting",
      "confidence": 1.0,
      "uuid": "19816ce9-9edf-4a86-8e64-b0cbf7dcf520",
      "name": "Painting",
      "url": "https://haz-map.com/Activities/9",
      "category": "activities"
    },
    {
      "type": "name_match",
      "text": "arthralgia",
      "confidence": 1.0,
      "uuid": "e97d7b23-0120-43e6-aa11-3236454374cc",
      "name": "arthralgia",
      "url": "https://haz-map.com/Findings/13",
      "category": "findings"
    },
    {
      "type": "name_match",
      "text": "anemia",
      "confidence": 1.0,
      "uuid": "be5db7c0-2652-4940-a3d9-d0afb3e2b182",
      "name": "anemia",
      "url": "https://haz-map.com/Findings/54",
      "category": "findings"
    },
    {
      "type": "name_match",
      "text": "rhinitis",
      "confidence": 1.0,
      "uuid": "0bd4dc1b-0105-44df-9683-1232567564e0",
      "name": "rhinitis",
      "url": "https://haz-map.com/Findings/101",
      "category": "findings"
    },
    {
      "type": "name_match",
      "text": "myalgia",
      "confidence": 1.0,
      "uuid": "cd1628f0-c5df-42b9-938a-6d6597981b7a",
      "name": "myalgia",
      "url": "https://haz-map.com/Findings/244",
      "category": "findings"
    },
    {
      "type": "name_match",
      "text": "benzene",
      "confidence": 1.0,
      "uuid": "b05124de-5f34-4c14-8f04-ccb20c3780d9",
      "name": "Benzene",
      "url": "https://haz-map.com/Agents/5",
      "category": "agents"
    },
    {
      "type": "name_match",
      "text": "epoxy resins",
      "confidence": 1.0,
      "uuid": "4724cfe8-e98a-4ee6-a6de-25e8d9534e62",
      "name": "EPOXY RESINS",
      "url": "https://haz-map.com/Agents/30",
      "category": "agents"
    },
    {
      "type": "name_match",
      "text": "methylamine",
      "confidence": 1.0,
      "uuid": "7c3781b5-5294-474a-a015-e59574d00b69",
      "name": "Methylamine",
      "url": "https://haz-map.com/Agents/217",
      "category": "agents"
    },
    {
      "type": "name_match",
      "text": "trimethylamine",
      "confidence": 1.0,
      "uuid": "3a21152b-0cd4-42e0-a7f0-f9a4dcf674be",
      "name": "Trimethylamine",
      "url": "https://haz-map.com/Agents/219",
      "category": "agents"
    },
    {
      "type": "name_match",
      "text": "ethylamine",
      "confidence": 1.0,
      "uuid": "41ca4da8-b990-420a-86b2-3d77404fb7f4",
      "name": "Ethylamine",
      "url": "https://haz-map.com/Agents/220",
      "category": "agents"
    },
    {
      "type": "name_match",
      "text": "phthalic anhydride",
      "confidence": 1.0,
      "uuid": "1bda4d65-bf7f-4775-add4-a93906dcc2db",
      "name": "Phthalic anhydride",
      "url": "https://haz-map.com/Agents/599",
      "category": "agents"
    },
    {
      "type": "name_match",
      "text": "trimellitic anhydride",
      "confidence": 1.0,
      "uuid": "295d315e-ccb9-4595-a639-124891f86c59",
      "name": "Trimellitic anhydride",
      "url": "https://haz-map.com/Agents/665",
      "category": "agents"
    },
    {
      "type": "name_match",
      "text": "acid anhydrides",
      "confidence": 1.0,
      "uuid": "541f6a39-e623-4b95-8854-3d5fe27fdeca",
      "name": "ACID ANHYDRIDES",
      "url": "https://haz-map.com/Agents/744",
      "category": "agents"
    },
    {
      "type": "name_match",
      "text": "ht",
      "confidence": 1.0,
      "uuid": "764df367-8d53-4a11-81a2-31ccfe122a8d",
      "name": "HT",
      "url": "https://haz-map.com/Agents/2168",
      "category": "agents"
    },
    {
      "type": "name_match",
      "text": "water",
      "confidence": 1.0,
      "uuid": "6f2a7557-dfd2-49bc-9b4b-a93cd8e225d4",
      "name": "Water",
      "url": "https://haz-map.com/Agents/18668",
      "category": "agents"
    }
  ],
  "all_links": [
    {
      "text": "PMID 21915071",
      "url": "https://www.ncbi.nlm.nih.gov/pubmed/21915071"
    },
    {
      "text": "Review of trimellitic anhydride (TMA) induced respiratory response",
      "url": "http://www.ncbi.nlm.nih.gov/entrez/query.fcgi?cmd=Retrieve&db=PubMed&list_uids=9270885&dopt=Abstract"
    },
    {
      "text": "Search PubMed",
      "url": "https://www.ncbi.nlm.nih.gov/pubmed?term=Trimellitic+anhydride%20AND%20human%5Bmh%5D%20AND%20%28Occupational%20Diseases%20%5Bmh%5D%20OR%20Occupational%20Exposure%20%5Bmh%5D%29%20%20AND%20%28tox%5Bsb%5D%29&cmd=search"
    },
    {
      "text": "A clinical and immunologic study to assess risk of TMA-induced lung disease as related to exposure",
      "url": "http://www.ncbi.nlm.nih.gov/entrez/query.fcgi?cmd=Retrieve&db=PubMed&list_uids=10609223&dopt=Abstract"
    },
    {
      "text": "Asthma, occupational",
      "url": "https://haz-map.com/Diseases/23"
    },
    {
      "text": "Hemolytic anemia, acute",
      "url": "https://haz-map.com/Diseases/226"
    },
    {
      "text": "TMA HP",
      "url": "https://haz-map.com/Diseases/388"
    },
    {
      "text": "Painting (Pigments, Binders, and Biocides)",
      "url": "https://haz-map.com/Processes/145"
    },
    {
      "text": "Semiconductor Manufacturing",
      "url": "https://haz-map.com/Processes/97"
    }
  ]
}