{
  "metadata": {
    "scraped_from": "https://haz-map.com/Agents/6728",
    "entity_name": "Piprotal",
    "category": "agents",
    "uuid": "2979cde1-1fc3-4a43-8ad9-a70f033068cd",
    "scraped_at": "2025-07-23T20:04:53.535333"
  },
  "parsed_at": "2025-07-24T01:03:42.927445",
  "title": "Piprotal",
  "sections": {
    "general": {
      "agent_name": {
        "original_name": "Agent Name",
        "value": "Piprotal",
        "links": [],
        "cross_references": [
          {
            "type": "name_match",
            "text": "piprotal",
            "confidence": 1.0,
            "uuid": "2979cde1-1fc3-4a43-8ad9-a70f033068cd",
            "name": "Piprotal",
            "url": "https://haz-map.com/Agents/6728",
            "category": "agents"
          }
        ]
      },
      "cas_number": {
        "original_name": "CAS Number",
        "value": "5281-13-0",
        "links": [],
        "cross_references": []
      },
      "formula": {
        "original_name": "Formula",
        "value": "C24-H40-O8",
        "links": [],
        "cross_references": []
      },
      "major_category": {
        "original_name": "Major Category",
        "value": "Pesticides",
        "links": [],
        "cross_references": []
      },
      "synonyms": {
        "original_name": "Synonyms",
        "value": "1,3-Benzodioxole, 5-(bis(2-(2-butoxyethoxy)ethyoxy)methyl)-; 1,3-Benzodioxole, 6-(bis(2-(2-butoxyethoxy)ethoxy))methyl-; 1-(Bis(2-(2-butoxyethoxy)ethyoxy)methyl)-3,4-methylenedioxybenzene; 1-Bis(2-(2-butoxyethoxy)ethoxy)methyl-3,4-methylenedioxybenzene; 5-(Bis(2-(2-butoxyethoxy)ethyoxy)methyl)-1,3-benzodioxole; ENT 28344; Heliotropin acetal; Piperonal bis(2-(2-butoxyethoxy)ethyl) acetal; Piperonal bis(2-(2-butoxyethoxy)ethyl)acetal; Tropital; [ChemIDplus]",
        "links": [],
        "cross_references": [
          {
            "type": "name_match",
            "text": "benzene",
            "confidence": 1.0,
            "uuid": "b05124de-5f34-4c14-8f04-ccb20c3780d9",
            "name": "Benzene",
            "url": "https://haz-map.com/Agents/5",
            "category": "agents"
          },
          {
            "type": "name_match",
            "text": "ethylene",
            "confidence": 1.0,
            "uuid": "958eacc0-5135-4b62-bb93-6df972bf552f",
            "name": "Ethylene",
            "url": "https://haz-map.com/Agents/1076",
            "category": "agents"
          },
          {
            "type": "name_match",
            "text": "acetal",
            "confidence": 1.0,
            "uuid": "1ee09b5b-04fd-47c0-ab34-a2d9db740bcb",
            "name": "Acetal",
            "url": "https://haz-map.com/Agents/3381",
            "category": "agents"
          },
          {
            "type": "name_match",
            "text": "piperonal",
            "confidence": 1.0,
            "uuid": "c1646bc4-f3e5-426b-81f0-649ce55960c3",
            "name": "Piperonal",
            "url": "https://haz-map.com/Agents/6723",
            "category": "agents"
          },
          {
            "type": "name_match",
            "text": "1,3-benzodioxole",
            "confidence": 1.0,
            "uuid": "9268b3cb-9e89-404a-a700-7768df1ac1a5",
            "name": "1,3-Benzodioxole",
            "url": "https://haz-map.com/Agents/9760",
            "category": "agents"
          }
        ]
      },
      "category": {
        "original_name": "Category",
        "value": "Other Insecticides",
        "links": [],
        "cross_references": []
      },
      "sourcesuses": {
        "original_name": "Sources/Uses",
        "value": "Used as synergist for pyrethrum and carbamate insecticides; [HSDB]",
        "links": [],
        "cross_references": [
          {
            "type": "name_match",
            "text": "carbamate insecticides",
            "confidence": 1.0,
            "uuid": "d406afe4-aed9-49d6-a6fa-726d8c380439",
            "name": "CARBAMATE INSECTICIDES",
            "url": "https://haz-map.com/Agents/33",
            "category": "agents"
          },
          {
            "type": "name_match",
            "text": "pyrethrum",
            "confidence": 1.0,
            "uuid": "2207eb81-00c4-4197-8027-9a241d9cab6a",
            "name": "Pyrethrum",
            "url": "https://haz-map.com/Agents/615",
            "category": "agents"
          }
        ]
      },
      "comments": {
        "original_name": "Comments",
        "value": "See \"Piperonyl butoxide.\"",
        "links": [],
        "cross_references": [
          {
            "type": "name_match",
            "text": "piperonyl butoxide",
            "confidence": 1.0,
            "uuid": "7094e7ca-33b9-45be-8c96-f2868f9c5fd0",
            "name": "Piperonyl butoxide",
            "url": "https://haz-map.com/Agents/6725",
            "category": "agents"
          }
        ]
      },
      "biomedical_references": {
        "original_name": "Biomedical References",
        "value": "Search PubMed",
        "links": [
          {
            "text": "Search PubMed",
            "url": "https://www.ncbi.nlm.nih.gov/pubmed?term=Piprotal%20AND%20human%5Bmh%5D%20AND%20%28Occupational%20Diseases%20%5Bmh%5D%20OR%20Occupational%20Exposure%20%5Bmh%5D%29%20%20AND%20%28tox%5Bsb%5D%29&cmd=search"
          }
        ],
        "cross_references": []
      }
    },
    "exposure_assessment": {
      "vapor_pressure": {
        "original_name": "Vapor Pressure",
        "value": "4.21E-10 mm Hg",
        "links": [],
        "cross_references": []
      }
    },
    "diseases_processes_and_activities_linked_to_this_agent": {
      "processes": {
        "original_name": "Processes",
        "value": "Industrial Processes with risk of exposure: Farming (Pesticides)",
        "links": [
          {
            "text": "Farming (Pesticides)",
            "url": "https://haz-map.com/Processes/218"
          }
        ],
        "cross_references": [
          {
            "type": "url_match",
            "text": "Farming (Pesticides)",
            "url": "https://haz-map.com/Processes/218",
            "confidence": 1.0,
            "uuid": "cf1e5815-c9bb-4917-82a5-391848170b7e",
            "name": "Farming (Pesticides)",
            "category": "processes"
          }
        ]
      }
    }
  },
  "cross_references": [
    {
      "type": "url_match",
      "text": "Farming (Pesticides)",
      "url": "https://haz-map.com/Processes/218",
      "confidence": 1.0,
      "uuid": "cf1e5815-c9bb-4917-82a5-391848170b7e",
      "name": "Farming (Pesticides)",
      "category": "processes"
    },
    {
      "type": "name_match",
      "text": "benzene",
      "confidence": 1.0,
      "uuid": "b05124de-5f34-4c14-8f04-ccb20c3780d9",
      "name": "Benzene",
      "url": "https://haz-map.com/Agents/5",
      "category": "agents"
    },
    {
      "type": "name_match",
      "text": "carbamate insecticides",
      "confidence": 1.0,
      "uuid": "d406afe4-aed9-49d6-a6fa-726d8c380439",
      "name": "CARBAMATE INSECTICIDES",
      "url": "https://haz-map.com/Agents/33",
      "category": "agents"
    },
    {
      "type": "name_match",
      "text": "pyrethrum",
      "confidence": 1.0,
      "uuid": "2207eb81-00c4-4197-8027-9a241d9cab6a",
      "name": "Pyrethrum",
      "url": "https://haz-map.com/Agents/615",
      "category": "agents"
    },
    {
      "type": "name_match",
      "text": "ethylene",
      "confidence": 1.0,
      "uuid": "958eacc0-5135-4b62-bb93-6df972bf552f",
      "name": "Ethylene",
      "url": "https://haz-map.com/Agents/1076",
      "category": "agents"
    },
    {
      "type": "name_match",
      "text": "acetal",
      "confidence": 1.0,
      "uuid": "1ee09b5b-04fd-47c0-ab34-a2d9db740bcb",
      "name": "Acetal",
      "url": "https://haz-map.com/Agents/3381",
      "category": "agents"
    },
    {
      "type": "name_match",
      "text": "piperonal",
      "confidence": 1.0,
      "uuid": "c1646bc4-f3e5-426b-81f0-649ce55960c3",
      "name": "Piperonal",
      "url": "https://haz-map.com/Agents/6723",
      "category": "agents"
    },
    {
      "type": "name_match",
      "text": "piperonyl butoxide",
      "confidence": 1.0,
      "uuid": "7094e7ca-33b9-45be-8c96-f2868f9c5fd0",
      "name": "Piperonyl butoxide",
      "url": "https://haz-map.com/Agents/6725",
      "category": "agents"
    },
    {
      "type": "name_match",
      "text": "piprotal",
      "confidence": 1.0,
      "uuid": "2979cde1-1fc3-4a43-8ad9-a70f033068cd",
      "name": "Piprotal",
      "url": "https://haz-map.com/Agents/6728",
      "category": "agents"
    },
    {
      "type": "name_match",
      "text": "1,3-benzodioxole",
      "confidence": 1.0,
      "uuid": "9268b3cb-9e89-404a-a700-7768df1ac1a5",
      "name": "1,3-Benzodioxole",
      "url": "https://haz-map.com/Agents/9760",
      "category": "agents"
    }
  ],
  "all_links": [
    {
      "text": "Search PubMed",
      "url": "https://www.ncbi.nlm.nih.gov/pubmed?term=Piprotal%20AND%20human%5Bmh%5D%20AND%20%28Occupational%20Diseases%20%5Bmh%5D%20OR%20Occupational%20Exposure%20%5Bmh%5D%29%20%20AND%20%28tox%5Bsb%5D%29&cmd=search"
    },
    {
      "text": "Farming (Pesticides)",
      "url": "https://haz-map.com/Processes/218"
    }
  ]
}