{
  "metadata": {
    "scraped_from": "https://haz-map.com/Agents/7168",
    "entity_name": "Sodium 2-ethylhexyl sulfate",
    "category": "agents",
    "uuid": "2984ea4f-2631-4c9f-88b2-f2f84735107d",
    "scraped_at": "2025-07-23T20:09:53.019033"
  },
  "parsed_at": "2025-07-24T01:02:01.673577",
  "title": "Sodium 2-ethylhexyl sulfate",
  "sections": {
    "general": {
      "agent_name": {
        "original_name": "Agent Name",
        "value": "Sodium 2-ethylhexyl sulfate",
        "links": [],
        "cross_references": [
          {
            "type": "name_match",
            "text": "sodium",
            "confidence": 1.0,
            "uuid": "1adffc42-a4d8-44d5-81d6-7dbd96ef8a6f",
            "name": "Sodium",
            "url": "https://haz-map.com/Agents/1527",
            "category": "agents"
          },
          {
            "type": "name_match",
            "text": "sodium 2-ethylhexyl sulfate",
            "confidence": 1.0,
            "uuid": "2984ea4f-2631-4c9f-88b2-f2f84735107d",
            "name": "Sodium 2-ethylhexyl sulfate",
            "url": "https://haz-map.com/Agents/7168",
            "category": "agents"
          }
        ]
      },
      "alternative_name": {
        "original_name": "Alternative Name",
        "value": "Sodium ethasulfate",
        "links": [],
        "cross_references": [
          {
            "type": "name_match",
            "text": "sodium",
            "confidence": 1.0,
            "uuid": "1adffc42-a4d8-44d5-81d6-7dbd96ef8a6f",
            "name": "Sodium",
            "url": "https://haz-map.com/Agents/1527",
            "category": "agents"
          }
        ]
      },
      "cas_number": {
        "original_name": "CAS Number",
        "value": "126-92-1",
        "links": [],
        "cross_references": []
      },
      "formula": {
        "original_name": "Formula",
        "value": "C8-H18-O4-S.Na",
        "links": [],
        "cross_references": []
      },
      "major_category": {
        "original_name": "Major Category",
        "value": "Metals",
        "links": [],
        "cross_references": []
      },
      "synonyms": {
        "original_name": "Synonyms",
        "value": "Sodium ethasulfate; Tergemist; 08-Union Carbide; 1-Hexanol, 2-ethyl-, hydrogen sulfate, sodium salt; 1-Hexanol, 2-ethyl-, sulfate, sodium salt; 2-Ethyl-1-hexanol hydrogen sulfate sodium salt; 2-Ethyl-1-hexanol sodium sulfate; 2-Ethyl-1-hexanol sulfate sodium salt; 2-Ethylhexyl sodium sulfate; 2-Ethylhexylsiran sodny [Czech]; 2-Ethylhexylsulfate sodium; Emcol D 5-10; Emersal 6465; Etasulfate de sodium [INN-French]; Etasulfato sodico [INN-Spanish]; Ethasulfate sodium; Hexanol, 2-ethyl-, hydrogen sulfate, sodium salt; Mono(2-ethylhexyl) sulfate sodium salt; Mono(2-ethylhexyl)sulfate sodium salt; NIA proof 08; Natrii etasulfas [INN-Latin]; Pentrone ON; Propaste 6708; Sipex bos; Sodium (2-ethylhexyl)alcohol sulfate; Sodium etasulfate; Sodium mono(2-ethylhexyl) sulfate; Sodium octyl sulfate, iso; Sodium(2-ethylhexyl)alcohol sulfate; Sole Tege TS-25; Sulfirol 8; Sulfuric acid, mono(2-ethylhexyl) ester, sodium salt; Tergitol 08; Tergitol Anionic 08; [ChemIDplus]",
        "links": [],
        "cross_references": [
          {
            "type": "name_match",
            "text": "sulfuric acid",
            "confidence": 1.0,
            "uuid": "68b10130-8bd0-4778-a4f8-832c880d23aa",
            "name": "Sulfuric acid",
            "url": "https://haz-map.com/Agents/635",
            "category": "agents"
          },
          {
            "type": "name_match",
            "text": "hydrogen",
            "confidence": 1.0,
            "uuid": "e2d9645f-5559-4d88-b820-fc4710c154f2",
            "name": "Hydrogen",
            "url": "https://haz-map.com/Agents/1070",
            "category": "agents"
          },
          {
            "type": "name_match",
            "text": "1-hexanol",
            "confidence": 1.0,
            "uuid": "544454a9-fa4b-4f9e-b09e-b08ab6e3c908",
            "name": "1-Hexanol",
            "url": "https://haz-map.com/Agents/1480",
            "category": "agents"
          },
          {
            "type": "name_match",
            "text": "sodium",
            "confidence": 1.0,
            "uuid": "1adffc42-a4d8-44d5-81d6-7dbd96ef8a6f",
            "name": "Sodium",
            "url": "https://haz-map.com/Agents/1527",
            "category": "agents"
          },
          {
            "type": "name_match",
            "text": "sulfur",
            "confidence": 1.0,
            "uuid": "5aabdef6-71c8-44c8-b762-feaabff50696",
            "name": "Sulfur",
            "url": "https://haz-map.com/Agents/1942",
            "category": "agents"
          },
          {
            "type": "name_match",
            "text": "sodium sulfate",
            "confidence": 1.0,
            "uuid": "ccd899fb-4453-4a54-9e35-eac1f8565488",
            "name": "Sodium sulfate",
            "url": "https://haz-map.com/Agents/2030",
            "category": "agents"
          },
          {
            "type": "name_match",
            "text": "sodium octyl sulfate",
            "confidence": 1.0,
            "uuid": "caf89574-6b88-4dc0-9163-41a3d64b0652",
            "name": "Sodium octyl sulfate",
            "url": "https://haz-map.com/Agents/17620",
            "category": "agents"
          },
          {
            "type": "name_match",
            "text": "uric acid",
            "confidence": 1.0,
            "uuid": "bd67e9b1-899e-4f1c-95f0-d25380f3c966",
            "name": "Uric acid",
            "url": "https://haz-map.com/Agents/18587",
            "category": "agents"
          }
        ]
      },
      "category": {
        "original_name": "Category",
        "value": "Organic Compounds, Metal Salts",
        "links": [],
        "cross_references": [
          {
            "type": "fuzzy_match",
            "text": "organic compounds",
            "matched_name": "Tin, organic compounds",
            "confidence": 0.8196969696969697,
            "uuid": "e027d413-8869-4308-9eb2-27d768b011ea",
            "category": "agents",
            "url": "https://haz-map.com/Agents/656"
          }
        ]
      },
      "description": {
        "original_name": "Description",
        "value": "Clear colorless liquid; [CAMEO] Colorless liquid; [MSDSonline]",
        "links": [],
        "cross_references": []
      },
      "sourcesuses": {
        "original_name": "Sources/Uses",
        "value": "Used as wetting agent for the mercerization of cotton and a surfactant in dishwashing detergents; [HSDB]",
        "links": [],
        "cross_references": [
          {
            "type": "name_match",
            "text": "ash",
            "confidence": 1.0,
            "uuid": "68b360f1-5ad0-4337-bea0-d7adca2961b5",
            "name": "Ash",
            "url": "https://haz-map.com/Agents/965",
            "category": "agents"
          }
        ]
      },
      "comments": {
        "original_name": "Comments",
        "value": "Emergency treatment after ingestion: detergents and soaps; Irritating to skin and eyes; [HSDB] A skin, eye, nose, throat, and respiratory tract irritant; [CAMEO] A skin and eye irritant; [MSDSonline]",
        "links": [],
        "cross_references": []
      },
      "biomedical_references": {
        "original_name": "Biomedical References",
        "value": "Search PubMed",
        "links": [
          {
            "text": "Search PubMed",
            "url": "https://www.ncbi.nlm.nih.gov/pubmed?term=Sodium+2-ethylhexyl+sulfate%20AND%20human%5Bmh%5D%20AND%20%28Occupational%20Diseases%20%5Bmh%5D%20OR%20Occupational%20Exposure%20%5Bmh%5D%29%20%20AND%20%28tox%5Bsb%5D%29&cmd=search"
          }
        ],
        "cross_references": []
      }
    },
    "exposure_assessment": {
      "vapor_pressure": {
        "original_name": "Vapor Pressure",
        "value": "22.5 mm Hg",
        "links": [],
        "cross_references": []
      },
      "lethal_concentration": {
        "original_name": "Lethal Concentration",
        "value": "LC (rat) > 30 mg/m3/8h",
        "links": [],
        "cross_references": []
      }
    },
    "diseases_processes_and_activities_linked_to_this_agent": {
      "processes": {
        "original_name": "Processes",
        "value": "Industrial Processes with risk of exposure: Textiles (Fiber & Fabric Manufacturing)",
        "links": [
          {
            "text": "Textiles (Fiber & Fabric Manufacturing)",
            "url": "https://haz-map.com/Processes/135"
          }
        ],
        "cross_references": [
          {
            "type": "url_match",
            "text": "Textiles (Fiber & Fabric Manufacturing)",
            "url": "https://haz-map.com/Processes/135",
            "confidence": 1.0,
            "uuid": "43ebdcdb-bb09-4402-87b6-ae8cf169dddd",
            "name": "Textiles (Fiber & Fabric Manufacturing)",
            "category": "processes"
          }
        ]
      }
    }
  },
  "cross_references": [
    {
      "type": "url_match",
      "text": "Textiles (Fiber & Fabric Manufacturing)",
      "url": "https://haz-map.com/Processes/135",
      "confidence": 1.0,
      "uuid": "43ebdcdb-bb09-4402-87b6-ae8cf169dddd",
      "name": "Textiles (Fiber & Fabric Manufacturing)",
      "category": "processes"
    },
    {
      "type": "name_match",
      "text": "sulfuric acid",
      "confidence": 1.0,
      "uuid": "68b10130-8bd0-4778-a4f8-832c880d23aa",
      "name": "Sulfuric acid",
      "url": "https://haz-map.com/Agents/635",
      "category": "agents"
    },
    {
      "type": "name_match",
      "text": "ash",
      "confidence": 1.0,
      "uuid": "68b360f1-5ad0-4337-bea0-d7adca2961b5",
      "name": "Ash",
      "url": "https://haz-map.com/Agents/965",
      "category": "agents"
    },
    {
      "type": "name_match",
      "text": "hydrogen",
      "confidence": 1.0,
      "uuid": "e2d9645f-5559-4d88-b820-fc4710c154f2",
      "name": "Hydrogen",
      "url": "https://haz-map.com/Agents/1070",
      "category": "agents"
    },
    {
      "type": "name_match",
      "text": "1-hexanol",
      "confidence": 1.0,
      "uuid": "544454a9-fa4b-4f9e-b09e-b08ab6e3c908",
      "name": "1-Hexanol",
      "url": "https://haz-map.com/Agents/1480",
      "category": "agents"
    },
    {
      "type": "name_match",
      "text": "sodium",
      "confidence": 1.0,
      "uuid": "1adffc42-a4d8-44d5-81d6-7dbd96ef8a6f",
      "name": "Sodium",
      "url": "https://haz-map.com/Agents/1527",
      "category": "agents"
    },
    {
      "type": "name_match",
      "text": "sulfur",
      "confidence": 1.0,
      "uuid": "5aabdef6-71c8-44c8-b762-feaabff50696",
      "name": "Sulfur",
      "url": "https://haz-map.com/Agents/1942",
      "category": "agents"
    },
    {
      "type": "name_match",
      "text": "sodium sulfate",
      "confidence": 1.0,
      "uuid": "ccd899fb-4453-4a54-9e35-eac1f8565488",
      "name": "Sodium sulfate",
      "url": "https://haz-map.com/Agents/2030",
      "category": "agents"
    },
    {
      "type": "name_match",
      "text": "sodium 2-ethylhexyl sulfate",
      "confidence": 1.0,
      "uuid": "2984ea4f-2631-4c9f-88b2-f2f84735107d",
      "name": "Sodium 2-ethylhexyl sulfate",
      "url": "https://haz-map.com/Agents/7168",
      "category": "agents"
    },
    {
      "type": "name_match",
      "text": "sodium octyl sulfate",
      "confidence": 1.0,
      "uuid": "caf89574-6b88-4dc0-9163-41a3d64b0652",
      "name": "Sodium octyl sulfate",
      "url": "https://haz-map.com/Agents/17620",
      "category": "agents"
    },
    {
      "type": "name_match",
      "text": "uric acid",
      "confidence": 1.0,
      "uuid": "bd67e9b1-899e-4f1c-95f0-d25380f3c966",
      "name": "Uric acid",
      "url": "https://haz-map.com/Agents/18587",
      "category": "agents"
    },
    {
      "type": "fuzzy_match",
      "text": "organic compounds",
      "matched_name": "Tin, organic compounds",
      "confidence": 0.8196969696969697,
      "uuid": "e027d413-8869-4308-9eb2-27d768b011ea",
      "category": "agents",
      "url": "https://haz-map.com/Agents/656"
    }
  ],
  "all_links": [
    {
      "text": "Search PubMed",
      "url": "https://www.ncbi.nlm.nih.gov/pubmed?term=Sodium+2-ethylhexyl+sulfate%20AND%20human%5Bmh%5D%20AND%20%28Occupational%20Diseases%20%5Bmh%5D%20OR%20Occupational%20Exposure%20%5Bmh%5D%29%20%20AND%20%28tox%5Bsb%5D%29&cmd=search"
    },
    {
      "text": "Textiles (Fiber & Fabric Manufacturing)",
      "url": "https://haz-map.com/Processes/135"
    }
  ]
}