{
  "metadata": {
    "scraped_from": "https://haz-map.com/Agents/16025",
    "entity_name": "N-Methyl-N-(trimethylsilyl)trifluoroacetamide",
    "category": "agents",
    "uuid": "29a4154d-b63e-45c2-b067-6fdb7249f601",
    "scraped_at": "2025-07-23T21:33:54.966750"
  },
  "parsed_at": "2025-07-24T01:07:37.971230",
  "title": "N-Methyl-N-(trimethylsilyl)trifluoroacetamide",
  "sections": {
    "general": {
      "agent_name": {
        "original_name": "Agent Name",
        "value": "N-Methyl-N-(trimethylsilyl)trifluoroacetamide",
        "links": [],
        "cross_references": [
          {
            "type": "name_match",
            "text": "acetamide",
            "confidence": 1.0,
            "uuid": "dd8ffc77-2f5f-4c87-8995-3206d6c9affc",
            "name": "Acetamide",
            "url": "https://haz-map.com/Agents/3385",
            "category": "agents"
          },
          {
            "type": "name_match",
            "text": "fluoroacetamide",
            "confidence": 1.0,
            "uuid": "3e32b252-3df8-4df5-b30e-f2158d479a26",
            "name": "Fluoroacetamide",
            "url": "https://haz-map.com/Agents/5347",
            "category": "agents"
          },
          {
            "type": "name_match",
            "text": "n-methyl-n-(trimethylsilyl)trifluoroacetamide",
            "confidence": 1.0,
            "uuid": "29a4154d-b63e-45c2-b067-6fdb7249f601",
            "name": "N-Methyl-N-(trimethylsilyl)trifluoroacetamide",
            "url": "https://haz-map.com/Agents/16025",
            "category": "agents"
          }
        ]
      },
      "cas_number": {
        "original_name": "CAS Number",
        "value": "24589-78-4",
        "links": [],
        "cross_references": []
      },
      "formula": {
        "original_name": "Formula",
        "value": "C6-H12-F3-N-O-Si",
        "links": [],
        "cross_references": []
      },
      "major_category": {
        "original_name": "Major Category",
        "value": "Metals",
        "links": [],
        "cross_references": []
      },
      "synonyms": {
        "original_name": "Synonyms",
        "value": "MSTFA; N-Methyl-N-trimethylsilyltrifluoroacetamide; Acetamide, 2,2,2-trifluoro-N-methyl-N-(trimethylsilyl)-; [ChemIDplus] UN1993",
        "links": [],
        "cross_references": [
          {
            "type": "name_match",
            "text": "acetamide",
            "confidence": 1.0,
            "uuid": "dd8ffc77-2f5f-4c87-8995-3206d6c9affc",
            "name": "Acetamide",
            "url": "https://haz-map.com/Agents/3385",
            "category": "agents"
          },
          {
            "type": "name_match",
            "text": "fluoroacetamide",
            "confidence": 1.0,
            "uuid": "3e32b252-3df8-4df5-b30e-f2158d479a26",
            "name": "Fluoroacetamide",
            "url": "https://haz-map.com/Agents/5347",
            "category": "agents"
          }
        ]
      },
      "category": {
        "original_name": "Category",
        "value": "Metalloid Compounds (Silicon)",
        "links": [],
        "cross_references": [
          {
            "type": "name_match",
            "text": "silicon",
            "confidence": 1.0,
            "uuid": "443f4405-7a1f-47db-bf43-809557f77483",
            "name": "Silicon",
            "url": "https://haz-map.com/Agents/623",
            "category": "agents"
          }
        ]
      },
      "description": {
        "original_name": "Description",
        "value": "Colorless liquid; [Sigma-Aldrich MSDS]",
        "links": [],
        "cross_references": []
      },
      "sourcesuses": {
        "original_name": "Sources/Uses",
        "value": "\"Derivatization, especially silylation, is commonly used to identify and quantify both known and unknown compounds using GC-MS. It is not limited to small molecules. Even peptides can be silylated, especially when the introduction of deuterium is desired. N-Methyl-N-(trimethylsilyl)trifluoroacetamide (MSTFA) is a very versatile reagent because it can be used to derivatize many of the functional groups commonly found in organic compounds. It operates by attachment of a nonpolar trimethylsilyl (TMS) group.\" [Sigma-Aldrich]",
        "links": [],
        "cross_references": [
          {
            "type": "name_match",
            "text": "deuterium",
            "confidence": 1.0,
            "uuid": "ec37973d-f893-4e67-b758-6711c6893a52",
            "name": "Deuterium",
            "url": "https://haz-map.com/Agents/2021",
            "category": "agents"
          },
          {
            "type": "name_match",
            "text": "acetamide",
            "confidence": 1.0,
            "uuid": "dd8ffc77-2f5f-4c87-8995-3206d6c9affc",
            "name": "Acetamide",
            "url": "https://haz-map.com/Agents/3385",
            "category": "agents"
          },
          {
            "type": "name_match",
            "text": "fluoroacetamide",
            "confidence": 1.0,
            "uuid": "3e32b252-3df8-4df5-b30e-f2158d479a26",
            "name": "Fluoroacetamide",
            "url": "https://haz-map.com/Agents/5347",
            "category": "agents"
          },
          {
            "type": "name_match",
            "text": "n-methyl-n-(trimethylsilyl)trifluoroacetamide",
            "confidence": 1.0,
            "uuid": "29a4154d-b63e-45c2-b067-6fdb7249f601",
            "name": "N-Methyl-N-(trimethylsilyl)trifluoroacetamide",
            "url": "https://haz-map.com/Agents/16025",
            "category": "agents"
          },
          {
            "type": "fuzzy_match",
            "text": "organic compounds",
            "matched_name": "Tin, organic compounds",
            "confidence": 0.8196969696969697,
            "uuid": "e027d413-8869-4308-9eb2-27d768b011ea",
            "category": "agents",
            "url": "https://haz-map.com/Agents/656"
          }
        ]
      },
      "comments": {
        "original_name": "Comments",
        "value": "Causes decreased immune response in intraperitoneal lethal-dose studies of mice (LDLo = 1,000 mg/kg); [RTECS] A skin and strong eye irritant; [Sigma-Aldrich MSDS] See \"N-Methyl-N-(tert-butyldimethylsilyl)trifluoroacetamide.\" See \"N-Methyl-bis(trifluoroacetamide).\"",
        "links": [],
        "cross_references": [
          {
            "type": "name_match",
            "text": "acetamide",
            "confidence": 1.0,
            "uuid": "dd8ffc77-2f5f-4c87-8995-3206d6c9affc",
            "name": "Acetamide",
            "url": "https://haz-map.com/Agents/3385",
            "category": "agents"
          },
          {
            "type": "name_match",
            "text": "fluoroacetamide",
            "confidence": 1.0,
            "uuid": "3e32b252-3df8-4df5-b30e-f2158d479a26",
            "name": "Fluoroacetamide",
            "url": "https://haz-map.com/Agents/5347",
            "category": "agents"
          },
          {
            "type": "name_match",
            "text": "n-methyl-bis(trifluoroacetamide)",
            "confidence": 1.0,
            "uuid": "7eea0545-d767-456c-9178-3e69feaf397a",
            "name": "N-Methyl-bis(trifluoroacetamide)",
            "url": "https://haz-map.com/Agents/16020",
            "category": "agents"
          },
          {
            "type": "name_match",
            "text": "n-methyl-n-(tert-butyldimethylsilyl)trifluoroacetamide",
            "confidence": 1.0,
            "uuid": "26d4f300-06ec-43b5-8ccd-ea9c371c2e61",
            "name": "N-Methyl-N-(tert-butyldimethylsilyl)trifluoroacetamide",
            "url": "https://haz-map.com/Agents/16024",
            "category": "agents"
          }
        ]
      },
      "biomedical_references": {
        "original_name": "Biomedical References",
        "value": "Search PubMed",
        "links": [
          {
            "text": "Search PubMed",
            "url": "https://www.ncbi.nlm.nih.gov/pubmed?term=N-Methyl-N-(trimethylsilyl)trifluoroacetamide%20AND%20human%5Bmh%5D%20AND%20%28Occupational%20Diseases%20%5Bmh%5D%20OR%20Occupational%20Exposure%20%5Bmh%5D%29%20%20AND%20%28tox%5Bsb%5D%29&cmd=search"
          }
        ],
        "cross_references": []
      }
    },
    "exposure_assessment": {
      "explanatory_notes": {
        "original_name": "Explanatory Notes",
        "value": "Vapor pressure = 8.8 mm Hg at 27 deg C; [Sigma-Aldrich MSDS] The Guide in the Emergency Response Guidebook is for \"Flammable liquid, n.o.s.\"",
        "links": [],
        "cross_references": []
      }
    },
    "diseases_processes_and_activities_linked_to_this_agent": {
      "other_information": {
        "original_name": "Other Information",
        "value": "No other related information on this agent was found.",
        "links": [],
        "cross_references": []
      }
    }
  },
  "cross_references": [
    {
      "type": "name_match",
      "text": "silicon",
      "confidence": 1.0,
      "uuid": "443f4405-7a1f-47db-bf43-809557f77483",
      "name": "Silicon",
      "url": "https://haz-map.com/Agents/623",
      "category": "agents"
    },
    {
      "type": "name_match",
      "text": "deuterium",
      "confidence": 1.0,
      "uuid": "ec37973d-f893-4e67-b758-6711c6893a52",
      "name": "Deuterium",
      "url": "https://haz-map.com/Agents/2021",
      "category": "agents"
    },
    {
      "type": "name_match",
      "text": "acetamide",
      "confidence": 1.0,
      "uuid": "dd8ffc77-2f5f-4c87-8995-3206d6c9affc",
      "name": "Acetamide",
      "url": "https://haz-map.com/Agents/3385",
      "category": "agents"
    },
    {
      "type": "name_match",
      "text": "fluoroacetamide",
      "confidence": 1.0,
      "uuid": "3e32b252-3df8-4df5-b30e-f2158d479a26",
      "name": "Fluoroacetamide",
      "url": "https://haz-map.com/Agents/5347",
      "category": "agents"
    },
    {
      "type": "name_match",
      "text": "n-methyl-bis(trifluoroacetamide)",
      "confidence": 1.0,
      "uuid": "7eea0545-d767-456c-9178-3e69feaf397a",
      "name": "N-Methyl-bis(trifluoroacetamide)",
      "url": "https://haz-map.com/Agents/16020",
      "category": "agents"
    },
    {
      "type": "name_match",
      "text": "n-methyl-n-(tert-butyldimethylsilyl)trifluoroacetamide",
      "confidence": 1.0,
      "uuid": "26d4f300-06ec-43b5-8ccd-ea9c371c2e61",
      "name": "N-Methyl-N-(tert-butyldimethylsilyl)trifluoroacetamide",
      "url": "https://haz-map.com/Agents/16024",
      "category": "agents"
    },
    {
      "type": "name_match",
      "text": "n-methyl-n-(trimethylsilyl)trifluoroacetamide",
      "confidence": 1.0,
      "uuid": "29a4154d-b63e-45c2-b067-6fdb7249f601",
      "name": "N-Methyl-N-(trimethylsilyl)trifluoroacetamide",
      "url": "https://haz-map.com/Agents/16025",
      "category": "agents"
    },
    {
      "type": "fuzzy_match",
      "text": "organic compounds",
      "matched_name": "Tin, organic compounds",
      "confidence": 0.8196969696969697,
      "uuid": "e027d413-8869-4308-9eb2-27d768b011ea",
      "category": "agents",
      "url": "https://haz-map.com/Agents/656"
    }
  ],
  "all_links": [
    {
      "text": "Search PubMed",
      "url": "https://www.ncbi.nlm.nih.gov/pubmed?term=N-Methyl-N-(trimethylsilyl)trifluoroacetamide%20AND%20human%5Bmh%5D%20AND%20%28Occupational%20Diseases%20%5Bmh%5D%20OR%20Occupational%20Exposure%20%5Bmh%5D%29%20%20AND%20%28tox%5Bsb%5D%29&cmd=search"
    }
  ]
}