{
  "metadata": {
    "scraped_from": "https://haz-map.com/Agents/646",
    "entity_name": "1,1,1,2-Tetrachloro-2,2-difluoroethane",
    "category": "agents",
    "uuid": "29af7f89-3277-49b4-984f-b6d31bfba2ac",
    "scraped_at": "2025-07-23T18:46:09.895562"
  },
  "parsed_at": "2025-07-24T01:06:55.557125",
  "title": "1,1,1,2-Tetrachloro-2,2-difluoroethane",
  "sections": {
    "general": {
      "agent_name": {
        "original_name": "Agent Name",
        "value": "1,1,1,2-Tetrachloro-2,2-difluoroethane",
        "links": [],
        "cross_references": [
          {
            "type": "name_match",
            "text": "1,1,1,2-tetrachloro-2,2-difluoroethane",
            "confidence": 1.0,
            "uuid": "29af7f89-3277-49b4-984f-b6d31bfba2ac",
            "name": "1,1,1,2-Tetrachloro-2,2-difluoroethane",
            "url": "https://haz-map.com/Agents/646",
            "category": "agents"
          },
          {
            "type": "name_match",
            "text": "ethane",
            "confidence": 1.0,
            "uuid": "5162cc8c-dfb9-4060-81ac-38a8cec7f9dd",
            "name": "Ethane",
            "url": "https://haz-map.com/Agents/1075",
            "category": "agents"
          },
          {
            "type": "name_match",
            "text": "fluoroethane",
            "confidence": 1.0,
            "uuid": "6608cb94-16b3-438d-8d0f-88e816195bd4",
            "name": "Fluoroethane",
            "url": "https://haz-map.com/Agents/20780",
            "category": "agents"
          },
          {
            "type": "fuzzy_match",
            "text": "2-difluoroethane",
            "matched_name": "1,2-Difluoroethane",
            "confidence": 0.8819444444444444,
            "uuid": "8be7f73b-7f31-4c84-b6ff-e77ea34d6b40",
            "category": "agents",
            "url": "https://haz-map.com/Agents/2758"
          }
        ]
      },
      "cas_number": {
        "original_name": "CAS Number",
        "value": "76-11-9",
        "links": [],
        "cross_references": []
      },
      "formula": {
        "original_name": "Formula",
        "value": "C2-Cl4-F2",
        "links": [],
        "cross_references": []
      },
      "major_category": {
        "original_name": "Major Category",
        "value": "Solvents",
        "links": [],
        "cross_references": []
      },
      "synonyms": {
        "original_name": "Synonyms",
        "value": "1,1-Difluoro-1,2,2,2-tetrachloroethane; 1,1-Difluoroperchloroethane; 2,2-Difluoro-1,1,1,2-tetrachloroethane; 2,2-Difluorotetrachloroethane; CFC 112a; Ethane, 1,1-difluoro-1,2,2,2-tetrachloro-; F 112a; Fluorocarbon 112a; Halocarbon 112a; R 112a; Refrigerant 112a; [ChemIDplus]",
        "links": [],
        "cross_references": [
          {
            "type": "name_match",
            "text": "1,1,1,2-tetrachloroethane",
            "confidence": 1.0,
            "uuid": "39bcfd7a-ec3b-486b-91e4-9eb23ecf6025",
            "name": "1,1,1,2-Tetrachloroethane",
            "url": "https://haz-map.com/Agents/113",
            "category": "agents"
          },
          {
            "type": "name_match",
            "text": "ethane",
            "confidence": 1.0,
            "uuid": "5162cc8c-dfb9-4060-81ac-38a8cec7f9dd",
            "name": "Ethane",
            "url": "https://haz-map.com/Agents/1075",
            "category": "agents"
          },
          {
            "type": "name_match",
            "text": "carbon",
            "confidence": 1.0,
            "uuid": "b53f8815-ee80-40ef-b4aa-3b000e17dab5",
            "name": "Carbon",
            "url": "https://haz-map.com/Agents/1891",
            "category": "agents"
          },
          {
            "type": "fuzzy_match",
            "text": "2-tetrachloroethane",
            "matched_name": "1,1,2,2-Tetrachloroethane",
            "confidence": 0.803076923076923,
            "uuid": "bf7bbfe0-2d81-4a55-9d07-1bd508f2ccea",
            "category": "agents",
            "url": "https://haz-map.com/Agents/114"
          }
        ]
      },
      "category": {
        "original_name": "Category",
        "value": "Chlorofluorocarbons",
        "links": [],
        "cross_references": [
          {
            "type": "name_match",
            "text": "chlorofluorocarbons",
            "confidence": 1.0,
            "uuid": "c53ddd7f-3e80-4621-be68-94100ed642c8",
            "name": "CHLOROFLUOROCARBONS",
            "url": "https://haz-map.com/Agents/706",
            "category": "agents"
          },
          {
            "type": "name_match",
            "text": "carbon",
            "confidence": 1.0,
            "uuid": "b53f8815-ee80-40ef-b4aa-3b000e17dab5",
            "name": "Carbon",
            "url": "https://haz-map.com/Agents/1891",
            "category": "agents"
          }
        ]
      },
      "description": {
        "original_name": "Description",
        "value": "Colorless solid with a slight, ether-like odor. [Note: A liquid above 105 degrees F]; [NIOSH]",
        "links": [],
        "cross_references": [
          {
            "type": "name_match",
            "text": "ht",
            "confidence": 1.0,
            "uuid": "764df367-8d53-4a11-81a2-31ccfe122a8d",
            "name": "HT",
            "url": "https://haz-map.com/Agents/2168",
            "category": "agents"
          }
        ]
      },
      "sourcesuses": {
        "original_name": "Sources/Uses",
        "value": "CFC-112a has been used as a refrigerant. [ACGIH] \"Use in dry cleaning industry; in polymer & plastics industry as blowing or foaming agent; as solvent extractor for separation & purification of biological material; as a dye solvent to give brighter colors and to detect surface cracks or defects in metals; as a corrosion inhibitor.\"; [HSDB]",
        "links": [],
        "cross_references": [
          {
            "type": "name_match",
            "text": "dry cleaning",
            "confidence": 1.0,
            "uuid": "abb34c34-1368-4c52-b43c-a308f90452e9",
            "name": "Dry Cleaning",
            "url": "https://haz-map.com/Processes/166",
            "category": "processes"
          },
          {
            "type": "name_match",
            "text": "ht",
            "confidence": 1.0,
            "uuid": "764df367-8d53-4a11-81a2-31ccfe122a8d",
            "name": "HT",
            "url": "https://haz-map.com/Agents/2168",
            "category": "agents"
          }
        ]
      },
      "comments": {
        "original_name": "Comments",
        "value": "Rats exposed to 10,000 ppm for 2 hours show signs of intoxication. At 20,000 to 30,000 ppm, all rats die within 1.5 to 2 hours. There are signs of kidney and liver injury, but no signs of pulmonary injury. [ACGIH] See \"CHLOROFLUOROCARBONS\";",
        "links": [],
        "cross_references": [
          {
            "type": "name_match",
            "text": "chlorofluorocarbons",
            "confidence": 1.0,
            "uuid": "c53ddd7f-3e80-4621-be68-94100ed642c8",
            "name": "CHLOROFLUOROCARBONS",
            "url": "https://haz-map.com/Agents/706",
            "category": "agents"
          },
          {
            "type": "name_match",
            "text": "carbon",
            "confidence": 1.0,
            "uuid": "b53f8815-ee80-40ef-b4aa-3b000e17dab5",
            "name": "Carbon",
            "url": "https://haz-map.com/Agents/1891",
            "category": "agents"
          }
        ]
      },
      "restricted": {
        "original_name": "Restricted",
        "value": "See CHLOROFLUOROCARBONS",
        "links": [],
        "cross_references": [
          {
            "type": "name_match",
            "text": "chlorofluorocarbons",
            "confidence": 1.0,
            "uuid": "c53ddd7f-3e80-4621-be68-94100ed642c8",
            "name": "CHLOROFLUOROCARBONS",
            "url": "https://haz-map.com/Agents/706",
            "category": "agents"
          },
          {
            "type": "name_match",
            "text": "carbon",
            "confidence": 1.0,
            "uuid": "b53f8815-ee80-40ef-b4aa-3b000e17dab5",
            "name": "Carbon",
            "url": "https://haz-map.com/Agents/1891",
            "category": "agents"
          }
        ]
      },
      "biomedical_references": {
        "original_name": "Biomedical References",
        "value": "Search PubMed",
        "links": [
          {
            "text": "Search PubMed",
            "url": "https://www.ncbi.nlm.nih.gov/pubmed?term=1%2c1%2c1%2c2-Tetrachloro-2%2c2-difluoroethane%20AND%20human%5Bmh%5D%20AND%20%28Occupational%20Diseases%20%5Bmh%5D%20OR%20Occupational%20Exposure%20%5Bmh%5D%29%20%20AND%20%28tox%5Bsb%5D%29&cmd=search"
          }
        ],
        "cross_references": []
      }
    },
    "exposure_assessment": {
      "skin_designation_acgih": {
        "original_name": "Skin Designation (ACGIH)",
        "value": "Insufficient data",
        "links": [],
        "cross_references": []
      },
      "tlv_acgih": {
        "original_name": "TLV (ACGIH)",
        "value": "100 ppm",
        "links": [],
        "cross_references": []
      },
      "pel_osha": {
        "original_name": "PEL (OSHA)",
        "value": "500 ppm",
        "links": [],
        "cross_references": []
      },
      "mak": {
        "original_name": "MAK",
        "value": "200 ppm",
        "links": [],
        "cross_references": []
      },
      "idlh_niosh": {
        "original_name": "IDLH (NIOSH)",
        "value": "2000 ppm",
        "links": [],
        "cross_references": []
      },
      "excerpts_from_documentation_for_idlhs": {
        "original_name": "Excerpts from Documentation for IDLHs",
        "value": "Other animal data: Rats exposed to 10,000 ppm for 1.5 to 2 hours showed slight signs of intoxication but no loss of reflexes, while a concentration of 20,000 to 30,000 ppm was fatal in 1.0 to 2.5 hours [Greenberg and Lester 1950].",
        "links": [],
        "cross_references": [
          {
            "type": "name_match",
            "text": "ht",
            "confidence": 1.0,
            "uuid": "764df367-8d53-4a11-81a2-31ccfe122a8d",
            "name": "HT",
            "url": "https://haz-map.com/Agents/2168",
            "category": "agents"
          }
        ]
      },
      "vapor_pressure": {
        "original_name": "Vapor Pressure",
        "value": "60 mm Hg",
        "links": [],
        "cross_references": []
      },
      "lethal_concentration": {
        "original_name": "Lethal Concentration",
        "value": "LCLo (rat) = 20,000 ppm/30 min",
        "links": [],
        "cross_references": []
      },
      "explanatory_notes": {
        "original_name": "Explanatory Notes",
        "value": "VP from HSDB;",
        "links": [],
        "cross_references": []
      }
    },
    "adverse_effects": {
      "neurotoxin": {
        "original_name": "Neurotoxin",
        "value": "Acute solvent syndrome",
        "links": [],
        "cross_references": []
      },
      "hepatotoxin": {
        "original_name": "Hepatotoxin",
        "value": "Hepatoxic (a) from occupational exposure (secondary effect) or (b) in animal studies or in humans after ingestion",
        "links": [],
        "cross_references": []
      }
    },
    "diseases_processes_and_activities_linked_to_this_agent": {
      "diseases": {
        "original_name": "Diseases",
        "value": "Occupational diseases associated with exposure to this agent: Solvents, acute toxic effect",
        "links": [
          {
            "text": "Solvents, acute toxic effect",
            "url": "https://haz-map.com/Diseases/326"
          }
        ],
        "cross_references": [
          {
            "type": "url_match",
            "text": "Solvents, acute toxic effect",
            "url": "https://haz-map.com/Diseases/326",
            "confidence": 1.0,
            "uuid": "581e90e3-9d0c-45f0-aa6c-3468c28da129",
            "name": "Solvents, acute toxic effect",
            "category": "diseases"
          }
        ]
      }
    }
  },
  "cross_references": [
    {
      "type": "url_match",
      "text": "Solvents, acute toxic effect",
      "url": "https://haz-map.com/Diseases/326",
      "confidence": 1.0,
      "uuid": "581e90e3-9d0c-45f0-aa6c-3468c28da129",
      "name": "Solvents, acute toxic effect",
      "category": "diseases"
    },
    {
      "type": "name_match",
      "text": "dry cleaning",
      "confidence": 1.0,
      "uuid": "abb34c34-1368-4c52-b43c-a308f90452e9",
      "name": "Dry Cleaning",
      "url": "https://haz-map.com/Processes/166",
      "category": "processes"
    },
    {
      "type": "name_match",
      "text": "1,1,1,2-tetrachloroethane",
      "confidence": 1.0,
      "uuid": "39bcfd7a-ec3b-486b-91e4-9eb23ecf6025",
      "name": "1,1,1,2-Tetrachloroethane",
      "url": "https://haz-map.com/Agents/113",
      "category": "agents"
    },
    {
      "type": "name_match",
      "text": "1,1,1,2-tetrachloro-2,2-difluoroethane",
      "confidence": 1.0,
      "uuid": "29af7f89-3277-49b4-984f-b6d31bfba2ac",
      "name": "1,1,1,2-Tetrachloro-2,2-difluoroethane",
      "url": "https://haz-map.com/Agents/646",
      "category": "agents"
    },
    {
      "type": "name_match",
      "text": "chlorofluorocarbons",
      "confidence": 1.0,
      "uuid": "c53ddd7f-3e80-4621-be68-94100ed642c8",
      "name": "CHLOROFLUOROCARBONS",
      "url": "https://haz-map.com/Agents/706",
      "category": "agents"
    },
    {
      "type": "name_match",
      "text": "ethane",
      "confidence": 1.0,
      "uuid": "5162cc8c-dfb9-4060-81ac-38a8cec7f9dd",
      "name": "Ethane",
      "url": "https://haz-map.com/Agents/1075",
      "category": "agents"
    },
    {
      "type": "name_match",
      "text": "carbon",
      "confidence": 1.0,
      "uuid": "b53f8815-ee80-40ef-b4aa-3b000e17dab5",
      "name": "Carbon",
      "url": "https://haz-map.com/Agents/1891",
      "category": "agents"
    },
    {
      "type": "name_match",
      "text": "ht",
      "confidence": 1.0,
      "uuid": "764df367-8d53-4a11-81a2-31ccfe122a8d",
      "name": "HT",
      "url": "https://haz-map.com/Agents/2168",
      "category": "agents"
    },
    {
      "type": "name_match",
      "text": "fluoroethane",
      "confidence": 1.0,
      "uuid": "6608cb94-16b3-438d-8d0f-88e816195bd4",
      "name": "Fluoroethane",
      "url": "https://haz-map.com/Agents/20780",
      "category": "agents"
    },
    {
      "type": "fuzzy_match",
      "text": "2-difluoroethane",
      "matched_name": "1,2-Difluoroethane",
      "confidence": 0.8819444444444444,
      "uuid": "8be7f73b-7f31-4c84-b6ff-e77ea34d6b40",
      "category": "agents",
      "url": "https://haz-map.com/Agents/2758"
    },
    {
      "type": "fuzzy_match",
      "text": "2-tetrachloroethane",
      "matched_name": "1,1,2,2-Tetrachloroethane",
      "confidence": 0.803076923076923,
      "uuid": "bf7bbfe0-2d81-4a55-9d07-1bd508f2ccea",
      "category": "agents",
      "url": "https://haz-map.com/Agents/114"
    }
  ],
  "all_links": [
    {
      "text": "Search PubMed",
      "url": "https://www.ncbi.nlm.nih.gov/pubmed?term=1%2c1%2c1%2c2-Tetrachloro-2%2c2-difluoroethane%20AND%20human%5Bmh%5D%20AND%20%28Occupational%20Diseases%20%5Bmh%5D%20OR%20Occupational%20Exposure%20%5Bmh%5D%29%20%20AND%20%28tox%5Bsb%5D%29&cmd=search"
    },
    {
      "text": "Solvents, acute toxic effect",
      "url": "https://haz-map.com/Diseases/326"
    }
  ]
}