{
  "metadata": {
    "scraped_from": "https://haz-map.com/Agents/19733",
    "entity_name": "3,5,5-Trimethyl-1-hexanol",
    "category": "agents",
    "uuid": "29eb9dfc-ed31-4d70-9f6c-099cecbdb740",
    "scraped_at": "2025-07-23T22:11:55.460383"
  },
  "parsed_at": "2025-07-24T00:53:25.139399",
  "title": "3,5,5-Trimethyl-1-hexanol",
  "sections": {
    "general": {
      "agent_name": {
        "original_name": "Agent Name",
        "value": "3,5,5-Trimethyl-1-hexanol",
        "links": [],
        "cross_references": [
          {
            "type": "name_match",
            "text": "1-hexanol",
            "confidence": 1.0,
            "uuid": "544454a9-fa4b-4f9e-b09e-b08ab6e3c908",
            "name": "1-Hexanol",
            "url": "https://haz-map.com/Agents/1480",
            "category": "agents"
          },
          {
            "type": "name_match",
            "text": "3,5,5-trimethyl-1-hexanol",
            "confidence": 1.0,
            "uuid": "29eb9dfc-ed31-4d70-9f6c-099cecbdb740",
            "name": "3,5,5-Trimethyl-1-hexanol",
            "url": "https://haz-map.com/Agents/19733",
            "category": "agents"
          }
        ]
      },
      "cas_number": {
        "original_name": "CAS Number",
        "value": "3452-97-9",
        "links": [],
        "cross_references": []
      },
      "formula": {
        "original_name": "Formula",
        "value": "C9-H20-O",
        "links": [],
        "cross_references": []
      },
      "major_category": {
        "original_name": "Major Category",
        "value": "Solvents",
        "links": [],
        "cross_references": []
      },
      "synonyms": {
        "original_name": "Synonyms",
        "value": "1-Hexanol, 3,5,5-trimethyl-; 3,5,5-Trimethylhexanol; 3,5,5-Trimethylhexyl alcohol; i-Nonyl alcohol; Nonanol; Nonylol; Trimethylhexyl alcohol; 3,5,5-Trimethylhexan-1-ol; [ChemIDplus] Isononyl alcohol; [ICSC] 3,5,5-Trimethylhexane-1-ol (French); 3,5,5-Trimethyl hexanol; TMH; Alphao 920; Trimethylhexanol; [OECD SIDS: 3,5,5-Trimethyl-1-hexanol - 2002] UN1993",
        "links": [],
        "cross_references": [
          {
            "type": "name_match",
            "text": "1-hexanol",
            "confidence": 1.0,
            "uuid": "544454a9-fa4b-4f9e-b09e-b08ab6e3c908",
            "name": "1-Hexanol",
            "url": "https://haz-map.com/Agents/1480",
            "category": "agents"
          },
          {
            "type": "name_match",
            "text": "nonanol",
            "confidence": 1.0,
            "uuid": "4155e5a2-2d37-4e7c-854b-fd11baa886a8",
            "name": "Nonanol",
            "url": "https://haz-map.com/Agents/15564",
            "category": "agents"
          },
          {
            "type": "name_match",
            "text": "3,5,5-trimethyl-1-hexanol",
            "confidence": 1.0,
            "uuid": "29eb9dfc-ed31-4d70-9f6c-099cecbdb740",
            "name": "3,5,5-Trimethyl-1-hexanol",
            "url": "https://haz-map.com/Agents/19733",
            "category": "agents"
          },
          {
            "type": "fuzzy_match",
            "text": "5-trimethylhexane",
            "matched_name": "2,2,5-Trimethylhexane",
            "confidence": 0.8380952380952381,
            "uuid": "ff7cdd73-fcf1-469f-9744-6271534fc83c",
            "category": "agents",
            "url": "https://haz-map.com/Agents/14612"
          },
          {
            "type": "fuzzy_match",
            "text": "5-trimethylhexane",
            "matched_name": "2,3,5-Trimethylhexane",
            "confidence": 0.8110119047619048,
            "uuid": "20ac6cf3-4551-4618-8339-b8b8a685b4e4",
            "category": "agents",
            "url": "https://haz-map.com/Agents/14614"
          }
        ]
      },
      "category": {
        "original_name": "Category",
        "value": "Alcohols (<C12)",
        "links": [],
        "cross_references": []
      },
      "description": {
        "original_name": "Description",
        "value": "Colorless liquid; [ICSC]",
        "links": [],
        "cross_references": []
      },
      "sourcesuses": {
        "original_name": "Sources/Uses",
        "value": "Used as a closed system intermediate for plasticizers and esters; [OECD SIDS: 3,5,5-Trimethyl-1-hexanol - 2002] Used as a flavoring agent; [FDA]",
        "links": [],
        "cross_references": [
          {
            "type": "name_match",
            "text": "1-hexanol",
            "confidence": 1.0,
            "uuid": "544454a9-fa4b-4f9e-b09e-b08ab6e3c908",
            "name": "1-Hexanol",
            "url": "https://haz-map.com/Agents/1480",
            "category": "agents"
          },
          {
            "type": "name_match",
            "text": "3,5,5-trimethyl-1-hexanol",
            "confidence": 1.0,
            "uuid": "29eb9dfc-ed31-4d70-9f6c-099cecbdb740",
            "name": "3,5,5-Trimethyl-1-hexanol",
            "url": "https://haz-map.com/Agents/19733",
            "category": "agents"
          }
        ]
      },
      "comments": {
        "original_name": "Comments",
        "value": "A skin and eye irritant; Vapor causes skin, eye, and respiratory tract irritation; Chronic exposure may cause liver and kidney injury; [ICSC] Safe when used as a flavoring agent in food; [JECFA] A skin and strong eye irritant; Prolonged or repeated ingestion exposure may cause organ injury; [Sigma-Aldrich MSDS] See \"Diisobutyl carbinol.\"",
        "links": [],
        "cross_references": [
          {
            "type": "name_match",
            "text": "diisobutyl carbinol",
            "confidence": 1.0,
            "uuid": "ecf65f87-2e38-4cc4-b8e0-07c3bd882b15",
            "name": "Diisobutyl carbinol",
            "url": "https://haz-map.com/Agents/4889",
            "category": "agents"
          }
        ]
      },
      "biomedical_references": {
        "original_name": "Biomedical References",
        "value": "Search PubMed",
        "links": [
          {
            "text": "Search PubMed",
            "url": "https://www.ncbi.nlm.nih.gov/pubmed?term=3%2c5%2c5-Trimethyl-1-hexanol%20AND%20human%5Bmh%5D%20AND%20%28Occupational%20Diseases%20%5Bmh%5D%20OR%20Occupational%20Exposure%20%5Bmh%5D%29%20%20AND%20%28tox%5Bsb%5D%29&cmd=search"
          }
        ],
        "cross_references": []
      }
    },
    "exposure_assessment": {
      "vapor_pressure": {
        "original_name": "Vapor Pressure",
        "value": "0.3 mm Hg",
        "links": [],
        "cross_references": []
      },
      "explanatory_notes": {
        "original_name": "Explanatory Notes",
        "value": "The Guide in the Emergency Response Guidebook is for \"Flammable liquid, n.o.s.\"",
        "links": [],
        "cross_references": []
      },
      "nfpa": {
        "original_name": "NFPA",
        "value": "high ambient temp required",
        "links": [],
        "cross_references": []
      }
    },
    "adverse_effects": {
      "neurotoxin": {
        "original_name": "Neurotoxin",
        "value": "Acute solvent syndrome",
        "links": [],
        "cross_references": []
      },
      "hepatotoxin": {
        "original_name": "Hepatotoxin",
        "value": "Hepatoxic (a) from occupational exposure (secondary effect) or (b) in animal studies or in humans after ingestion",
        "links": [],
        "cross_references": []
      }
    },
    "diseases_processes_and_activities_linked_to_this_agent": {
      "diseases": {
        "original_name": "Diseases",
        "value": "Occupational diseases associated with exposure to this agent: Solvents, acute toxic effect",
        "links": [
          {
            "text": "Solvents, acute toxic effect",
            "url": "https://haz-map.com/Diseases/326"
          }
        ],
        "cross_references": [
          {
            "type": "url_match",
            "text": "Solvents, acute toxic effect",
            "url": "https://haz-map.com/Diseases/326",
            "confidence": 1.0,
            "uuid": "581e90e3-9d0c-45f0-aa6c-3468c28da129",
            "name": "Solvents, acute toxic effect",
            "category": "diseases"
          }
        ]
      }
    }
  },
  "cross_references": [
    {
      "type": "url_match",
      "text": "Solvents, acute toxic effect",
      "url": "https://haz-map.com/Diseases/326",
      "confidence": 1.0,
      "uuid": "581e90e3-9d0c-45f0-aa6c-3468c28da129",
      "name": "Solvents, acute toxic effect",
      "category": "diseases"
    },
    {
      "type": "name_match",
      "text": "1-hexanol",
      "confidence": 1.0,
      "uuid": "544454a9-fa4b-4f9e-b09e-b08ab6e3c908",
      "name": "1-Hexanol",
      "url": "https://haz-map.com/Agents/1480",
      "category": "agents"
    },
    {
      "type": "name_match",
      "text": "diisobutyl carbinol",
      "confidence": 1.0,
      "uuid": "ecf65f87-2e38-4cc4-b8e0-07c3bd882b15",
      "name": "Diisobutyl carbinol",
      "url": "https://haz-map.com/Agents/4889",
      "category": "agents"
    },
    {
      "type": "name_match",
      "text": "nonanol",
      "confidence": 1.0,
      "uuid": "4155e5a2-2d37-4e7c-854b-fd11baa886a8",
      "name": "Nonanol",
      "url": "https://haz-map.com/Agents/15564",
      "category": "agents"
    },
    {
      "type": "name_match",
      "text": "3,5,5-trimethyl-1-hexanol",
      "confidence": 1.0,
      "uuid": "29eb9dfc-ed31-4d70-9f6c-099cecbdb740",
      "name": "3,5,5-Trimethyl-1-hexanol",
      "url": "https://haz-map.com/Agents/19733",
      "category": "agents"
    },
    {
      "type": "fuzzy_match",
      "text": "5-trimethylhexane",
      "matched_name": "2,2,5-Trimethylhexane",
      "confidence": 0.8380952380952381,
      "uuid": "ff7cdd73-fcf1-469f-9744-6271534fc83c",
      "category": "agents",
      "url": "https://haz-map.com/Agents/14612"
    },
    {
      "type": "fuzzy_match",
      "text": "5-trimethylhexane",
      "matched_name": "2,3,5-Trimethylhexane",
      "confidence": 0.8110119047619048,
      "uuid": "20ac6cf3-4551-4618-8339-b8b8a685b4e4",
      "category": "agents",
      "url": "https://haz-map.com/Agents/14614"
    }
  ],
  "all_links": [
    {
      "text": "Search PubMed",
      "url": "https://www.ncbi.nlm.nih.gov/pubmed?term=3%2c5%2c5-Trimethyl-1-hexanol%20AND%20human%5Bmh%5D%20AND%20%28Occupational%20Diseases%20%5Bmh%5D%20OR%20Occupational%20Exposure%20%5Bmh%5D%29%20%20AND%20%28tox%5Bsb%5D%29&cmd=search"
    },
    {
      "text": "Solvents, acute toxic effect",
      "url": "https://haz-map.com/Diseases/326"
    }
  ]
}