{
  "metadata": {
    "scraped_from": "https://haz-map.com/Agents/10062",
    "entity_name": "1,3,5,7-Cyclooctatetraene",
    "category": "agents",
    "uuid": "29f6f160-d2ec-46ff-8217-df0a44f641c4",
    "scraped_at": "2025-07-23T20:44:16.245827"
  },
  "parsed_at": "2025-07-24T00:55:54.450266",
  "title": "1,3,5,7-Cyclooctatetraene",
  "sections": {
    "general": {
      "agent_name": {
        "original_name": "Agent Name",
        "value": "1,3,5,7-Cyclooctatetraene",
        "links": [],
        "cross_references": [
          {
            "type": "name_match",
            "text": "1,3,5,7-cyclooctatetraene",
            "confidence": 1.0,
            "uuid": "29f6f160-d2ec-46ff-8217-df0a44f641c4",
            "name": "1,3,5,7-Cyclooctatetraene",
            "url": "https://haz-map.com/Agents/10062",
            "category": "agents"
          }
        ]
      },
      "cas_number": {
        "original_name": "CAS Number",
        "value": "629-20-9",
        "links": [],
        "cross_references": []
      },
      "formula": {
        "original_name": "Formula",
        "value": "C8-H8",
        "links": [],
        "cross_references": []
      },
      "major_category": {
        "original_name": "Major Category",
        "value": "Other Classes",
        "links": [],
        "cross_references": []
      },
      "synonyms": {
        "original_name": "Synonyms",
        "value": "(8)Annulene; Cyclooctatetraene; [ChemIDplus] Ciclooctatetraeno (Spanishn DOT); Cyclooctatetraene (French DOT); [CAMEO] UN2358",
        "links": [],
        "cross_references": []
      },
      "category": {
        "original_name": "Category",
        "value": "Aliphatics, Unsaturated",
        "links": [],
        "cross_references": []
      },
      "description": {
        "original_name": "Description",
        "value": "Colorless liquid; [CAMEO] Clear, dark yellow liquid; [Aldrich MSDS]",
        "links": [],
        "cross_references": []
      },
      "sourcesuses": {
        "original_name": "Sources/Uses",
        "value": "Used to make rubber; [CAMEO]",
        "links": [],
        "cross_references": []
      },
      "comments": {
        "original_name": "Comments",
        "value": "Highly flammable; May cause skin and eye irritation; [CAMEO] Inhalation of vapor may cause dizziness or suffocation; May polymerize explosively if heated or involved in a fire; [ERG] A skin and strong eye irritant; Harmful by ingestion (may cause lung damage by aspiration); [Aldrich MSDS] Cyclooctatetraene (UN2358) has warning of explosive polymerization; [ERG 2016] See \"1,5,9-Cyclododecatriene.\"",
        "links": [],
        "cross_references": [
          {
            "type": "name_match",
            "text": "dizziness",
            "confidence": 1.0,
            "uuid": "4b0e6043-b228-49de-996c-b42ec8b3780e",
            "name": "dizziness",
            "url": "https://haz-map.com/Findings/16",
            "category": "findings"
          },
          {
            "type": "name_match",
            "text": "1,5,9-cyclododecatriene",
            "confidence": 1.0,
            "uuid": "2319f82c-18e3-406e-be17-7824fa7034ad",
            "name": "1,5,9-Cyclododecatriene",
            "url": "https://haz-map.com/Agents/2830",
            "category": "agents"
          }
        ]
      },
      "biomedical_references": {
        "original_name": "Biomedical References",
        "value": "Search PubMed",
        "links": [
          {
            "text": "Search PubMed",
            "url": "https://www.ncbi.nlm.nih.gov/pubmed?term=1%2c3%2c5%2c7-Cyclooctatetraene%20AND%20human%5Bmh%5D%20AND%20%28Occupational%20Diseases%20%5Bmh%5D%20OR%20Occupational%20Exposure%20%5Bmh%5D%29%20%20AND%20%28tox%5Bsb%5D%29&cmd=search"
          }
        ],
        "cross_references": []
      }
    },
    "exposure_assessment": {
      "vapor_pressure": {
        "original_name": "Vapor Pressure",
        "value": "7.8 mm Hg",
        "links": [],
        "cross_references": []
      },
      "explosive_polymerization": {
        "original_name": "Explosive Polymerization",
        "value": "Yes",
        "links": [],
        "cross_references": []
      },
      "explanatory_notes": {
        "original_name": "Explanatory Notes",
        "value": "VP from ChemIDplus;",
        "links": [],
        "cross_references": []
      }
    },
    "adverse_effects": {
      "neurotoxin": {
        "original_name": "Neurotoxin",
        "value": "Acute solvent syndrome",
        "links": [],
        "cross_references": []
      }
    },
    "diseases_processes_and_activities_linked_to_this_agent": {
      "diseases": {
        "original_name": "Diseases",
        "value": "Occupational diseases associated with exposure to this agent: Solvents, acute toxic effect",
        "links": [
          {
            "text": "Solvents, acute toxic effect",
            "url": "https://haz-map.com/Diseases/326"
          }
        ],
        "cross_references": [
          {
            "type": "url_match",
            "text": "Solvents, acute toxic effect",
            "url": "https://haz-map.com/Diseases/326",
            "confidence": 1.0,
            "uuid": "581e90e3-9d0c-45f0-aa6c-3468c28da129",
            "name": "Solvents, acute toxic effect",
            "category": "diseases"
          }
        ]
      }
    }
  },
  "cross_references": [
    {
      "type": "url_match",
      "text": "Solvents, acute toxic effect",
      "url": "https://haz-map.com/Diseases/326",
      "confidence": 1.0,
      "uuid": "581e90e3-9d0c-45f0-aa6c-3468c28da129",
      "name": "Solvents, acute toxic effect",
      "category": "diseases"
    },
    {
      "type": "name_match",
      "text": "dizziness",
      "confidence": 1.0,
      "uuid": "4b0e6043-b228-49de-996c-b42ec8b3780e",
      "name": "dizziness",
      "url": "https://haz-map.com/Findings/16",
      "category": "findings"
    },
    {
      "type": "name_match",
      "text": "1,5,9-cyclododecatriene",
      "confidence": 1.0,
      "uuid": "2319f82c-18e3-406e-be17-7824fa7034ad",
      "name": "1,5,9-Cyclododecatriene",
      "url": "https://haz-map.com/Agents/2830",
      "category": "agents"
    },
    {
      "type": "name_match",
      "text": "1,3,5,7-cyclooctatetraene",
      "confidence": 1.0,
      "uuid": "29f6f160-d2ec-46ff-8217-df0a44f641c4",
      "name": "1,3,5,7-Cyclooctatetraene",
      "url": "https://haz-map.com/Agents/10062",
      "category": "agents"
    }
  ],
  "all_links": [
    {
      "text": "Search PubMed",
      "url": "https://www.ncbi.nlm.nih.gov/pubmed?term=1%2c3%2c5%2c7-Cyclooctatetraene%20AND%20human%5Bmh%5D%20AND%20%28Occupational%20Diseases%20%5Bmh%5D%20OR%20Occupational%20Exposure%20%5Bmh%5D%29%20%20AND%20%28tox%5Bsb%5D%29&cmd=search"
    },
    {
      "text": "Solvents, acute toxic effect",
      "url": "https://haz-map.com/Diseases/326"
    }
  ]
}