{
  "metadata": {
    "scraped_from": "https://haz-map.com/Agents/3444",
    "entity_name": "2,3,6-Trichlorophenylacetic acid",
    "category": "agents",
    "uuid": "29f88d08-1e4e-423d-bd66-8bf89c55371e",
    "scraped_at": "2025-07-23T19:29:12.204286"
  },
  "parsed_at": "2025-07-24T01:16:56.240448",
  "title": "2,3,6-Trichlorophenylacetic acid",
  "sections": {
    "general": {
      "agent_name": {
        "original_name": "Agent Name",
        "value": "2,3,6-Trichlorophenylacetic acid",
        "links": [],
        "cross_references": [
          {
            "type": "name_match",
            "text": "acetic acid",
            "confidence": 1.0,
            "uuid": "0905c6e4-df84-4895-a92d-658819239bbd",
            "name": "Acetic acid",
            "url": "https://haz-map.com/Agents/207",
            "category": "agents"
          },
          {
            "type": "name_match",
            "text": "2,3,6-trichlorophenylacetic acid",
            "confidence": 1.0,
            "uuid": "29f88d08-1e4e-423d-bd66-8bf89c55371e",
            "name": "2,3,6-Trichlorophenylacetic acid",
            "url": "https://haz-map.com/Agents/3444",
            "category": "agents"
          },
          {
            "type": "name_match",
            "text": "phenylacetic acid",
            "confidence": 1.0,
            "uuid": "9fd56a07-b965-4725-89f1-49d42ccba118",
            "name": "Phenylacetic acid",
            "url": "https://haz-map.com/Agents/6638",
            "category": "agents"
          }
        ]
      },
      "alternative_name": {
        "original_name": "Alternative Name",
        "value": "Chlorfenac",
        "links": [],
        "cross_references": []
      },
      "cas_number": {
        "original_name": "CAS Number",
        "value": "85-34-7",
        "links": [],
        "cross_references": []
      },
      "formula": {
        "original_name": "Formula",
        "value": "C8-H5-Cl3-O2",
        "links": [],
        "cross_references": []
      },
      "major_category": {
        "original_name": "Major Category",
        "value": "Pesticides",
        "links": [],
        "cross_references": []
      },
      "synonyms": {
        "original_name": "Synonyms",
        "value": "Chlorfenac; 2,3,6-TCA; 2,3,6-Trichlorobenzeneacetic acid; 2,3,6-Trichlorophenyl acetic acid; 2,3,6-Trichlorphenylessigsaeure [German]; Acetic acid, (2,3,6-trichlorophenyl)-; Benzeneacetic acid, 2,3,6-trichloro-; Fenac; Fenae; Fenatrol; Kanepar; Kyselina 2,3,6-trichlorfenyloctova [Czech]; TCPA; Tri fene; Tri-fen; Trifene; [ChemIDplus] UN3077",
        "links": [],
        "cross_references": [
          {
            "type": "name_match",
            "text": "benzene",
            "confidence": 1.0,
            "uuid": "b05124de-5f34-4c14-8f04-ccb20c3780d9",
            "name": "Benzene",
            "url": "https://haz-map.com/Agents/5",
            "category": "agents"
          },
          {
            "type": "name_match",
            "text": "chlorobenzene",
            "confidence": 1.0,
            "uuid": "7e598eca-f35d-493c-aa78-93bb67744c4c",
            "name": "Chlorobenzene",
            "url": "https://haz-map.com/Agents/85",
            "category": "agents"
          },
          {
            "type": "name_match",
            "text": "acetic acid",
            "confidence": 1.0,
            "uuid": "0905c6e4-df84-4895-a92d-658819239bbd",
            "name": "Acetic acid",
            "url": "https://haz-map.com/Agents/207",
            "category": "agents"
          }
        ]
      },
      "category": {
        "original_name": "Category",
        "value": "Herbicides, Chlorophenoxy",
        "links": [],
        "cross_references": [
          {
            "type": "name_match",
            "text": "herbicides",
            "confidence": 1.0,
            "uuid": "195f29ae-3f15-47c5-836d-0a9791db3fc1",
            "name": "HERBICIDES",
            "url": "https://haz-map.com/Agents/703",
            "category": "agents"
          }
        ]
      },
      "description": {
        "original_name": "Description",
        "value": "Colorless solid; [HSDB] White solid; [MSDSonline]",
        "links": [],
        "cross_references": []
      },
      "sourcesuses": {
        "original_name": "Sources/Uses",
        "value": "Used as an herbicide; No longer contained in any registered pesticide products; [HSDB]",
        "links": [],
        "cross_references": []
      },
      "comments": {
        "original_name": "Comments",
        "value": "Emergency treatment: \"Chlorophenoxy compounds\"; [HSDB] May cause irritation; [MSDSonline] See \"2,4,5T.\"",
        "links": [],
        "cross_references": []
      },
      "biomedical_references": {
        "original_name": "Biomedical References",
        "value": "Search PubMed",
        "links": [
          {
            "text": "Search PubMed",
            "url": "https://www.ncbi.nlm.nih.gov/pubmed?term=2%2c3%2c6-Trichlorophenylacetic+acid%20AND%20human%5Bmh%5D%20AND%20%28Occupational%20Diseases%20%5Bmh%5D%20OR%20Occupational%20Exposure%20%5Bmh%5D%29%20%20AND%20%28tox%5Bsb%5D%29&cmd=search"
          }
        ],
        "cross_references": []
      }
    },
    "exposure_assessment": {
      "vapor_pressure": {
        "original_name": "Vapor Pressure",
        "value": "3.39E-05 mm Hg",
        "links": [],
        "cross_references": []
      },
      "explanatory_notes": {
        "original_name": "Explanatory Notes",
        "value": "The Guide in the Emergency Response Guidebook is for \"Environmentally hazardous substances, solid, n.o.s.\"",
        "links": [],
        "cross_references": [
          {
            "type": "name_match",
            "text": "iron",
            "confidence": 1.0,
            "uuid": "a6101f16-ec31-4d6c-af41-cbdbda5b1c7c",
            "name": "Iron",
            "url": "https://haz-map.com/Agents/1993",
            "category": "agents"
          }
        ]
      }
    },
    "adverse_effects": {
      "hepatotoxin": {
        "original_name": "Hepatotoxin",
        "value": "Hepatoxic (a) from occupational exposure (secondary effect) or (b) in animal studies or in humans after ingestion",
        "links": [],
        "cross_references": []
      }
    },
    "diseases_processes_and_activities_linked_to_this_agent": {
      "processes": {
        "original_name": "Processes",
        "value": "Industrial Processes with risk of exposure: Farming (Pesticides)",
        "links": [
          {
            "text": "Farming (Pesticides)",
            "url": "https://haz-map.com/Processes/218"
          }
        ],
        "cross_references": [
          {
            "type": "url_match",
            "text": "Farming (Pesticides)",
            "url": "https://haz-map.com/Processes/218",
            "confidence": 1.0,
            "uuid": "cf1e5815-c9bb-4917-82a5-391848170b7e",
            "name": "Farming (Pesticides)",
            "category": "processes"
          }
        ]
      }
    }
  },
  "cross_references": [
    {
      "type": "url_match",
      "text": "Farming (Pesticides)",
      "url": "https://haz-map.com/Processes/218",
      "confidence": 1.0,
      "uuid": "cf1e5815-c9bb-4917-82a5-391848170b7e",
      "name": "Farming (Pesticides)",
      "category": "processes"
    },
    {
      "type": "name_match",
      "text": "benzene",
      "confidence": 1.0,
      "uuid": "b05124de-5f34-4c14-8f04-ccb20c3780d9",
      "name": "Benzene",
      "url": "https://haz-map.com/Agents/5",
      "category": "agents"
    },
    {
      "type": "name_match",
      "text": "chlorobenzene",
      "confidence": 1.0,
      "uuid": "7e598eca-f35d-493c-aa78-93bb67744c4c",
      "name": "Chlorobenzene",
      "url": "https://haz-map.com/Agents/85",
      "category": "agents"
    },
    {
      "type": "name_match",
      "text": "acetic acid",
      "confidence": 1.0,
      "uuid": "0905c6e4-df84-4895-a92d-658819239bbd",
      "name": "Acetic acid",
      "url": "https://haz-map.com/Agents/207",
      "category": "agents"
    },
    {
      "type": "name_match",
      "text": "herbicides",
      "confidence": 1.0,
      "uuid": "195f29ae-3f15-47c5-836d-0a9791db3fc1",
      "name": "HERBICIDES",
      "url": "https://haz-map.com/Agents/703",
      "category": "agents"
    },
    {
      "type": "name_match",
      "text": "iron",
      "confidence": 1.0,
      "uuid": "a6101f16-ec31-4d6c-af41-cbdbda5b1c7c",
      "name": "Iron",
      "url": "https://haz-map.com/Agents/1993",
      "category": "agents"
    },
    {
      "type": "name_match",
      "text": "2,3,6-trichlorophenylacetic acid",
      "confidence": 1.0,
      "uuid": "29f88d08-1e4e-423d-bd66-8bf89c55371e",
      "name": "2,3,6-Trichlorophenylacetic acid",
      "url": "https://haz-map.com/Agents/3444",
      "category": "agents"
    },
    {
      "type": "name_match",
      "text": "phenylacetic acid",
      "confidence": 1.0,
      "uuid": "9fd56a07-b965-4725-89f1-49d42ccba118",
      "name": "Phenylacetic acid",
      "url": "https://haz-map.com/Agents/6638",
      "category": "agents"
    }
  ],
  "all_links": [
    {
      "text": "Search PubMed",
      "url": "https://www.ncbi.nlm.nih.gov/pubmed?term=2%2c3%2c6-Trichlorophenylacetic+acid%20AND%20human%5Bmh%5D%20AND%20%28Occupational%20Diseases%20%5Bmh%5D%20OR%20Occupational%20Exposure%20%5Bmh%5D%29%20%20AND%20%28tox%5Bsb%5D%29&cmd=search"
    },
    {
      "text": "Farming (Pesticides)",
      "url": "https://haz-map.com/Processes/218"
    }
  ]
}