{
  "metadata": {
    "scraped_from": "https://haz-map.com/Agents/17177",
    "entity_name": "Salicylanilide",
    "category": "agents",
    "uuid": "2a453a82-716c-452e-83fb-dfd662b6980b",
    "scraped_at": "2025-07-23T21:44:20.722876"
  },
  "parsed_at": "2025-07-24T01:07:00.575073",
  "title": "Salicylanilide",
  "sections": {
    "general": {
      "agent_name": {
        "original_name": "Agent Name",
        "value": "Salicylanilide",
        "links": [],
        "cross_references": [
          {
            "type": "name_match",
            "text": "salicylanilide",
            "confidence": 1.0,
            "uuid": "2a453a82-716c-452e-83fb-dfd662b6980b",
            "name": "Salicylanilide",
            "url": "https://haz-map.com/Agents/17177",
            "category": "agents"
          }
        ]
      },
      "cas_number": {
        "original_name": "CAS Number",
        "value": "87-17-2",
        "links": [],
        "cross_references": []
      },
      "formula": {
        "original_name": "Formula",
        "value": "C13-H11-N-O2",
        "links": [],
        "cross_references": []
      },
      "major_category": {
        "original_name": "Major Category",
        "value": "Pesticides",
        "links": [],
        "cross_references": []
      },
      "synonyms": {
        "original_name": "Synonyms",
        "value": "2-N-Phenylcarboxamidophenol; ASK; Anilid kyseliny salicylove [Czech]; Ansadol; Aseptolan; Benzamide, 2-hydroxy-N-phenyl-; Hyanilid; N-Phenylsalicylamide; Salicylanilid; Salicylic acid anilide; Salifebrin; Salinide; Salinidol; Salnide; Sherstat SLN; Shirlan; Shirlan (VAN); Shirlan AG; Shirlan Extra; WR 10019; o-Hydroxybenzanilide; [ChemIDplus]",
        "links": [],
        "cross_references": [
          {
            "type": "name_match",
            "text": "phenol",
            "confidence": 1.0,
            "uuid": "03141a03-a7df-4f51-9a37-adde1a7c4b31",
            "name": "Phenol",
            "url": "https://haz-map.com/Agents/84",
            "category": "agents"
          },
          {
            "type": "name_match",
            "text": "salicylic acid",
            "confidence": 1.0,
            "uuid": "8a628207-ea97-4f5a-8ad4-dce124203ade",
            "name": "Salicylic acid",
            "url": "https://haz-map.com/Agents/1914",
            "category": "agents"
          },
          {
            "type": "name_match",
            "text": "benzamide",
            "confidence": 1.0,
            "uuid": "8900c544-7f26-477e-a4c1-ff24fcc01b2c",
            "name": "Benzamide",
            "url": "https://haz-map.com/Agents/3828",
            "category": "agents"
          },
          {
            "type": "name_match",
            "text": "benzanilide",
            "confidence": 1.0,
            "uuid": "63779c2d-363d-43d4-9b24-b78af4599c8c",
            "name": "Benzanilide",
            "url": "https://haz-map.com/Agents/8534",
            "category": "agents"
          },
          {
            "type": "name_match",
            "text": "tolan",
            "confidence": 1.0,
            "uuid": "37074679-2af1-4217-a3fe-649bd71a2620",
            "name": "Tolan",
            "url": "https://haz-map.com/Agents/12342",
            "category": "agents"
          }
        ]
      },
      "category": {
        "original_name": "Category",
        "value": "Fungicides",
        "links": [],
        "cross_references": [
          {
            "type": "name_match",
            "text": "fungicides",
            "confidence": 1.0,
            "uuid": "f4a9c1e1-4d57-4480-be97-d3590d38ce39",
            "name": "FUNGICIDES",
            "url": "https://haz-map.com/Agents/763",
            "category": "agents"
          },
          {
            "type": "name_match",
            "text": "fungi",
            "confidence": 1.0,
            "uuid": "e0d489cb-bfee-4aee-b665-999c017268a2",
            "name": "Fungi",
            "url": "https://haz-map.com/Agents/1988",
            "category": "agents"
          }
        ]
      },
      "description": {
        "original_name": "Description",
        "value": "Odorless solid; [Merck Index] Light tan powder; [Alfa Aesar MSDS]",
        "links": [],
        "cross_references": [
          {
            "type": "name_match",
            "text": "ht",
            "confidence": 1.0,
            "uuid": "764df367-8d53-4a11-81a2-31ccfe122a8d",
            "name": "HT",
            "url": "https://haz-map.com/Agents/2168",
            "category": "agents"
          }
        ]
      },
      "sourcesuses": {
        "original_name": "Sources/Uses",
        "value": "Used as an anti-mildew agent, fungicide, and topical antifungal; [Merck Index]",
        "links": [],
        "cross_references": [
          {
            "type": "name_match",
            "text": "fungi",
            "confidence": 1.0,
            "uuid": "e0d489cb-bfee-4aee-b665-999c017268a2",
            "name": "Fungi",
            "url": "https://haz-map.com/Agents/1988",
            "category": "agents"
          }
        ]
      },
      "comments": {
        "original_name": "Comments",
        "value": "A skin and strong eye irritant; [Alfa Aesar MSDS]",
        "links": [],
        "cross_references": []
      },
      "biomedical_references": {
        "original_name": "Biomedical References",
        "value": "Search PubMed",
        "links": [
          {
            "text": "Search PubMed",
            "url": "https://www.ncbi.nlm.nih.gov/pubmed?term=Salicylanilide%20AND%20human%5Bmh%5D%20AND%20%28Occupational%20Diseases%20%5Bmh%5D%20OR%20Occupational%20Exposure%20%5Bmh%5D%29%20%20AND%20%28tox%5Bsb%5D%29&cmd=search"
          }
        ],
        "cross_references": []
      }
    },
    "exposure_assessment": {
      "vapor_pressure": {
        "original_name": "Vapor Pressure",
        "value": "2.45E-08 mm Hg",
        "links": [],
        "cross_references": []
      }
    },
    "diseases_processes_and_activities_linked_to_this_agent": {
      "processes": {
        "original_name": "Processes",
        "value": "Industrial Processes with risk of exposure: Farming (Pesticides)",
        "links": [
          {
            "text": "Farming (Pesticides)",
            "url": "https://haz-map.com/Processes/218"
          }
        ],
        "cross_references": [
          {
            "type": "url_match",
            "text": "Farming (Pesticides)",
            "url": "https://haz-map.com/Processes/218",
            "confidence": 1.0,
            "uuid": "cf1e5815-c9bb-4917-82a5-391848170b7e",
            "name": "Farming (Pesticides)",
            "category": "processes"
          }
        ]
      }
    }
  },
  "cross_references": [
    {
      "type": "url_match",
      "text": "Farming (Pesticides)",
      "url": "https://haz-map.com/Processes/218",
      "confidence": 1.0,
      "uuid": "cf1e5815-c9bb-4917-82a5-391848170b7e",
      "name": "Farming (Pesticides)",
      "category": "processes"
    },
    {
      "type": "name_match",
      "text": "phenol",
      "confidence": 1.0,
      "uuid": "03141a03-a7df-4f51-9a37-adde1a7c4b31",
      "name": "Phenol",
      "url": "https://haz-map.com/Agents/84",
      "category": "agents"
    },
    {
      "type": "name_match",
      "text": "fungicides",
      "confidence": 1.0,
      "uuid": "f4a9c1e1-4d57-4480-be97-d3590d38ce39",
      "name": "FUNGICIDES",
      "url": "https://haz-map.com/Agents/763",
      "category": "agents"
    },
    {
      "type": "name_match",
      "text": "salicylic acid",
      "confidence": 1.0,
      "uuid": "8a628207-ea97-4f5a-8ad4-dce124203ade",
      "name": "Salicylic acid",
      "url": "https://haz-map.com/Agents/1914",
      "category": "agents"
    },
    {
      "type": "name_match",
      "text": "fungi",
      "confidence": 1.0,
      "uuid": "e0d489cb-bfee-4aee-b665-999c017268a2",
      "name": "Fungi",
      "url": "https://haz-map.com/Agents/1988",
      "category": "agents"
    },
    {
      "type": "name_match",
      "text": "ht",
      "confidence": 1.0,
      "uuid": "764df367-8d53-4a11-81a2-31ccfe122a8d",
      "name": "HT",
      "url": "https://haz-map.com/Agents/2168",
      "category": "agents"
    },
    {
      "type": "name_match",
      "text": "benzamide",
      "confidence": 1.0,
      "uuid": "8900c544-7f26-477e-a4c1-ff24fcc01b2c",
      "name": "Benzamide",
      "url": "https://haz-map.com/Agents/3828",
      "category": "agents"
    },
    {
      "type": "name_match",
      "text": "benzanilide",
      "confidence": 1.0,
      "uuid": "63779c2d-363d-43d4-9b24-b78af4599c8c",
      "name": "Benzanilide",
      "url": "https://haz-map.com/Agents/8534",
      "category": "agents"
    },
    {
      "type": "name_match",
      "text": "tolan",
      "confidence": 1.0,
      "uuid": "37074679-2af1-4217-a3fe-649bd71a2620",
      "name": "Tolan",
      "url": "https://haz-map.com/Agents/12342",
      "category": "agents"
    },
    {
      "type": "name_match",
      "text": "salicylanilide",
      "confidence": 1.0,
      "uuid": "2a453a82-716c-452e-83fb-dfd662b6980b",
      "name": "Salicylanilide",
      "url": "https://haz-map.com/Agents/17177",
      "category": "agents"
    }
  ],
  "all_links": [
    {
      "text": "Search PubMed",
      "url": "https://www.ncbi.nlm.nih.gov/pubmed?term=Salicylanilide%20AND%20human%5Bmh%5D%20AND%20%28Occupational%20Diseases%20%5Bmh%5D%20OR%20Occupational%20Exposure%20%5Bmh%5D%29%20%20AND%20%28tox%5Bsb%5D%29&cmd=search"
    },
    {
      "text": "Farming (Pesticides)",
      "url": "https://haz-map.com/Processes/218"
    }
  ]
}