{
  "metadata": {
    "scraped_from": "https://haz-map.com/Agents/15589",
    "entity_name": "Methylamine hydrochloride",
    "category": "agents",
    "uuid": "2a643b6b-9fea-42ca-8bea-d5a8439a124f",
    "scraped_at": "2025-07-23T21:30:57.130938"
  },
  "parsed_at": "2025-07-24T01:11:11.322548",
  "title": "Methylamine hydrochloride",
  "sections": {
    "general": {
      "agent_name": {
        "original_name": "Agent Name",
        "value": "Methylamine hydrochloride",
        "links": [],
        "cross_references": [
          {
            "type": "name_match",
            "text": "methylamine",
            "confidence": 1.0,
            "uuid": "7c3781b5-5294-474a-a015-e59574d00b69",
            "name": "Methylamine",
            "url": "https://haz-map.com/Agents/217",
            "category": "agents"
          },
          {
            "type": "name_match",
            "text": "ethylamine",
            "confidence": 1.0,
            "uuid": "41ca4da8-b990-420a-86b2-3d77404fb7f4",
            "name": "Ethylamine",
            "url": "https://haz-map.com/Agents/220",
            "category": "agents"
          },
          {
            "type": "name_match",
            "text": "ethylamine hydrochloride",
            "confidence": 1.0,
            "uuid": "08a09ef2-946e-4ee5-aa9d-a81dc3e85697",
            "name": "Ethylamine hydrochloride",
            "url": "https://haz-map.com/Agents/14218",
            "category": "agents"
          },
          {
            "type": "name_match",
            "text": "methylamine hydrochloride",
            "confidence": 1.0,
            "uuid": "2a643b6b-9fea-42ca-8bea-d5a8439a124f",
            "name": "Methylamine hydrochloride",
            "url": "https://haz-map.com/Agents/15589",
            "category": "agents"
          }
        ]
      },
      "cas_number": {
        "original_name": "CAS Number",
        "value": "593-51-1",
        "links": [],
        "cross_references": []
      },
      "formula": {
        "original_name": "Formula",
        "value": "C-H5-N.Cl-H",
        "links": [],
        "cross_references": []
      },
      "major_category": {
        "original_name": "Major Category",
        "value": "Nitrogen Compounds",
        "links": [],
        "cross_references": [
          {
            "type": "name_match",
            "text": "nitrogen",
            "confidence": 1.0,
            "uuid": "db5e90a9-06d2-45b9-8b81-f345a89b0bc0",
            "name": "Nitrogen",
            "url": "https://haz-map.com/Agents/1072",
            "category": "agents"
          }
        ]
      },
      "synonyms": {
        "original_name": "Synonyms",
        "value": "Methylammonium chloride; Monomethylamine hydrochloride; Monomethylammonium chloride; N-Methylammonium chloride; Methanamine, hydrochloride; Methylamine, hydrochloride (8CI); [ChemIDplus]",
        "links": [],
        "cross_references": [
          {
            "type": "name_match",
            "text": "methylamine",
            "confidence": 1.0,
            "uuid": "7c3781b5-5294-474a-a015-e59574d00b69",
            "name": "Methylamine",
            "url": "https://haz-map.com/Agents/217",
            "category": "agents"
          },
          {
            "type": "name_match",
            "text": "ethylamine",
            "confidence": 1.0,
            "uuid": "41ca4da8-b990-420a-86b2-3d77404fb7f4",
            "name": "Ethylamine",
            "url": "https://haz-map.com/Agents/220",
            "category": "agents"
          },
          {
            "type": "name_match",
            "text": "ethylamine hydrochloride",
            "confidence": 1.0,
            "uuid": "08a09ef2-946e-4ee5-aa9d-a81dc3e85697",
            "name": "Ethylamine hydrochloride",
            "url": "https://haz-map.com/Agents/14218",
            "category": "agents"
          },
          {
            "type": "name_match",
            "text": "methylamine hydrochloride",
            "confidence": 1.0,
            "uuid": "2a643b6b-9fea-42ca-8bea-d5a8439a124f",
            "name": "Methylamine hydrochloride",
            "url": "https://haz-map.com/Agents/15589",
            "category": "agents"
          }
        ]
      },
      "category": {
        "original_name": "Category",
        "value": "Amines, Aliphatic",
        "links": [],
        "cross_references": []
      },
      "description": {
        "original_name": "Description",
        "value": "Deliquescent solid; [Merck Index] White crystals with an amine-like odor; Hygroscopic; [Alfa Aesar MSDS]",
        "links": [],
        "cross_references": []
      },
      "sourcesuses": {
        "original_name": "Sources/Uses",
        "value": "Used in organic synthesis; Methylamine is used in tanning; [Merck Index]",
        "links": [],
        "cross_references": [
          {
            "type": "name_match",
            "text": "methylamine",
            "confidence": 1.0,
            "uuid": "7c3781b5-5294-474a-a015-e59574d00b69",
            "name": "Methylamine",
            "url": "https://haz-map.com/Agents/217",
            "category": "agents"
          },
          {
            "type": "name_match",
            "text": "ethylamine",
            "confidence": 1.0,
            "uuid": "41ca4da8-b990-420a-86b2-3d77404fb7f4",
            "name": "Ethylamine",
            "url": "https://haz-map.com/Agents/220",
            "category": "agents"
          }
        ]
      },
      "comments": {
        "original_name": "Comments",
        "value": "A severe eye irritant; Harmful by ingestion; [Alfa Aesar MSDS] See \"Methylamine.\"",
        "links": [],
        "cross_references": [
          {
            "type": "name_match",
            "text": "methylamine",
            "confidence": 1.0,
            "uuid": "7c3781b5-5294-474a-a015-e59574d00b69",
            "name": "Methylamine",
            "url": "https://haz-map.com/Agents/217",
            "category": "agents"
          },
          {
            "type": "name_match",
            "text": "ethylamine",
            "confidence": 1.0,
            "uuid": "41ca4da8-b990-420a-86b2-3d77404fb7f4",
            "name": "Ethylamine",
            "url": "https://haz-map.com/Agents/220",
            "category": "agents"
          }
        ]
      },
      "biomedical_references": {
        "original_name": "Biomedical References",
        "value": "Search PubMed",
        "links": [
          {
            "text": "Search PubMed",
            "url": "https://www.ncbi.nlm.nih.gov/pubmed?term=Methylamine+hydrochloride%20AND%20human%5Bmh%5D%20AND%20%28Occupational%20Diseases%20%5Bmh%5D%20OR%20Occupational%20Exposure%20%5Bmh%5D%29%20%20AND%20%28tox%5Bsb%5D%29&cmd=search"
          }
        ],
        "cross_references": []
      }
    },
    "exposure_assessment": {
      "vapor_pressure": {
        "original_name": "Vapor Pressure",
        "value": "0.00101 mm Hg",
        "links": [],
        "cross_references": []
      },
      "explanatory_notes": {
        "original_name": "Explanatory Notes",
        "value": "VP from ChemIDplus;",
        "links": [],
        "cross_references": []
      }
    },
    "diseases_processes_and_activities_linked_to_this_agent": {
      "processes": {
        "original_name": "Processes",
        "value": "Industrial Processes with risk of exposure: Leather Tanning and Processing",
        "links": [
          {
            "text": "Leather Tanning and Processing",
            "url": "https://haz-map.com/Processes/230"
          }
        ],
        "cross_references": []
      }
    }
  },
  "cross_references": [
    {
      "type": "name_match",
      "text": "methylamine",
      "confidence": 1.0,
      "uuid": "7c3781b5-5294-474a-a015-e59574d00b69",
      "name": "Methylamine",
      "url": "https://haz-map.com/Agents/217",
      "category": "agents"
    },
    {
      "type": "name_match",
      "text": "ethylamine",
      "confidence": 1.0,
      "uuid": "41ca4da8-b990-420a-86b2-3d77404fb7f4",
      "name": "Ethylamine",
      "url": "https://haz-map.com/Agents/220",
      "category": "agents"
    },
    {
      "type": "name_match",
      "text": "nitrogen",
      "confidence": 1.0,
      "uuid": "db5e90a9-06d2-45b9-8b81-f345a89b0bc0",
      "name": "Nitrogen",
      "url": "https://haz-map.com/Agents/1072",
      "category": "agents"
    },
    {
      "type": "name_match",
      "text": "ethylamine hydrochloride",
      "confidence": 1.0,
      "uuid": "08a09ef2-946e-4ee5-aa9d-a81dc3e85697",
      "name": "Ethylamine hydrochloride",
      "url": "https://haz-map.com/Agents/14218",
      "category": "agents"
    },
    {
      "type": "name_match",
      "text": "methylamine hydrochloride",
      "confidence": 1.0,
      "uuid": "2a643b6b-9fea-42ca-8bea-d5a8439a124f",
      "name": "Methylamine hydrochloride",
      "url": "https://haz-map.com/Agents/15589",
      "category": "agents"
    }
  ],
  "all_links": [
    {
      "text": "Search PubMed",
      "url": "https://www.ncbi.nlm.nih.gov/pubmed?term=Methylamine+hydrochloride%20AND%20human%5Bmh%5D%20AND%20%28Occupational%20Diseases%20%5Bmh%5D%20OR%20Occupational%20Exposure%20%5Bmh%5D%29%20%20AND%20%28tox%5Bsb%5D%29&cmd=search"
    },
    {
      "text": "Leather Tanning and Processing",
      "url": "https://haz-map.com/Processes/230"
    }
  ]
}