{
  "metadata": {
    "scraped_from": "https://haz-map.com/Agents/19384",
    "entity_name": "gamma-Terpinene",
    "category": "agents",
    "uuid": "2a7b265b-212d-41ab-833c-625c1626cca8",
    "scraped_at": "2025-07-23T22:05:01.574974"
  },
  "parsed_at": "2025-07-24T01:01:42.303163",
  "title": "gamma-Terpinene",
  "sections": {
    "general": {
      "agent_name": {
        "original_name": "Agent Name",
        "value": "gamma-Terpinene",
        "links": [],
        "cross_references": [
          {
            "type": "name_match",
            "text": "pinene",
            "confidence": 1.0,
            "uuid": "901547b6-56e4-403d-ade3-5fa9862fa975",
            "name": "Pinene",
            "url": "https://haz-map.com/Agents/16102",
            "category": "agents"
          },
          {
            "type": "name_match",
            "text": "gamma-terpinene",
            "confidence": 1.0,
            "uuid": "2a7b265b-212d-41ab-833c-625c1626cca8",
            "name": "gamma-Terpinene",
            "url": "https://haz-map.com/Agents/19384",
            "category": "agents"
          }
        ]
      },
      "cas_number": {
        "original_name": "CAS Number",
        "value": "99-85-4",
        "links": [],
        "cross_references": []
      },
      "formula": {
        "original_name": "Formula",
        "value": "C10-H16",
        "links": [],
        "cross_references": []
      },
      "major_category": {
        "original_name": "Major Category",
        "value": "Biological Agents",
        "links": [],
        "cross_references": []
      },
      "synonyms": {
        "original_name": "Synonyms",
        "value": "1,4-Cyclohexadiene, 1-methyl-4-(1-methylethyl)-; 1,4-Cyclohexadiene, 1-methyl-4-isopropyl-; 1-Methyl-4-(1-methylethyl)-1,4-cyclohexadiene; 1-Methyl-4-isopropylcyclohexadiene-1,4; 4-Isopropyl-1-methyl-1,4-cyclohexadiene; Crithmene; gamma-Terpinen; gamma-Terpinene (natural); Moslene; p-Mentha-1,4-diene; [ChemIDplus] 1-Isopropyl-4-methyl-1,4-cyclohexadiene; [JECFA] UN2319",
        "links": [],
        "cross_references": [
          {
            "type": "name_match",
            "text": "1,4-cyclohexadiene",
            "confidence": 1.0,
            "uuid": "f6303b2c-b0e6-4958-a94a-317f168443de",
            "name": "1,4-Cyclohexadiene",
            "url": "https://haz-map.com/Agents/8514",
            "category": "agents"
          },
          {
            "type": "name_match",
            "text": "pinene",
            "confidence": 1.0,
            "uuid": "901547b6-56e4-403d-ade3-5fa9862fa975",
            "name": "Pinene",
            "url": "https://haz-map.com/Agents/16102",
            "category": "agents"
          },
          {
            "type": "name_match",
            "text": "gamma-terpinene",
            "confidence": 1.0,
            "uuid": "2a7b265b-212d-41ab-833c-625c1626cca8",
            "name": "gamma-Terpinene",
            "url": "https://haz-map.com/Agents/19384",
            "category": "agents"
          }
        ]
      },
      "category": {
        "original_name": "Category",
        "value": "Terpenes",
        "links": [],
        "cross_references": [
          {
            "type": "name_match",
            "text": "terpenes",
            "confidence": 1.0,
            "uuid": "0a11dd9e-f81d-477b-b44c-85ca49ab02f4",
            "name": "TERPENES",
            "url": "https://haz-map.com/Agents/817",
            "category": "agents"
          }
        ]
      },
      "description": {
        "original_name": "Description",
        "value": "Clear colorless liquid; [Sigma-Aldrich MSDS]",
        "links": [],
        "cross_references": []
      },
      "sourcesuses": {
        "original_name": "Sources/Uses",
        "value": "Used as a flavoring agent; [FDA] Permitted for use as an inert ingredient in non-food pesticide products; [EPA] \"The terpinenes are a group of isomeric hydrocarbons that are classified as terpenes. They each have the same molecular formula and carbon framework, but they differ in the position of carbon-carbon double bonds. alpha-Terpinene has been isolated from cardamom and marjoram oils, and from other natural sources. beta-Terpinene has no known natural source, but has been prepared synthetically from sabinene. gamma-Terpinene and delta-terpinene (also known as terpinolene) are natural and have been isolated from a variety of plant sources.\" [Wikipedia]",
        "links": [],
        "cross_references": [
          {
            "type": "name_match",
            "text": "terpenes",
            "confidence": 1.0,
            "uuid": "0a11dd9e-f81d-477b-b44c-85ca49ab02f4",
            "name": "TERPENES",
            "url": "https://haz-map.com/Agents/817",
            "category": "agents"
          },
          {
            "type": "name_match",
            "text": "terpinolene",
            "confidence": 1.0,
            "uuid": "4689a06f-fc04-4342-8796-38a43cc34355",
            "name": "Terpinolene",
            "url": "https://haz-map.com/Agents/1516",
            "category": "agents"
          },
          {
            "type": "name_match",
            "text": "carbon",
            "confidence": 1.0,
            "uuid": "b53f8815-ee80-40ef-b4aa-3b000e17dab5",
            "name": "Carbon",
            "url": "https://haz-map.com/Agents/1891",
            "category": "agents"
          },
          {
            "type": "name_match",
            "text": "pinene",
            "confidence": 1.0,
            "uuid": "901547b6-56e4-403d-ade3-5fa9862fa975",
            "name": "Pinene",
            "url": "https://haz-map.com/Agents/16102",
            "category": "agents"
          },
          {
            "type": "name_match",
            "text": "gamma-terpinene",
            "confidence": 1.0,
            "uuid": "2a7b265b-212d-41ab-833c-625c1626cca8",
            "name": "gamma-Terpinene",
            "url": "https://haz-map.com/Agents/19384",
            "category": "agents"
          },
          {
            "type": "name_match",
            "text": "alpha-terpinene",
            "confidence": 1.0,
            "uuid": "b84aa478-1f78-45a0-8d5f-71077a2f4cac",
            "name": "alpha-Terpinene",
            "url": "https://haz-map.com/Agents/20188",
            "category": "agents"
          },
          {
            "type": "fuzzy_match",
            "text": "hydrocarbons",
            "matched_name": "Hydrocarbons, C>3",
            "confidence": 0.7100840336134454,
            "uuid": "8eaa37ac-3931-44e4-9242-2734127fd661",
            "category": "agents",
            "url": "https://haz-map.com/Agents/14795"
          }
        ]
      },
      "comments": {
        "original_name": "Comments",
        "value": "A moderate skin irritant; [RTECS] Safe when used as a flavoring agent in food; [JECFA] A skin and strong eye irritant; [Sigma-Aldrich MSDS] See \"Terpinolene.\" See \"TERPENES.\"",
        "links": [],
        "cross_references": [
          {
            "type": "name_match",
            "text": "terpenes",
            "confidence": 1.0,
            "uuid": "0a11dd9e-f81d-477b-b44c-85ca49ab02f4",
            "name": "TERPENES",
            "url": "https://haz-map.com/Agents/817",
            "category": "agents"
          },
          {
            "type": "name_match",
            "text": "terpinolene",
            "confidence": 1.0,
            "uuid": "4689a06f-fc04-4342-8796-38a43cc34355",
            "name": "Terpinolene",
            "url": "https://haz-map.com/Agents/1516",
            "category": "agents"
          }
        ]
      },
      "biomedical_references": {
        "original_name": "Biomedical References",
        "value": "Search PubMed",
        "links": [
          {
            "text": "Search PubMed",
            "url": "https://www.ncbi.nlm.nih.gov/pubmed?term=gamma-Terpinene%20AND%20human%5Bmh%5D%20AND%20%28Occupational%20Diseases%20%5Bmh%5D%20OR%20Occupational%20Exposure%20%5Bmh%5D%29%20%20AND%20%28tox%5Bsb%5D%29&cmd=search"
          }
        ],
        "cross_references": []
      }
    },
    "exposure_assessment": {
      "vapor_pressure": {
        "original_name": "Vapor Pressure",
        "value": "1.09 mm Hg",
        "links": [],
        "cross_references": []
      },
      "explanatory_notes": {
        "original_name": "Explanatory Notes",
        "value": "The Guide in the Emergency Response Guidebook is for \"Terpene hydrocarbons, n.o.s.\"",
        "links": [],
        "cross_references": [
          {
            "type": "name_match",
            "text": "carbon",
            "confidence": 1.0,
            "uuid": "b53f8815-ee80-40ef-b4aa-3b000e17dab5",
            "name": "Carbon",
            "url": "https://haz-map.com/Agents/1891",
            "category": "agents"
          },
          {
            "type": "fuzzy_match",
            "text": "hydrocarbons",
            "matched_name": "Hydrocarbons, C>3",
            "confidence": 0.7100840336134454,
            "uuid": "8eaa37ac-3931-44e4-9242-2734127fd661",
            "category": "agents",
            "url": "https://haz-map.com/Agents/14795"
          }
        ]
      }
    },
    "adverse_effects": {
      "neurotoxin": {
        "original_name": "Neurotoxin",
        "value": "Acute solvent syndrome",
        "links": [],
        "cross_references": []
      }
    },
    "diseases_processes_and_activities_linked_to_this_agent": {
      "diseases": {
        "original_name": "Diseases",
        "value": "Occupational diseases associated with exposure to this agent: Solvents, acute toxic effect",
        "links": [
          {
            "text": "Solvents, acute toxic effect",
            "url": "https://haz-map.com/Diseases/326"
          }
        ],
        "cross_references": [
          {
            "type": "url_match",
            "text": "Solvents, acute toxic effect",
            "url": "https://haz-map.com/Diseases/326",
            "confidence": 1.0,
            "uuid": "581e90e3-9d0c-45f0-aa6c-3468c28da129",
            "name": "Solvents, acute toxic effect",
            "category": "diseases"
          }
        ]
      }
    }
  },
  "cross_references": [
    {
      "type": "url_match",
      "text": "Solvents, acute toxic effect",
      "url": "https://haz-map.com/Diseases/326",
      "confidence": 1.0,
      "uuid": "581e90e3-9d0c-45f0-aa6c-3468c28da129",
      "name": "Solvents, acute toxic effect",
      "category": "diseases"
    },
    {
      "type": "name_match",
      "text": "terpenes",
      "confidence": 1.0,
      "uuid": "0a11dd9e-f81d-477b-b44c-85ca49ab02f4",
      "name": "TERPENES",
      "url": "https://haz-map.com/Agents/817",
      "category": "agents"
    },
    {
      "type": "name_match",
      "text": "terpinolene",
      "confidence": 1.0,
      "uuid": "4689a06f-fc04-4342-8796-38a43cc34355",
      "name": "Terpinolene",
      "url": "https://haz-map.com/Agents/1516",
      "category": "agents"
    },
    {
      "type": "name_match",
      "text": "carbon",
      "confidence": 1.0,
      "uuid": "b53f8815-ee80-40ef-b4aa-3b000e17dab5",
      "name": "Carbon",
      "url": "https://haz-map.com/Agents/1891",
      "category": "agents"
    },
    {
      "type": "name_match",
      "text": "1,4-cyclohexadiene",
      "confidence": 1.0,
      "uuid": "f6303b2c-b0e6-4958-a94a-317f168443de",
      "name": "1,4-Cyclohexadiene",
      "url": "https://haz-map.com/Agents/8514",
      "category": "agents"
    },
    {
      "type": "name_match",
      "text": "pinene",
      "confidence": 1.0,
      "uuid": "901547b6-56e4-403d-ade3-5fa9862fa975",
      "name": "Pinene",
      "url": "https://haz-map.com/Agents/16102",
      "category": "agents"
    },
    {
      "type": "name_match",
      "text": "gamma-terpinene",
      "confidence": 1.0,
      "uuid": "2a7b265b-212d-41ab-833c-625c1626cca8",
      "name": "gamma-Terpinene",
      "url": "https://haz-map.com/Agents/19384",
      "category": "agents"
    },
    {
      "type": "name_match",
      "text": "alpha-terpinene",
      "confidence": 1.0,
      "uuid": "b84aa478-1f78-45a0-8d5f-71077a2f4cac",
      "name": "alpha-Terpinene",
      "url": "https://haz-map.com/Agents/20188",
      "category": "agents"
    },
    {
      "type": "fuzzy_match",
      "text": "hydrocarbons",
      "matched_name": "Hydrocarbons, C>3",
      "confidence": 0.7100840336134454,
      "uuid": "8eaa37ac-3931-44e4-9242-2734127fd661",
      "category": "agents",
      "url": "https://haz-map.com/Agents/14795"
    }
  ],
  "all_links": [
    {
      "text": "Search PubMed",
      "url": "https://www.ncbi.nlm.nih.gov/pubmed?term=gamma-Terpinene%20AND%20human%5Bmh%5D%20AND%20%28Occupational%20Diseases%20%5Bmh%5D%20OR%20Occupational%20Exposure%20%5Bmh%5D%29%20%20AND%20%28tox%5Bsb%5D%29&cmd=search"
    },
    {
      "text": "Solvents, acute toxic effect",
      "url": "https://haz-map.com/Diseases/326"
    }
  ]
}