{
  "metadata": {
    "scraped_from": "https://haz-map.com/Agents/4855",
    "entity_name": "Difethialone",
    "category": "agents",
    "uuid": "2ac296bc-85a0-4019-b91e-49f44cf1fff4",
    "scraped_at": "2025-07-23T19:45:36.317899"
  },
  "parsed_at": "2025-07-24T01:07:14.466462",
  "title": "Difethialone",
  "sections": {
    "general": {
      "agent_name": {
        "original_name": "Agent Name",
        "value": "Difethialone",
        "links": [],
        "cross_references": [
          {
            "type": "name_match",
            "text": "difethialone",
            "confidence": 1.0,
            "uuid": "2ac296bc-85a0-4019-b91e-49f44cf1fff4",
            "name": "Difethialone",
            "url": "https://haz-map.com/Agents/4855",
            "category": "agents"
          }
        ]
      },
      "cas_number": {
        "original_name": "CAS Number",
        "value": "104653-34-1",
        "links": [],
        "cross_references": []
      },
      "formula": {
        "original_name": "Formula",
        "value": "C31-H23-Br-O2-S",
        "links": [],
        "cross_references": []
      },
      "major_category": {
        "original_name": "Major Category",
        "value": "Pesticides",
        "links": [],
        "cross_references": []
      },
      "synonyms": {
        "original_name": "Synonyms",
        "value": "3-(3-(4'-Bromo(1,1'-biphenyl)-4-yl)-1,2,3,4-tetrahydro-1-naphthalenyl)-4-hydroxy-2H-1-benzothiapyran-2-one; [ChemIDplus] LM 2219; Generation; Hombre; [Merck Index]",
        "links": [],
        "cross_references": [
          {
            "type": "name_match",
            "text": "biphenyl",
            "confidence": 1.0,
            "uuid": "740f90cb-888a-4a3b-b9ae-30768927fec2",
            "name": "Biphenyl",
            "url": "https://haz-map.com/Agents/306",
            "category": "agents"
          },
          {
            "type": "name_match",
            "text": "ht",
            "confidence": 1.0,
            "uuid": "764df367-8d53-4a11-81a2-31ccfe122a8d",
            "name": "HT",
            "url": "https://haz-map.com/Agents/2168",
            "category": "agents"
          }
        ]
      },
      "category": {
        "original_name": "Category",
        "value": "Rodenticides, Anticoagulant",
        "links": [],
        "cross_references": []
      },
      "description": {
        "original_name": "Description",
        "value": "Yellowish-white solid; [HSDB]",
        "links": [],
        "cross_references": []
      },
      "sourcesuses": {
        "original_name": "Sources/Uses",
        "value": "Used as second generation anticoagulant rodenticide effective for rodents resistant to warfarin; [Merck Index]",
        "links": [],
        "cross_references": [
          {
            "type": "name_match",
            "text": "warfarin",
            "confidence": 1.0,
            "uuid": "53672f20-d5e2-4d2b-a15a-3c933026cc64",
            "name": "Warfarin",
            "url": "https://haz-map.com/Agents/673",
            "category": "agents"
          }
        ]
      },
      "comments": {
        "original_name": "Comments",
        "value": "A vitamin K antagonist--causes clotting factor disruption and bleeding tendency; [HSDB] See \"Warfarin.\"",
        "links": [],
        "cross_references": [
          {
            "type": "name_match",
            "text": "warfarin",
            "confidence": 1.0,
            "uuid": "53672f20-d5e2-4d2b-a15a-3c933026cc64",
            "name": "Warfarin",
            "url": "https://haz-map.com/Agents/673",
            "category": "agents"
          }
        ]
      },
      "biomedical_references": {
        "original_name": "Biomedical References",
        "value": "Search PubMed",
        "links": [
          {
            "text": "Search PubMed",
            "url": "https://www.ncbi.nlm.nih.gov/pubmed?term=Difethialone%20AND%20human%5Bmh%5D%20AND%20%28Occupational%20Diseases%20%5Bmh%5D%20OR%20Occupational%20Exposure%20%5Bmh%5D%29%20%20AND%20%28tox%5Bsb%5D%29&cmd=search"
          }
        ],
        "cross_references": []
      }
    },
    "exposure_assessment": {
      "vapor_pressure": {
        "original_name": "Vapor Pressure",
        "value": "5.55E-07 mm Hg",
        "links": [],
        "cross_references": []
      }
    },
    "diseases_processes_and_activities_linked_to_this_agent": {
      "processes": {
        "original_name": "Processes",
        "value": "Industrial Processes with risk of exposure: Farming (Pesticides)",
        "links": [
          {
            "text": "Farming (Pesticides)",
            "url": "https://haz-map.com/Processes/218"
          }
        ],
        "cross_references": [
          {
            "type": "url_match",
            "text": "Farming (Pesticides)",
            "url": "https://haz-map.com/Processes/218",
            "confidence": 1.0,
            "uuid": "cf1e5815-c9bb-4917-82a5-391848170b7e",
            "name": "Farming (Pesticides)",
            "category": "processes"
          }
        ]
      }
    }
  },
  "cross_references": [
    {
      "type": "url_match",
      "text": "Farming (Pesticides)",
      "url": "https://haz-map.com/Processes/218",
      "confidence": 1.0,
      "uuid": "cf1e5815-c9bb-4917-82a5-391848170b7e",
      "name": "Farming (Pesticides)",
      "category": "processes"
    },
    {
      "type": "name_match",
      "text": "biphenyl",
      "confidence": 1.0,
      "uuid": "740f90cb-888a-4a3b-b9ae-30768927fec2",
      "name": "Biphenyl",
      "url": "https://haz-map.com/Agents/306",
      "category": "agents"
    },
    {
      "type": "name_match",
      "text": "warfarin",
      "confidence": 1.0,
      "uuid": "53672f20-d5e2-4d2b-a15a-3c933026cc64",
      "name": "Warfarin",
      "url": "https://haz-map.com/Agents/673",
      "category": "agents"
    },
    {
      "type": "name_match",
      "text": "ht",
      "confidence": 1.0,
      "uuid": "764df367-8d53-4a11-81a2-31ccfe122a8d",
      "name": "HT",
      "url": "https://haz-map.com/Agents/2168",
      "category": "agents"
    },
    {
      "type": "name_match",
      "text": "difethialone",
      "confidence": 1.0,
      "uuid": "2ac296bc-85a0-4019-b91e-49f44cf1fff4",
      "name": "Difethialone",
      "url": "https://haz-map.com/Agents/4855",
      "category": "agents"
    }
  ],
  "all_links": [
    {
      "text": "Search PubMed",
      "url": "https://www.ncbi.nlm.nih.gov/pubmed?term=Difethialone%20AND%20human%5Bmh%5D%20AND%20%28Occupational%20Diseases%20%5Bmh%5D%20OR%20Occupational%20Exposure%20%5Bmh%5D%29%20%20AND%20%28tox%5Bsb%5D%29&cmd=search"
    },
    {
      "text": "Farming (Pesticides)",
      "url": "https://haz-map.com/Processes/218"
    }
  ]
}