{
  "metadata": {
    "scraped_from": "https://haz-map.com/Agents/14528",
    "entity_name": "Heptadecane",
    "category": "agents",
    "uuid": "2ad3b271-cb7f-4136-9ca6-87e2937b8987",
    "scraped_at": "2025-07-23T21:23:40.835748"
  },
  "parsed_at": "2025-07-24T01:01:35.426043",
  "title": "Heptadecane",
  "sections": {
    "general": {
      "agent_name": {
        "original_name": "Agent Name",
        "value": "Heptadecane",
        "links": [],
        "cross_references": [
          {
            "type": "name_match",
            "text": "heptadecane",
            "confidence": 1.0,
            "uuid": "2ad3b271-cb7f-4136-9ca6-87e2937b8987",
            "name": "Heptadecane",
            "url": "https://haz-map.com/Agents/14528",
            "category": "agents"
          }
        ]
      },
      "cas_number": {
        "original_name": "CAS Number",
        "value": "629-78-7",
        "links": [],
        "cross_references": []
      },
      "formula": {
        "original_name": "Formula",
        "value": "C17-H36",
        "links": [],
        "cross_references": []
      },
      "major_category": {
        "original_name": "Major Category",
        "value": "Other Classes",
        "links": [],
        "cross_references": []
      },
      "synonyms": {
        "original_name": "Synonyms",
        "value": "n-Heptadecane; [ChemIDplus] Heptadecane, n-; [NTP]",
        "links": [],
        "cross_references": [
          {
            "type": "name_match",
            "text": "heptadecane",
            "confidence": 1.0,
            "uuid": "2ad3b271-cb7f-4136-9ca6-87e2937b8987",
            "name": "Heptadecane",
            "url": "https://haz-map.com/Agents/14528",
            "category": "agents"
          }
        ]
      },
      "category": {
        "original_name": "Category",
        "value": "Aliphatics, Saturated (>C11)",
        "links": [],
        "cross_references": []
      },
      "description": {
        "original_name": "Description",
        "value": "Solid; mp = 22 deg C; [CAMEO] Colorless liquid; mp = 20-22 deg C; [Sigma-Aldrich MSDS]",
        "links": [],
        "cross_references": []
      },
      "comments": {
        "original_name": "Comments",
        "value": "May cause irritation; An aspiration hazard by ingestion (may cause lung damage); [Sigma-Aldrich MSDS]",
        "links": [],
        "cross_references": []
      },
      "biomedical_references": {
        "original_name": "Biomedical References",
        "value": "Search PubMed",
        "links": [
          {
            "text": "Search PubMed",
            "url": "https://www.ncbi.nlm.nih.gov/pubmed?term=Heptadecane%20AND%20human%5Bmh%5D%20AND%20%28Occupational%20Diseases%20%5Bmh%5D%20OR%20Occupational%20Exposure%20%5Bmh%5D%29%20%20AND%20%28tox%5Bsb%5D%29&cmd=search"
          }
        ],
        "cross_references": []
      }
    },
    "exposure_assessment": {
      "vapor_pressure": {
        "original_name": "Vapor Pressure",
        "value": "0.000228 mm Hg",
        "links": [],
        "cross_references": []
      },
      "explanatory_notes": {
        "original_name": "Explanatory Notes",
        "value": "Vapor pressure = 1 mm Hg at 115 deg C; [Sigma-Aldrich MSDS]",
        "links": [],
        "cross_references": []
      }
    },
    "diseases_processes_and_activities_linked_to_this_agent": {
      "other_information": {
        "original_name": "Other Information",
        "value": "No other related information on this agent was found.",
        "links": [],
        "cross_references": []
      }
    }
  },
  "cross_references": [
    {
      "type": "name_match",
      "text": "heptadecane",
      "confidence": 1.0,
      "uuid": "2ad3b271-cb7f-4136-9ca6-87e2937b8987",
      "name": "Heptadecane",
      "url": "https://haz-map.com/Agents/14528",
      "category": "agents"
    }
  ],
  "all_links": [
    {
      "text": "Search PubMed",
      "url": "https://www.ncbi.nlm.nih.gov/pubmed?term=Heptadecane%20AND%20human%5Bmh%5D%20AND%20%28Occupational%20Diseases%20%5Bmh%5D%20OR%20Occupational%20Exposure%20%5Bmh%5D%29%20%20AND%20%28tox%5Bsb%5D%29&cmd=search"
    }
  ]
}