{
  "metadata": {
    "scraped_from": "https://haz-map.com/Agents/3937",
    "entity_name": "Bis(2,4-dichlorophenyl)ether",
    "category": "agents",
    "uuid": "2b493e29-f390-40e6-9a9c-61f2313b3ea9",
    "scraped_at": "2025-07-23T19:34:53.720500"
  },
  "parsed_at": "2025-07-24T01:14:04.838163",
  "title": "Bis(2,4-dichlorophenyl)ether",
  "sections": {
    "general": {
      "agent_name": {
        "original_name": "Agent Name",
        "value": "Bis(2,4-dichlorophenyl)ether",
        "links": [],
        "cross_references": [
          {
            "type": "name_match",
            "text": "2,4-d",
            "confidence": 1.0,
            "uuid": "bed35f54-2d93-4ffd-a3ee-723ab365faf1",
            "name": "2,4-D",
            "url": "https://haz-map.com/Agents/389",
            "category": "agents"
          },
          {
            "type": "name_match",
            "text": "dichlorophen",
            "confidence": 1.0,
            "uuid": "43441a9d-e8c4-49f1-8bbf-52d24da33df3",
            "name": "Dichlorophen",
            "url": "https://haz-map.com/Agents/1159",
            "category": "agents"
          },
          {
            "type": "name_match",
            "text": "bis(2,4-dichlorophenyl)ether",
            "confidence": 1.0,
            "uuid": "2b493e29-f390-40e6-9a9c-61f2313b3ea9",
            "name": "Bis(2,4-dichlorophenyl)ether",
            "url": "https://haz-map.com/Agents/3937",
            "category": "agents"
          }
        ]
      },
      "cas_number": {
        "original_name": "CAS Number",
        "value": "28076-73-5",
        "links": [],
        "cross_references": []
      },
      "formula": {
        "original_name": "Formula",
        "value": "C12-H6-Cl4-O",
        "links": [],
        "cross_references": []
      },
      "major_category": {
        "original_name": "Major Category",
        "value": "Other Classes",
        "links": [],
        "cross_references": []
      },
      "synonyms": {
        "original_name": "Synonyms",
        "value": "2,2',4,4'-Tetrachlorodiphenyl ether; 2,2',4,4'-Tetrachlorophenyl oxide; Benzene, 1,1'-oxybis(2,4-dichloro-; [ChemIDplus]",
        "links": [],
        "cross_references": [
          {
            "type": "name_match",
            "text": "benzene",
            "confidence": 1.0,
            "uuid": "b05124de-5f34-4c14-8f04-ccb20c3780d9",
            "name": "Benzene",
            "url": "https://haz-map.com/Agents/5",
            "category": "agents"
          },
          {
            "type": "name_match",
            "text": "2,4-d",
            "confidence": 1.0,
            "uuid": "bed35f54-2d93-4ffd-a3ee-723ab365faf1",
            "name": "2,4-D",
            "url": "https://haz-map.com/Agents/389",
            "category": "agents"
          },
          {
            "type": "name_match",
            "text": "phenyl ether",
            "confidence": 1.0,
            "uuid": "063d5590-1868-48d4-a62d-7f1f2e8cf6d4",
            "name": "Phenyl ether",
            "url": "https://haz-map.com/Agents/591",
            "category": "agents"
          }
        ]
      },
      "category": {
        "original_name": "Category",
        "value": "Halogenated Polyaromatics",
        "links": [],
        "cross_references": []
      },
      "description": {
        "original_name": "Description",
        "value": "Insoluble in water; [ChemIDplus]",
        "links": [],
        "cross_references": [
          {
            "type": "name_match",
            "text": "water",
            "confidence": 1.0,
            "uuid": "6f2a7557-dfd2-49bc-9b4b-a93cd8e225d4",
            "name": "Water",
            "url": "https://haz-map.com/Agents/18668",
            "category": "agents"
          }
        ]
      },
      "comments": {
        "original_name": "Comments",
        "value": "See \"Hexachlorodiphenyloxide.\"",
        "links": [],
        "cross_references": [
          {
            "type": "name_match",
            "text": "hexachlorodiphenyloxide",
            "confidence": 1.0,
            "uuid": "93feffa0-5761-4294-917d-a8416393d224",
            "name": "Hexachlorodiphenyloxide",
            "url": "https://haz-map.com/Agents/349",
            "category": "agents"
          }
        ]
      },
      "biomedical_references": {
        "original_name": "Biomedical References",
        "value": "Search PubMed",
        "links": [
          {
            "text": "Search PubMed",
            "url": "https://www.ncbi.nlm.nih.gov/pubmed?term=Bis(2%2c4-dichlorophenyl)ether%20AND%20human%5Bmh%5D%20AND%20%28Occupational%20Diseases%20%5Bmh%5D%20OR%20Occupational%20Exposure%20%5Bmh%5D%29%20%20AND%20%28tox%5Bsb%5D%29&cmd=search"
          }
        ],
        "cross_references": []
      }
    },
    "exposure_assessment": {
      "vapor_pressure": {
        "original_name": "Vapor Pressure",
        "value": "9.89E-06 mm Hg",
        "links": [],
        "cross_references": []
      }
    },
    "diseases_processes_and_activities_linked_to_this_agent": {
      "other_information": {
        "original_name": "Other Information",
        "value": "No other related information on this agent was found.",
        "links": [],
        "cross_references": []
      }
    }
  },
  "cross_references": [
    {
      "type": "name_match",
      "text": "benzene",
      "confidence": 1.0,
      "uuid": "b05124de-5f34-4c14-8f04-ccb20c3780d9",
      "name": "Benzene",
      "url": "https://haz-map.com/Agents/5",
      "category": "agents"
    },
    {
      "type": "name_match",
      "text": "hexachlorodiphenyloxide",
      "confidence": 1.0,
      "uuid": "93feffa0-5761-4294-917d-a8416393d224",
      "name": "Hexachlorodiphenyloxide",
      "url": "https://haz-map.com/Agents/349",
      "category": "agents"
    },
    {
      "type": "name_match",
      "text": "2,4-d",
      "confidence": 1.0,
      "uuid": "bed35f54-2d93-4ffd-a3ee-723ab365faf1",
      "name": "2,4-D",
      "url": "https://haz-map.com/Agents/389",
      "category": "agents"
    },
    {
      "type": "name_match",
      "text": "phenyl ether",
      "confidence": 1.0,
      "uuid": "063d5590-1868-48d4-a62d-7f1f2e8cf6d4",
      "name": "Phenyl ether",
      "url": "https://haz-map.com/Agents/591",
      "category": "agents"
    },
    {
      "type": "name_match",
      "text": "dichlorophen",
      "confidence": 1.0,
      "uuid": "43441a9d-e8c4-49f1-8bbf-52d24da33df3",
      "name": "Dichlorophen",
      "url": "https://haz-map.com/Agents/1159",
      "category": "agents"
    },
    {
      "type": "name_match",
      "text": "bis(2,4-dichlorophenyl)ether",
      "confidence": 1.0,
      "uuid": "2b493e29-f390-40e6-9a9c-61f2313b3ea9",
      "name": "Bis(2,4-dichlorophenyl)ether",
      "url": "https://haz-map.com/Agents/3937",
      "category": "agents"
    },
    {
      "type": "name_match",
      "text": "water",
      "confidence": 1.0,
      "uuid": "6f2a7557-dfd2-49bc-9b4b-a93cd8e225d4",
      "name": "Water",
      "url": "https://haz-map.com/Agents/18668",
      "category": "agents"
    }
  ],
  "all_links": [
    {
      "text": "Search PubMed",
      "url": "https://www.ncbi.nlm.nih.gov/pubmed?term=Bis(2%2c4-dichlorophenyl)ether%20AND%20human%5Bmh%5D%20AND%20%28Occupational%20Diseases%20%5Bmh%5D%20OR%20Occupational%20Exposure%20%5Bmh%5D%29%20%20AND%20%28tox%5Bsb%5D%29&cmd=search"
    }
  ]
}