{
  "metadata": {
    "scraped_from": "https://haz-map.com/Agents/1887",
    "entity_name": "Thenoyltrifluoroacetone",
    "category": "agents",
    "uuid": "2b944e53-7a6b-496f-91f7-f073a6c4897e",
    "scraped_at": "2025-07-23T19:06:04.192165"
  },
  "parsed_at": "2025-07-24T00:56:06.123573",
  "title": "Thenoyltrifluoroacetone",
  "sections": {
    "general": {
      "agent_name": {
        "original_name": "Agent Name",
        "value": "Thenoyltrifluoroacetone",
        "links": [],
        "cross_references": [
          {
            "type": "name_match",
            "text": "acetone",
            "confidence": 1.0,
            "uuid": "31b7bdae-eb37-44cc-9c56-b6dfc1908d64",
            "name": "Acetone",
            "url": "https://haz-map.com/Agents/138",
            "category": "agents"
          },
          {
            "type": "name_match",
            "text": "thenoyltrifluoroacetone",
            "confidence": 1.0,
            "uuid": "2b944e53-7a6b-496f-91f7-f073a6c4897e",
            "name": "Thenoyltrifluoroacetone",
            "url": "https://haz-map.com/Agents/1887",
            "category": "agents"
          },
          {
            "type": "name_match",
            "text": "fluoroacetone",
            "confidence": 1.0,
            "uuid": "8794328b-7632-4364-af01-2f67abdd2463",
            "name": "Fluoroacetone",
            "url": "https://haz-map.com/Agents/13893",
            "category": "agents"
          }
        ]
      },
      "cas_number": {
        "original_name": "CAS Number",
        "value": "326-91-0",
        "links": [],
        "cross_references": []
      },
      "formula": {
        "original_name": "Formula",
        "value": "C8-H5-F3-O2-S",
        "links": [],
        "cross_references": []
      },
      "major_category": {
        "original_name": "Major Category",
        "value": "Other Uses",
        "links": [],
        "cross_references": []
      },
      "synonyms": {
        "original_name": "Synonyms",
        "value": "1,1,1-Trifluoro-3-(2-thenoyl)acetone; 1-Thenoyl-3,3,3-trifluoroacetone; 2-Thenoyltrifluoroacetone; Perfluoroacetyl(2-thenoyl)methane; TTA; TTB; alpha-Thenoyltrifluoroacetone; [ChemIDplus] 4,4,4-Trifluro-1-(2-thienyl)-1,3-butanedione; [MSDSonline]",
        "links": [],
        "cross_references": [
          {
            "type": "name_match",
            "text": "acetone",
            "confidence": 1.0,
            "uuid": "31b7bdae-eb37-44cc-9c56-b6dfc1908d64",
            "name": "Acetone",
            "url": "https://haz-map.com/Agents/138",
            "category": "agents"
          },
          {
            "type": "name_match",
            "text": "methane",
            "confidence": 1.0,
            "uuid": "5018bf73-24be-4353-8643-c351d5f52186",
            "name": "Methane",
            "url": "https://haz-map.com/Agents/1074",
            "category": "agents"
          },
          {
            "type": "name_match",
            "text": "ethane",
            "confidence": 1.0,
            "uuid": "5162cc8c-dfb9-4060-81ac-38a8cec7f9dd",
            "name": "Ethane",
            "url": "https://haz-map.com/Agents/1075",
            "category": "agents"
          },
          {
            "type": "name_match",
            "text": "thenoyltrifluoroacetone",
            "confidence": 1.0,
            "uuid": "2b944e53-7a6b-496f-91f7-f073a6c4897e",
            "name": "Thenoyltrifluoroacetone",
            "url": "https://haz-map.com/Agents/1887",
            "category": "agents"
          },
          {
            "type": "name_match",
            "text": "fluoroacetone",
            "confidence": 1.0,
            "uuid": "8794328b-7632-4364-af01-2f67abdd2463",
            "name": "Fluoroacetone",
            "url": "https://haz-map.com/Agents/13893",
            "category": "agents"
          }
        ]
      },
      "category": {
        "original_name": "Category",
        "value": "Chelating Agents",
        "links": [],
        "cross_references": []
      },
      "description": {
        "original_name": "Description",
        "value": "A yellow-tan solid with a weak odor; [MSDSonline]",
        "links": [],
        "cross_references": []
      },
      "sourcesuses": {
        "original_name": "Sources/Uses",
        "value": "Used as a chelating agent; [ChemIDplus]",
        "links": [],
        "cross_references": []
      },
      "comments": {
        "original_name": "Comments",
        "value": "A skin, eye, and respiratory irritant; Harmful if ingested; Will burn if preheated; Avoid breathing dust; Toxicology information is incomplete; [MSDSonline]",
        "links": [],
        "cross_references": [
          {
            "type": "name_match",
            "text": "burn",
            "confidence": 1.0,
            "uuid": "63665de5-6376-4918-8dbf-4c10c4d63837",
            "name": "burn",
            "url": "https://haz-map.com/Findings/204",
            "category": "findings"
          }
        ]
      },
      "biomedical_references": {
        "original_name": "Biomedical References",
        "value": "Search PubMed",
        "links": [
          {
            "text": "Search PubMed",
            "url": "https://www.ncbi.nlm.nih.gov/pubmed?term=Thenoyltrifluoroacetone%20AND%20human%5Bmh%5D%20AND%20%28Occupational%20Diseases%20%5Bmh%5D%20OR%20Occupational%20Exposure%20%5Bmh%5D%29%20%20AND%20%28tox%5Bsb%5D%29&cmd=search"
          }
        ],
        "cross_references": []
      }
    },
    "exposure_assessment": {
      "vapor_pressure": {
        "original_name": "Vapor Pressure",
        "value": "0.0069 mm Hg",
        "links": [],
        "cross_references": []
      },
      "explanatory_notes": {
        "original_name": "Explanatory Notes",
        "value": "bp = 96-98 deg C @ 8 mm Hg; mp = 40-44 deg C; [MSDSonline] VP from ChemIDplus;",
        "links": [],
        "cross_references": []
      }
    },
    "diseases_processes_and_activities_linked_to_this_agent": {
      "other_information": {
        "original_name": "Other Information",
        "value": "No other related information on this agent was found.",
        "links": [],
        "cross_references": []
      }
    }
  },
  "cross_references": [
    {
      "type": "name_match",
      "text": "burn",
      "confidence": 1.0,
      "uuid": "63665de5-6376-4918-8dbf-4c10c4d63837",
      "name": "burn",
      "url": "https://haz-map.com/Findings/204",
      "category": "findings"
    },
    {
      "type": "name_match",
      "text": "acetone",
      "confidence": 1.0,
      "uuid": "31b7bdae-eb37-44cc-9c56-b6dfc1908d64",
      "name": "Acetone",
      "url": "https://haz-map.com/Agents/138",
      "category": "agents"
    },
    {
      "type": "name_match",
      "text": "methane",
      "confidence": 1.0,
      "uuid": "5018bf73-24be-4353-8643-c351d5f52186",
      "name": "Methane",
      "url": "https://haz-map.com/Agents/1074",
      "category": "agents"
    },
    {
      "type": "name_match",
      "text": "ethane",
      "confidence": 1.0,
      "uuid": "5162cc8c-dfb9-4060-81ac-38a8cec7f9dd",
      "name": "Ethane",
      "url": "https://haz-map.com/Agents/1075",
      "category": "agents"
    },
    {
      "type": "name_match",
      "text": "thenoyltrifluoroacetone",
      "confidence": 1.0,
      "uuid": "2b944e53-7a6b-496f-91f7-f073a6c4897e",
      "name": "Thenoyltrifluoroacetone",
      "url": "https://haz-map.com/Agents/1887",
      "category": "agents"
    },
    {
      "type": "name_match",
      "text": "fluoroacetone",
      "confidence": 1.0,
      "uuid": "8794328b-7632-4364-af01-2f67abdd2463",
      "name": "Fluoroacetone",
      "url": "https://haz-map.com/Agents/13893",
      "category": "agents"
    }
  ],
  "all_links": [
    {
      "text": "Search PubMed",
      "url": "https://www.ncbi.nlm.nih.gov/pubmed?term=Thenoyltrifluoroacetone%20AND%20human%5Bmh%5D%20AND%20%28Occupational%20Diseases%20%5Bmh%5D%20OR%20Occupational%20Exposure%20%5Bmh%5D%29%20%20AND%20%28tox%5Bsb%5D%29&cmd=search"
    }
  ]
}