{
  "metadata": {
    "scraped_from": "https://haz-map.com/Agents/2770",
    "entity_name": "1,2-Epoxydodecane",
    "category": "agents",
    "uuid": "2bce52e3-c226-46fe-92b8-52642333dc84",
    "scraped_at": "2025-07-23T19:18:43.373714"
  },
  "parsed_at": "2025-07-24T00:54:33.132688",
  "title": "1,2-Epoxydodecane",
  "sections": {
    "general": {
      "agent_name": {
        "original_name": "Agent Name",
        "value": "1,2-Epoxydodecane",
        "links": [],
        "cross_references": [
          {
            "type": "name_match",
            "text": "dodecane",
            "confidence": 1.0,
            "uuid": "e446b8fe-aaab-4728-8e79-211dfc827a2e",
            "name": "Dodecane",
            "url": "https://haz-map.com/Agents/1785",
            "category": "agents"
          },
          {
            "type": "name_match",
            "text": "1,2-epoxydodecane",
            "confidence": 1.0,
            "uuid": "2bce52e3-c226-46fe-92b8-52642333dc84",
            "name": "1,2-Epoxydodecane",
            "url": "https://haz-map.com/Agents/2770",
            "category": "agents"
          }
        ]
      },
      "cas_number": {
        "original_name": "CAS Number",
        "value": "2855-19-8",
        "links": [],
        "cross_references": []
      },
      "formula": {
        "original_name": "Formula",
        "value": "C12-H24-O",
        "links": [],
        "cross_references": []
      },
      "major_category": {
        "original_name": "Major Category",
        "value": "Plastics & Rubber",
        "links": [],
        "cross_references": []
      },
      "synonyms": {
        "original_name": "Synonyms",
        "value": "1,2-Dodecane oxide; 1,2-Dodecene oxide; 1,2-Epoxy-n-dodecane; 1,2-Epoxy-n-dodecene; 1,2-Epoxydodekan [Czech]; 1-Dodecene oxide; Decyl oxirane; Dodecane, 1,2-epoxy-; Dodecene epoxide; Nedox 1200; Oxirane, decyl-; alpha-Dodecene oxide; [ChemIDplus]",
        "links": [],
        "cross_references": [
          {
            "type": "name_match",
            "text": "dodecane",
            "confidence": 1.0,
            "uuid": "e446b8fe-aaab-4728-8e79-211dfc827a2e",
            "name": "Dodecane",
            "url": "https://haz-map.com/Agents/1785",
            "category": "agents"
          },
          {
            "type": "name_match",
            "text": "1-dodecene",
            "confidence": 1.0,
            "uuid": "70500377-cd4f-4aa4-bcf7-806b1cb4faa1",
            "name": "1-Dodecene",
            "url": "https://haz-map.com/Agents/2883",
            "category": "agents"
          },
          {
            "type": "name_match",
            "text": "decene",
            "confidence": 1.0,
            "uuid": "31094271-051d-41ab-9d14-1e1d404f5a06",
            "name": "Decene",
            "url": "https://haz-map.com/Agents/4666",
            "category": "agents"
          },
          {
            "type": "name_match",
            "text": "dodecene",
            "confidence": 1.0,
            "uuid": "9e10ab4d-b8c6-4e61-b6c6-2ae353083f32",
            "name": "Dodecene",
            "url": "https://haz-map.com/Agents/5049",
            "category": "agents"
          }
        ]
      },
      "category": {
        "original_name": "Category",
        "value": "Epoxides",
        "links": [],
        "cross_references": []
      },
      "description": {
        "original_name": "Description",
        "value": "Colorless liquid; [CAMEO]",
        "links": [],
        "cross_references": []
      },
      "sourcesuses": {
        "original_name": "Sources/Uses",
        "value": "Used as a secondary heat stabilizer for polymers; No known commercial production in the US; [HSDB]",
        "links": [],
        "cross_references": []
      },
      "comments": {
        "original_name": "Comments",
        "value": "A tumorigen; [RTECS] A skin, eye, mucous membrane, and upper respiratory tract irritant; [CAMEO] An irritant; [MSDSonline]",
        "links": [],
        "cross_references": []
      },
      "biomedical_references": {
        "original_name": "Biomedical References",
        "value": "Search PubMed",
        "links": [
          {
            "text": "Search PubMed",
            "url": "https://www.ncbi.nlm.nih.gov/pubmed?term=1%2c2-Epoxydodecane%20AND%20human%5Bmh%5D%20AND%20%28Occupational%20Diseases%20%5Bmh%5D%20OR%20Occupational%20Exposure%20%5Bmh%5D%29%20%20AND%20%28tox%5Bsb%5D%29&cmd=search"
          }
        ],
        "cross_references": []
      }
    },
    "exposure_assessment": {
      "vapor_pressure": {
        "original_name": "Vapor Pressure",
        "value": "6.25 mm Hg",
        "links": [],
        "cross_references": []
      },
      "explanatory_notes": {
        "original_name": "Explanatory Notes",
        "value": "Flash point = 44 deg C; [CAMEO]",
        "links": [],
        "cross_references": [
          {
            "type": "name_match",
            "text": "ash",
            "confidence": 1.0,
            "uuid": "68b360f1-5ad0-4337-bea0-d7adca2961b5",
            "name": "Ash",
            "url": "https://haz-map.com/Agents/965",
            "category": "agents"
          }
        ]
      }
    },
    "diseases_processes_and_activities_linked_to_this_agent": {
      "other_information": {
        "original_name": "Other Information",
        "value": "No other related information on this agent was found.",
        "links": [],
        "cross_references": []
      }
    }
  },
  "cross_references": [
    {
      "type": "name_match",
      "text": "ash",
      "confidence": 1.0,
      "uuid": "68b360f1-5ad0-4337-bea0-d7adca2961b5",
      "name": "Ash",
      "url": "https://haz-map.com/Agents/965",
      "category": "agents"
    },
    {
      "type": "name_match",
      "text": "dodecane",
      "confidence": 1.0,
      "uuid": "e446b8fe-aaab-4728-8e79-211dfc827a2e",
      "name": "Dodecane",
      "url": "https://haz-map.com/Agents/1785",
      "category": "agents"
    },
    {
      "type": "name_match",
      "text": "1,2-epoxydodecane",
      "confidence": 1.0,
      "uuid": "2bce52e3-c226-46fe-92b8-52642333dc84",
      "name": "1,2-Epoxydodecane",
      "url": "https://haz-map.com/Agents/2770",
      "category": "agents"
    },
    {
      "type": "name_match",
      "text": "1-dodecene",
      "confidence": 1.0,
      "uuid": "70500377-cd4f-4aa4-bcf7-806b1cb4faa1",
      "name": "1-Dodecene",
      "url": "https://haz-map.com/Agents/2883",
      "category": "agents"
    },
    {
      "type": "name_match",
      "text": "decene",
      "confidence": 1.0,
      "uuid": "31094271-051d-41ab-9d14-1e1d404f5a06",
      "name": "Decene",
      "url": "https://haz-map.com/Agents/4666",
      "category": "agents"
    },
    {
      "type": "name_match",
      "text": "dodecene",
      "confidence": 1.0,
      "uuid": "9e10ab4d-b8c6-4e61-b6c6-2ae353083f32",
      "name": "Dodecene",
      "url": "https://haz-map.com/Agents/5049",
      "category": "agents"
    }
  ],
  "all_links": [
    {
      "text": "Search PubMed",
      "url": "https://www.ncbi.nlm.nih.gov/pubmed?term=1%2c2-Epoxydodecane%20AND%20human%5Bmh%5D%20AND%20%28Occupational%20Diseases%20%5Bmh%5D%20OR%20Occupational%20Exposure%20%5Bmh%5D%29%20%20AND%20%28tox%5Bsb%5D%29&cmd=search"
    }
  ]
}