{
  "metadata": {
    "scraped_from": "https://haz-map.com/Agents/11246",
    "entity_name": "Benzo(f)quinoline",
    "category": "agents",
    "uuid": "2be33143-2ed4-41a5-939d-2640403426b4",
    "scraped_at": "2025-07-23T20:57:13.685890"
  },
  "parsed_at": "2025-07-24T00:59:21.390039",
  "title": "Benzo(f)quinoline",
  "sections": {
    "general": {
      "agent_name": {
        "original_name": "Agent Name",
        "value": "Benzo(f)quinoline",
        "links": [],
        "cross_references": [
          {
            "type": "name_match",
            "text": "quinoline",
            "confidence": 1.0,
            "uuid": "ba9097a5-8299-4dfd-a74a-f179b7d465d1",
            "name": "Quinoline",
            "url": "https://haz-map.com/Agents/6937",
            "category": "agents"
          },
          {
            "type": "name_match",
            "text": "benzo(f)quinoline",
            "confidence": 1.0,
            "uuid": "2be33143-2ed4-41a5-939d-2640403426b4",
            "name": "Benzo(f)quinoline",
            "url": "https://haz-map.com/Agents/11246",
            "category": "agents"
          }
        ]
      },
      "cas_number": {
        "original_name": "CAS Number",
        "value": "85-02-9",
        "links": [],
        "cross_references": []
      },
      "formula": {
        "original_name": "Formula",
        "value": "C13-H9-N",
        "links": [],
        "cross_references": []
      },
      "major_category": {
        "original_name": "Major Category",
        "value": "Nitrogen Compounds",
        "links": [],
        "cross_references": [
          {
            "type": "name_match",
            "text": "nitrogen",
            "confidence": 1.0,
            "uuid": "db5e90a9-06d2-45b9-8b81-f345a89b0bc0",
            "name": "Nitrogen",
            "url": "https://haz-map.com/Agents/1072",
            "category": "agents"
          }
        ]
      },
      "synonyms": {
        "original_name": "Synonyms",
        "value": "1-Azaphenanthrene; 5,6-Benzo(f)quinoline; 5,6-Benzoquinoline; beta-Naphthoquinoline; [ChemIDplus] Naphthopyridine; [Merck Index] Benzoquinoline, (f); [NTP]",
        "links": [],
        "cross_references": [
          {
            "type": "name_match",
            "text": "pyridine",
            "confidence": 1.0,
            "uuid": "a2d916a4-844b-4df6-9be5-868b2b364d71",
            "name": "Pyridine",
            "url": "https://haz-map.com/Agents/616",
            "category": "agents"
          },
          {
            "type": "name_match",
            "text": "ht",
            "confidence": 1.0,
            "uuid": "764df367-8d53-4a11-81a2-31ccfe122a8d",
            "name": "HT",
            "url": "https://haz-map.com/Agents/2168",
            "category": "agents"
          },
          {
            "type": "name_match",
            "text": "quinoline",
            "confidence": 1.0,
            "uuid": "ba9097a5-8299-4dfd-a74a-f179b7d465d1",
            "name": "Quinoline",
            "url": "https://haz-map.com/Agents/6937",
            "category": "agents"
          },
          {
            "type": "name_match",
            "text": "phenanthrene",
            "confidence": 1.0,
            "uuid": "46b9b367-bbde-4453-9fc0-b85eea1ca31a",
            "name": "Phenanthrene",
            "url": "https://haz-map.com/Agents/7861",
            "category": "agents"
          },
          {
            "type": "name_match",
            "text": "benzo(f)quinoline",
            "confidence": 1.0,
            "uuid": "2be33143-2ed4-41a5-939d-2640403426b4",
            "name": "Benzo(f)quinoline",
            "url": "https://haz-map.com/Agents/11246",
            "category": "agents"
          },
          {
            "type": "name_match",
            "text": "benzoquinoline",
            "confidence": 1.0,
            "uuid": "ff633d21-881d-407f-8e49-4b8e6d0a2534",
            "name": "Benzoquinoline",
            "url": "https://haz-map.com/Agents/12227",
            "category": "agents"
          }
        ]
      },
      "category": {
        "original_name": "Category",
        "value": "Quinolines",
        "links": [],
        "cross_references": [
          {
            "type": "name_match",
            "text": "quinoline",
            "confidence": 1.0,
            "uuid": "ba9097a5-8299-4dfd-a74a-f179b7d465d1",
            "name": "Quinoline",
            "url": "https://haz-map.com/Agents/6937",
            "category": "agents"
          }
        ]
      },
      "description": {
        "original_name": "Description",
        "value": "Solid; [Merck Index] Yellow or white solid with a characteristic irritating odor; [CAMEO]",
        "links": [],
        "cross_references": []
      },
      "sourcesuses": {
        "original_name": "Sources/Uses",
        "value": "Used as a reagent in the determination of cadmium; [Merck Index]",
        "links": [],
        "cross_references": [
          {
            "type": "name_match",
            "text": "cadmium",
            "confidence": 1.0,
            "uuid": "a9909872-6c26-42b3-aa23-28f2fa4bf1bf",
            "name": "Cadmium",
            "url": "https://haz-map.com/Agents/2",
            "category": "agents"
          }
        ]
      },
      "comments": {
        "original_name": "Comments",
        "value": "Causes severe irritation and local injury to skin and mucous membranes; Eye contact may cause severe visual disturbances, lachrymation, conjunctivitis, burning sensation, and corneal injury; [NTP] An irritant that may cause serious eye injury; Toxic by ingestion; [Sigma-Aldrich MSDS] See \"Quinoline\" and \"Naphthalene.\"",
        "links": [],
        "cross_references": [
          {
            "type": "name_match",
            "text": "burn",
            "confidence": 1.0,
            "uuid": "63665de5-6376-4918-8dbf-4c10c4d63837",
            "name": "burn",
            "url": "https://haz-map.com/Findings/204",
            "category": "findings"
          },
          {
            "type": "name_match",
            "text": "naphthalene",
            "confidence": 1.0,
            "uuid": "433cf489-5423-4297-a38e-6e755a9d458e",
            "name": "Naphthalene",
            "url": "https://haz-map.com/Agents/46",
            "category": "agents"
          },
          {
            "type": "name_match",
            "text": "ht",
            "confidence": 1.0,
            "uuid": "764df367-8d53-4a11-81a2-31ccfe122a8d",
            "name": "HT",
            "url": "https://haz-map.com/Agents/2168",
            "category": "agents"
          },
          {
            "type": "name_match",
            "text": "quinoline",
            "confidence": 1.0,
            "uuid": "ba9097a5-8299-4dfd-a74a-f179b7d465d1",
            "name": "Quinoline",
            "url": "https://haz-map.com/Agents/6937",
            "category": "agents"
          }
        ]
      },
      "biomedical_references": {
        "original_name": "Biomedical References",
        "value": "Search PubMed",
        "links": [
          {
            "text": "Search PubMed",
            "url": "https://www.ncbi.nlm.nih.gov/pubmed?term=Benzo(f)quinoline%20AND%20human%5Bmh%5D%20AND%20%28Occupational%20Diseases%20%5Bmh%5D%20OR%20Occupational%20Exposure%20%5Bmh%5D%29%20%20AND%20%28tox%5Bsb%5D%29&cmd=search"
          }
        ],
        "cross_references": []
      }
    },
    "exposure_assessment": {
      "vapor_pressure": {
        "original_name": "Vapor Pressure",
        "value": "5.6E-05 mm Hg",
        "links": [],
        "cross_references": []
      }
    },
    "adverse_effects": {
      "lachrymator": {
        "original_name": "Lachrymator",
        "value": "Yes",
        "links": [],
        "cross_references": []
      }
    },
    "diseases_processes_and_activities_linked_to_this_agent": {
      "other_information": {
        "original_name": "Other Information",
        "value": "No other related information on this agent was found.",
        "links": [],
        "cross_references": []
      }
    }
  },
  "cross_references": [
    {
      "type": "name_match",
      "text": "burn",
      "confidence": 1.0,
      "uuid": "63665de5-6376-4918-8dbf-4c10c4d63837",
      "name": "burn",
      "url": "https://haz-map.com/Findings/204",
      "category": "findings"
    },
    {
      "type": "name_match",
      "text": "cadmium",
      "confidence": 1.0,
      "uuid": "a9909872-6c26-42b3-aa23-28f2fa4bf1bf",
      "name": "Cadmium",
      "url": "https://haz-map.com/Agents/2",
      "category": "agents"
    },
    {
      "type": "name_match",
      "text": "naphthalene",
      "confidence": 1.0,
      "uuid": "433cf489-5423-4297-a38e-6e755a9d458e",
      "name": "Naphthalene",
      "url": "https://haz-map.com/Agents/46",
      "category": "agents"
    },
    {
      "type": "name_match",
      "text": "pyridine",
      "confidence": 1.0,
      "uuid": "a2d916a4-844b-4df6-9be5-868b2b364d71",
      "name": "Pyridine",
      "url": "https://haz-map.com/Agents/616",
      "category": "agents"
    },
    {
      "type": "name_match",
      "text": "nitrogen",
      "confidence": 1.0,
      "uuid": "db5e90a9-06d2-45b9-8b81-f345a89b0bc0",
      "name": "Nitrogen",
      "url": "https://haz-map.com/Agents/1072",
      "category": "agents"
    },
    {
      "type": "name_match",
      "text": "ht",
      "confidence": 1.0,
      "uuid": "764df367-8d53-4a11-81a2-31ccfe122a8d",
      "name": "HT",
      "url": "https://haz-map.com/Agents/2168",
      "category": "agents"
    },
    {
      "type": "name_match",
      "text": "quinoline",
      "confidence": 1.0,
      "uuid": "ba9097a5-8299-4dfd-a74a-f179b7d465d1",
      "name": "Quinoline",
      "url": "https://haz-map.com/Agents/6937",
      "category": "agents"
    },
    {
      "type": "name_match",
      "text": "phenanthrene",
      "confidence": 1.0,
      "uuid": "46b9b367-bbde-4453-9fc0-b85eea1ca31a",
      "name": "Phenanthrene",
      "url": "https://haz-map.com/Agents/7861",
      "category": "agents"
    },
    {
      "type": "name_match",
      "text": "benzo(f)quinoline",
      "confidence": 1.0,
      "uuid": "2be33143-2ed4-41a5-939d-2640403426b4",
      "name": "Benzo(f)quinoline",
      "url": "https://haz-map.com/Agents/11246",
      "category": "agents"
    },
    {
      "type": "name_match",
      "text": "benzoquinoline",
      "confidence": 1.0,
      "uuid": "ff633d21-881d-407f-8e49-4b8e6d0a2534",
      "name": "Benzoquinoline",
      "url": "https://haz-map.com/Agents/12227",
      "category": "agents"
    }
  ],
  "all_links": [
    {
      "text": "Search PubMed",
      "url": "https://www.ncbi.nlm.nih.gov/pubmed?term=Benzo(f)quinoline%20AND%20human%5Bmh%5D%20AND%20%28Occupational%20Diseases%20%5Bmh%5D%20OR%20Occupational%20Exposure%20%5Bmh%5D%29%20%20AND%20%28tox%5Bsb%5D%29&cmd=search"
    }
  ]
}