{
  "metadata": {
    "scraped_from": "https://haz-map.com/Agents/323",
    "entity_name": "tert-Butyl acetate",
    "category": "agents",
    "uuid": "2c21f028-8502-4a61-9e46-a6c0f46322ad",
    "scraped_at": "2025-07-23T18:39:32.222390"
  },
  "parsed_at": "2025-07-24T01:13:23.695691",
  "title": "tert-Butyl acetate",
  "sections": {
    "general": {
      "agent_name": {
        "original_name": "Agent Name",
        "value": "tert-Butyl acetate",
        "links": [],
        "cross_references": [
          {
            "type": "name_match",
            "text": "tert-butyl acetate",
            "confidence": 1.0,
            "uuid": "2c21f028-8502-4a61-9e46-a6c0f46322ad",
            "name": "tert-Butyl acetate",
            "url": "https://haz-map.com/Agents/323",
            "category": "agents"
          }
        ]
      },
      "cas_number": {
        "original_name": "CAS Number",
        "value": "540-88-5",
        "links": [],
        "cross_references": []
      },
      "formula": {
        "original_name": "Formula",
        "value": "C6-H12-O2",
        "links": [],
        "cross_references": []
      },
      "major_category": {
        "original_name": "Major Category",
        "value": "Solvents",
        "links": [],
        "cross_references": []
      },
      "synonyms": {
        "original_name": "Synonyms",
        "value": "1,1-Dimethyl acetate; Acetic acid, 1,1-dimethylethyl ester; Acetic acid, tert-butyl ester; TLA; Texaco lead appreciator; t-Butyl acetate; tert-Butyl acetate; tert-Butyl ethanoate; [ChemIDplus] UN1123",
        "links": [],
        "cross_references": [
          {
            "type": "name_match",
            "text": "lead",
            "confidence": 1.0,
            "uuid": "24246eba-13d7-456a-a142-ceae0f1df43f",
            "name": "Lead",
            "url": "https://haz-map.com/Agents/10",
            "category": "agents"
          },
          {
            "type": "name_match",
            "text": "acetic acid",
            "confidence": 1.0,
            "uuid": "0905c6e4-df84-4895-a92d-658819239bbd",
            "name": "Acetic acid",
            "url": "https://haz-map.com/Agents/207",
            "category": "agents"
          },
          {
            "type": "name_match",
            "text": "tert-butyl acetate",
            "confidence": 1.0,
            "uuid": "2c21f028-8502-4a61-9e46-a6c0f46322ad",
            "name": "tert-Butyl acetate",
            "url": "https://haz-map.com/Agents/323",
            "category": "agents"
          },
          {
            "type": "name_match",
            "text": "methyl acetate",
            "confidence": 1.0,
            "uuid": "f2a7b2a2-ae53-479d-a6d7-3d6afb31799f",
            "name": "Methyl acetate",
            "url": "https://haz-map.com/Agents/546",
            "category": "agents"
          },
          {
            "type": "name_match",
            "text": "ethyl acetate",
            "confidence": 1.0,
            "uuid": "ed41957a-17a2-415b-87b5-5893e3fa08ad",
            "name": "Ethyl acetate",
            "url": "https://haz-map.com/Agents/721",
            "category": "agents"
          }
        ]
      },
      "category": {
        "original_name": "Category",
        "value": "Esters (<C12)",
        "links": [],
        "cross_references": []
      },
      "description": {
        "original_name": "Description",
        "value": "Colorless liquid with a fruity odor; [NIOSH]",
        "links": [],
        "cross_references": []
      },
      "sourcesuses": {
        "original_name": "Sources/Uses",
        "value": "Used as a solvent (industrial coatings, inks, adhesives, cleaners) and gasoline additive; Bananas and other fruits are food sources. [ACGIH]",
        "links": [],
        "cross_references": [
          {
            "type": "name_match",
            "text": "gasoline",
            "confidence": 1.0,
            "uuid": "af15c833-3eae-46c5-9af4-2214858d7282",
            "name": "Gasoline",
            "url": "https://haz-map.com/Agents/410",
            "category": "agents"
          }
        ]
      },
      "comments": {
        "original_name": "Comments",
        "value": "Liver changes were seen in animals exposed to 7900 mg/m3. [ACGIH] A throat and eye irritant; [CAMEO] Inhalation of high concentrations can cause CNS depression; [CHEMINFO]",
        "links": [],
        "cross_references": []
      },
      "reference_link_1": {
        "original_name": "Reference Link #1",
        "value": "NIOSH Occupational Health Guidelines for Chemical Hazards: tert-Butyl acetate",
        "links": [
          {
            "text": "NIOSH Occupational Health Guidelines for Chemical Hazards: tert-Butyl acetate",
            "url": "https://www.cdc.gov/niosh/docs/81-123/pdfs/0074-rev.pdf?id=10.26616/NIOSHPUB81123"
          }
        ],
        "cross_references": [
          {
            "type": "name_match",
            "text": "tert-butyl acetate",
            "confidence": 1.0,
            "uuid": "2c21f028-8502-4a61-9e46-a6c0f46322ad",
            "name": "tert-Butyl acetate",
            "url": "https://haz-map.com/Agents/323",
            "category": "agents"
          },
          {
            "type": "name_match",
            "text": "mica",
            "confidence": 1.0,
            "uuid": "433f26f1-c399-4596-b179-ce3843cfd465",
            "name": "Mica",
            "url": "https://haz-map.com/Agents/621",
            "category": "agents"
          }
        ]
      },
      "biomedical_references": {
        "original_name": "Biomedical References",
        "value": "Search PubMed",
        "links": [
          {
            "text": "Search PubMed",
            "url": "https://www.ncbi.nlm.nih.gov/pubmed?term=tert-Butyl+acetate%20AND%20human%5Bmh%5D%20AND%20%28Occupational%20Diseases%20%5Bmh%5D%20OR%20Occupational%20Exposure%20%5Bmh%5D%29%20%20AND%20%28tox%5Bsb%5D%29&cmd=search"
          }
        ],
        "cross_references": []
      }
    },
    "exposure_assessment": {
      "skin_designation_acgih": {
        "original_name": "Skin Designation (ACGIH)",
        "value": "Insufficient data",
        "links": [],
        "cross_references": []
      },
      "tlv_acgih": {
        "original_name": "TLV (ACGIH)",
        "value": "50 ppm",
        "links": [],
        "cross_references": []
      },
      "stel_acgih": {
        "original_name": "STEL (ACGIH)",
        "value": "150 ppm",
        "links": [],
        "cross_references": []
      },
      "pel_osha": {
        "original_name": "PEL (OSHA)",
        "value": "200 ppm",
        "links": [],
        "cross_references": []
      },
      "mak": {
        "original_name": "MAK",
        "value": "20 ppm",
        "links": [],
        "cross_references": []
      },
      "idlh_niosh": {
        "original_name": "IDLH (NIOSH)",
        "value": "1500 ppm",
        "links": [],
        "cross_references": []
      },
      "excerpts_from_documentation_for_idlhs": {
        "original_name": "Excerpts from Documentation for IDLHs",
        "value": "Exposures of 200 to 300 ppm cause slight irritation of the eyes and nose, and short exposures to 3,300 ppm cause extreme irritation of the eyes and nose [ILO 1983].",
        "links": [],
        "cross_references": [
          {
            "type": "name_match",
            "text": "ht",
            "confidence": 1.0,
            "uuid": "764df367-8d53-4a11-81a2-31ccfe122a8d",
            "name": "HT",
            "url": "https://haz-map.com/Agents/2168",
            "category": "agents"
          }
        ]
      },
      "vapor_pressure": {
        "original_name": "Vapor Pressure",
        "value": "47 mm Hg",
        "links": [],
        "cross_references": []
      },
      "odor_threshold_low": {
        "original_name": "Odor Threshold Low",
        "value": "4 ppm",
        "links": [],
        "cross_references": []
      },
      "odor_threshold_high": {
        "original_name": "Odor Threshold High",
        "value": "47 ppm",
        "links": [],
        "cross_references": []
      },
      "explanatory_notes": {
        "original_name": "Explanatory Notes",
        "value": "IDLH = 10% LEL (lower explosive limit); Odor threshold from \"Quick Guide: The Electronic NIOSH Pocket Guide to Chemical Hazards\"; Flash point = 72 deg F; VP from HSDB;",
        "links": [],
        "cross_references": [
          {
            "type": "name_match",
            "text": "mica",
            "confidence": 1.0,
            "uuid": "433f26f1-c399-4596-b179-ce3843cfd465",
            "name": "Mica",
            "url": "https://haz-map.com/Agents/621",
            "category": "agents"
          },
          {
            "type": "name_match",
            "text": "ash",
            "confidence": 1.0,
            "uuid": "68b360f1-5ad0-4337-bea0-d7adca2961b5",
            "name": "Ash",
            "url": "https://haz-map.com/Agents/965",
            "category": "agents"
          }
        ]
      }
    },
    "adverse_effects": {
      "neurotoxin": {
        "original_name": "Neurotoxin",
        "value": "Acute solvent syndrome",
        "links": [],
        "cross_references": []
      },
      "hepatotoxin": {
        "original_name": "Hepatotoxin",
        "value": "Hepatoxic (a) from occupational exposure (secondary effect) or (b) in animal studies or in humans after ingestion",
        "links": [],
        "cross_references": []
      }
    },
    "diseases_processes_and_activities_linked_to_this_agent": {
      "diseases": {
        "original_name": "Diseases",
        "value": "Occupational diseases associated with exposure to this agent: Encephalopathy, chronic solvent Solvents, acute toxic effect",
        "links": [
          {
            "text": "Encephalopathy, chronic solvent",
            "url": "https://haz-map.com/Diseases/325"
          },
          {
            "text": "Solvents, acute toxic effect",
            "url": "https://haz-map.com/Diseases/326"
          }
        ],
        "cross_references": [
          {
            "type": "url_match",
            "text": "Encephalopathy, chronic solvent",
            "url": "https://haz-map.com/Diseases/325",
            "confidence": 1.0,
            "uuid": "589ad578-4636-444e-8823-bf2dd0c7aeab",
            "name": "Encephalopathy, chronic solvent",
            "category": "diseases"
          },
          {
            "type": "url_match",
            "text": "Solvents, acute toxic effect",
            "url": "https://haz-map.com/Diseases/326",
            "confidence": 1.0,
            "uuid": "581e90e3-9d0c-45f0-aa6c-3468c28da129",
            "name": "Solvents, acute toxic effect",
            "category": "diseases"
          }
        ]
      },
      "processes": {
        "original_name": "Processes",
        "value": "Industrial Processes with risk of exposure: Painting (Solvents) Textiles (Printing, Dyeing, or Finishing)",
        "links": [
          {
            "text": "Painting (Solvents)",
            "url": "https://haz-map.com/Processes/142"
          },
          {
            "text": "Textiles (Printing, Dyeing, or Finishing)",
            "url": "https://haz-map.com/Processes/235"
          }
        ],
        "cross_references": [
          {
            "type": "url_match",
            "text": "Painting (Solvents)",
            "url": "https://haz-map.com/Processes/142",
            "confidence": 1.0,
            "uuid": "ca747481-4da1-4550-a546-f0d43a41b46c",
            "name": "Painting (Solvents)",
            "category": "processes"
          },
          {
            "type": "name_match",
            "text": "painting",
            "confidence": 1.0,
            "uuid": "19816ce9-9edf-4a86-8e64-b0cbf7dcf520",
            "name": "Painting",
            "url": "https://haz-map.com/Activities/9",
            "category": "activities"
          }
        ]
      }
    }
  },
  "cross_references": [
    {
      "type": "url_match",
      "text": "Encephalopathy, chronic solvent",
      "url": "https://haz-map.com/Diseases/325",
      "confidence": 1.0,
      "uuid": "589ad578-4636-444e-8823-bf2dd0c7aeab",
      "name": "Encephalopathy, chronic solvent",
      "category": "diseases"
    },
    {
      "type": "url_match",
      "text": "Solvents, acute toxic effect",
      "url": "https://haz-map.com/Diseases/326",
      "confidence": 1.0,
      "uuid": "581e90e3-9d0c-45f0-aa6c-3468c28da129",
      "name": "Solvents, acute toxic effect",
      "category": "diseases"
    },
    {
      "type": "url_match",
      "text": "Painting (Solvents)",
      "url": "https://haz-map.com/Processes/142",
      "confidence": 1.0,
      "uuid": "ca747481-4da1-4550-a546-f0d43a41b46c",
      "name": "Painting (Solvents)",
      "category": "processes"
    },
    {
      "type": "name_match",
      "text": "painting",
      "confidence": 1.0,
      "uuid": "19816ce9-9edf-4a86-8e64-b0cbf7dcf520",
      "name": "Painting",
      "url": "https://haz-map.com/Activities/9",
      "category": "activities"
    },
    {
      "type": "name_match",
      "text": "lead",
      "confidence": 1.0,
      "uuid": "24246eba-13d7-456a-a142-ceae0f1df43f",
      "name": "Lead",
      "url": "https://haz-map.com/Agents/10",
      "category": "agents"
    },
    {
      "type": "name_match",
      "text": "acetic acid",
      "confidence": 1.0,
      "uuid": "0905c6e4-df84-4895-a92d-658819239bbd",
      "name": "Acetic acid",
      "url": "https://haz-map.com/Agents/207",
      "category": "agents"
    },
    {
      "type": "name_match",
      "text": "tert-butyl acetate",
      "confidence": 1.0,
      "uuid": "2c21f028-8502-4a61-9e46-a6c0f46322ad",
      "name": "tert-Butyl acetate",
      "url": "https://haz-map.com/Agents/323",
      "category": "agents"
    },
    {
      "type": "name_match",
      "text": "gasoline",
      "confidence": 1.0,
      "uuid": "af15c833-3eae-46c5-9af4-2214858d7282",
      "name": "Gasoline",
      "url": "https://haz-map.com/Agents/410",
      "category": "agents"
    },
    {
      "type": "name_match",
      "text": "methyl acetate",
      "confidence": 1.0,
      "uuid": "f2a7b2a2-ae53-479d-a6d7-3d6afb31799f",
      "name": "Methyl acetate",
      "url": "https://haz-map.com/Agents/546",
      "category": "agents"
    },
    {
      "type": "name_match",
      "text": "mica",
      "confidence": 1.0,
      "uuid": "433f26f1-c399-4596-b179-ce3843cfd465",
      "name": "Mica",
      "url": "https://haz-map.com/Agents/621",
      "category": "agents"
    },
    {
      "type": "name_match",
      "text": "ethyl acetate",
      "confidence": 1.0,
      "uuid": "ed41957a-17a2-415b-87b5-5893e3fa08ad",
      "name": "Ethyl acetate",
      "url": "https://haz-map.com/Agents/721",
      "category": "agents"
    },
    {
      "type": "name_match",
      "text": "ash",
      "confidence": 1.0,
      "uuid": "68b360f1-5ad0-4337-bea0-d7adca2961b5",
      "name": "Ash",
      "url": "https://haz-map.com/Agents/965",
      "category": "agents"
    },
    {
      "type": "name_match",
      "text": "ht",
      "confidence": 1.0,
      "uuid": "764df367-8d53-4a11-81a2-31ccfe122a8d",
      "name": "HT",
      "url": "https://haz-map.com/Agents/2168",
      "category": "agents"
    }
  ],
  "all_links": [
    {
      "text": "NIOSH Occupational Health Guidelines for Chemical Hazards: tert-Butyl acetate",
      "url": "https://www.cdc.gov/niosh/docs/81-123/pdfs/0074-rev.pdf?id=10.26616/NIOSHPUB81123"
    },
    {
      "text": "Search PubMed",
      "url": "https://www.ncbi.nlm.nih.gov/pubmed?term=tert-Butyl+acetate%20AND%20human%5Bmh%5D%20AND%20%28Occupational%20Diseases%20%5Bmh%5D%20OR%20Occupational%20Exposure%20%5Bmh%5D%29%20%20AND%20%28tox%5Bsb%5D%29&cmd=search"
    },
    {
      "text": "Encephalopathy, chronic solvent",
      "url": "https://haz-map.com/Diseases/325"
    },
    {
      "text": "Solvents, acute toxic effect",
      "url": "https://haz-map.com/Diseases/326"
    },
    {
      "text": "Painting (Solvents)",
      "url": "https://haz-map.com/Processes/142"
    },
    {
      "text": "Textiles (Printing, Dyeing, or Finishing)",
      "url": "https://haz-map.com/Processes/235"
    }
  ]
}