{
  "metadata": {
    "scraped_from": "https://haz-map.com/Agents/9916",
    "entity_name": "1,2-Dimethyl-1H-indole",
    "category": "agents",
    "uuid": "2d9af307-99cd-428b-91c3-f3c4e36336e3",
    "scraped_at": "2025-07-23T20:43:00.420186"
  },
  "parsed_at": "2025-07-24T01:11:52.548627",
  "title": "1,2-Dimethyl-1H-indole",
  "sections": {
    "general": {
      "agent_name": {
        "original_name": "Agent Name",
        "value": "1,2-Dimethyl-1H-indole",
        "links": [],
        "cross_references": [
          {
            "type": "name_match",
            "text": "indole",
            "confidence": 1.0,
            "uuid": "9c93731a-de8c-47f7-94f9-bfba35edd847",
            "name": "Indole",
            "url": "https://haz-map.com/Agents/5628",
            "category": "agents"
          },
          {
            "type": "name_match",
            "text": "1,2-dimethyl-1h-indole",
            "confidence": 1.0,
            "uuid": "2d9af307-99cd-428b-91c3-f3c4e36336e3",
            "name": "1,2-Dimethyl-1H-indole",
            "url": "https://haz-map.com/Agents/9916",
            "category": "agents"
          }
        ]
      },
      "cas_number": {
        "original_name": "CAS Number",
        "value": "875-79-6",
        "links": [],
        "cross_references": []
      },
      "formula": {
        "original_name": "Formula",
        "value": "C10-H11-N",
        "links": [],
        "cross_references": []
      },
      "major_category": {
        "original_name": "Major Category",
        "value": "Nitrogen Compounds",
        "links": [],
        "cross_references": [
          {
            "type": "name_match",
            "text": "nitrogen",
            "confidence": 1.0,
            "uuid": "db5e90a9-06d2-45b9-8b81-f345a89b0bc0",
            "name": "Nitrogen",
            "url": "https://haz-map.com/Agents/1072",
            "category": "agents"
          }
        ]
      },
      "synonyms": {
        "original_name": "Synonyms",
        "value": "N-Methyl-2-methylindole; 1H-Indole, 1,2-dimethyl- (9CI); Indole, 1,2-dimethyl- (8CI); [ChemIDplus] 1,2-Dimethylindole; [TCI America MSDS]",
        "links": [],
        "cross_references": [
          {
            "type": "name_match",
            "text": "indole",
            "confidence": 1.0,
            "uuid": "9c93731a-de8c-47f7-94f9-bfba35edd847",
            "name": "Indole",
            "url": "https://haz-map.com/Agents/5628",
            "category": "agents"
          },
          {
            "type": "name_match",
            "text": "2-methylindole",
            "confidence": 1.0,
            "uuid": "fd2d8a51-201e-4d09-8bf5-581fc9bd42a0",
            "name": "2-Methylindole",
            "url": "https://haz-map.com/Agents/10918",
            "category": "agents"
          }
        ]
      },
      "category": {
        "original_name": "Category",
        "value": "Indoles",
        "links": [],
        "cross_references": [
          {
            "type": "name_match",
            "text": "indole",
            "confidence": 1.0,
            "uuid": "9c93731a-de8c-47f7-94f9-bfba35edd847",
            "name": "Indole",
            "url": "https://haz-map.com/Agents/5628",
            "category": "agents"
          }
        ]
      },
      "description": {
        "original_name": "Description",
        "value": "Light yellow crystalline powder; [TCI America MSDS]",
        "links": [],
        "cross_references": [
          {
            "type": "name_match",
            "text": "ht",
            "confidence": 1.0,
            "uuid": "764df367-8d53-4a11-81a2-31ccfe122a8d",
            "name": "HT",
            "url": "https://haz-map.com/Agents/2168",
            "category": "agents"
          },
          {
            "type": "fuzzy_match",
            "text": "crystalline",
            "matched_name": "Silica, crystalline",
            "confidence": 0.7061403508771931,
            "uuid": "f920e8a2-46df-41b7-af8d-0368a777251e",
            "category": "agents",
            "url": "https://haz-map.com/Agents/427"
          }
        ]
      },
      "comments": {
        "original_name": "Comments",
        "value": "May cause irritation; [TCI America MSDS] See \"3-Methylindole.\"",
        "links": [],
        "cross_references": [
          {
            "type": "name_match",
            "text": "3-methylindole",
            "confidence": 1.0,
            "uuid": "9ef59a50-8de5-42d1-bed3-ffd13c254ab9",
            "name": "3-Methylindole",
            "url": "https://haz-map.com/Agents/3241",
            "category": "agents"
          },
          {
            "type": "name_match",
            "text": "indole",
            "confidence": 1.0,
            "uuid": "9c93731a-de8c-47f7-94f9-bfba35edd847",
            "name": "Indole",
            "url": "https://haz-map.com/Agents/5628",
            "category": "agents"
          }
        ]
      },
      "biomedical_references": {
        "original_name": "Biomedical References",
        "value": "Search PubMed",
        "links": [
          {
            "text": "Search PubMed",
            "url": "https://www.ncbi.nlm.nih.gov/pubmed?term=1%2c2-Dimethyl-1H-indole%20AND%20human%5Bmh%5D%20AND%20%28Occupational%20Diseases%20%5Bmh%5D%20OR%20Occupational%20Exposure%20%5Bmh%5D%29%20%20AND%20%28tox%5Bsb%5D%29&cmd=search"
          }
        ],
        "cross_references": []
      }
    },
    "exposure_assessment": {
      "vapor_pressure": {
        "original_name": "Vapor Pressure",
        "value": "0.014 mm Hg",
        "links": [],
        "cross_references": []
      }
    },
    "diseases_processes_and_activities_linked_to_this_agent": {
      "other_information": {
        "original_name": "Other Information",
        "value": "No other related information on this agent was found.",
        "links": [],
        "cross_references": []
      }
    }
  },
  "cross_references": [
    {
      "type": "name_match",
      "text": "nitrogen",
      "confidence": 1.0,
      "uuid": "db5e90a9-06d2-45b9-8b81-f345a89b0bc0",
      "name": "Nitrogen",
      "url": "https://haz-map.com/Agents/1072",
      "category": "agents"
    },
    {
      "type": "name_match",
      "text": "ht",
      "confidence": 1.0,
      "uuid": "764df367-8d53-4a11-81a2-31ccfe122a8d",
      "name": "HT",
      "url": "https://haz-map.com/Agents/2168",
      "category": "agents"
    },
    {
      "type": "name_match",
      "text": "3-methylindole",
      "confidence": 1.0,
      "uuid": "9ef59a50-8de5-42d1-bed3-ffd13c254ab9",
      "name": "3-Methylindole",
      "url": "https://haz-map.com/Agents/3241",
      "category": "agents"
    },
    {
      "type": "name_match",
      "text": "indole",
      "confidence": 1.0,
      "uuid": "9c93731a-de8c-47f7-94f9-bfba35edd847",
      "name": "Indole",
      "url": "https://haz-map.com/Agents/5628",
      "category": "agents"
    },
    {
      "type": "name_match",
      "text": "1,2-dimethyl-1h-indole",
      "confidence": 1.0,
      "uuid": "2d9af307-99cd-428b-91c3-f3c4e36336e3",
      "name": "1,2-Dimethyl-1H-indole",
      "url": "https://haz-map.com/Agents/9916",
      "category": "agents"
    },
    {
      "type": "name_match",
      "text": "2-methylindole",
      "confidence": 1.0,
      "uuid": "fd2d8a51-201e-4d09-8bf5-581fc9bd42a0",
      "name": "2-Methylindole",
      "url": "https://haz-map.com/Agents/10918",
      "category": "agents"
    },
    {
      "type": "fuzzy_match",
      "text": "crystalline",
      "matched_name": "Silica, crystalline",
      "confidence": 0.7061403508771931,
      "uuid": "f920e8a2-46df-41b7-af8d-0368a777251e",
      "category": "agents",
      "url": "https://haz-map.com/Agents/427"
    }
  ],
  "all_links": [
    {
      "text": "Search PubMed",
      "url": "https://www.ncbi.nlm.nih.gov/pubmed?term=1%2c2-Dimethyl-1H-indole%20AND%20human%5Bmh%5D%20AND%20%28Occupational%20Diseases%20%5Bmh%5D%20OR%20Occupational%20Exposure%20%5Bmh%5D%29%20%20AND%20%28tox%5Bsb%5D%29&cmd=search"
    }
  ]
}