{
  "metadata": {
    "scraped_from": "https://haz-map.com/Agents/4833",
    "entity_name": "Diethylene glycol, dibenzoate",
    "category": "agents",
    "uuid": "2e80883e-d44a-4cb9-8f60-9ba6dee58cb7",
    "scraped_at": "2025-07-23T19:45:23.821121"
  },
  "parsed_at": "2025-07-24T01:02:18.225167",
  "title": "Diethylene glycol, dibenzoate",
  "sections": {
    "general": {
      "agent_name": {
        "original_name": "Agent Name",
        "value": "Diethylene glycol, dibenzoate",
        "links": [],
        "cross_references": [
          {
            "type": "name_match",
            "text": "ethylene glycol",
            "confidence": 1.0,
            "uuid": "99589035-d71c-415a-914c-81c7a166be11",
            "name": "Ethylene glycol",
            "url": "https://haz-map.com/Agents/488",
            "category": "agents"
          },
          {
            "type": "name_match",
            "text": "ethylene",
            "confidence": 1.0,
            "uuid": "958eacc0-5135-4b62-bb93-6df972bf552f",
            "name": "Ethylene",
            "url": "https://haz-map.com/Agents/1076",
            "category": "agents"
          },
          {
            "type": "name_match",
            "text": "diethylene glycol",
            "confidence": 1.0,
            "uuid": "6a4c1b24-9807-4ecf-8a5d-d23b7df4b859",
            "name": "Diethylene glycol",
            "url": "https://haz-map.com/Agents/4829",
            "category": "agents"
          },
          {
            "type": "name_match",
            "text": "diethylene glycol, dibenzoate",
            "confidence": 1.0,
            "uuid": "2e80883e-d44a-4cb9-8f60-9ba6dee58cb7",
            "name": "Diethylene glycol, dibenzoate",
            "url": "https://haz-map.com/Agents/4833",
            "category": "agents"
          }
        ]
      },
      "cas_number": {
        "original_name": "CAS Number",
        "value": "120-55-8",
        "links": [],
        "cross_references": []
      },
      "formula": {
        "original_name": "Formula",
        "value": "C18-H18-O5",
        "links": [],
        "cross_references": []
      },
      "major_category": {
        "original_name": "Major Category",
        "value": "Other Classes",
        "links": [],
        "cross_references": []
      },
      "synonyms": {
        "original_name": "Synonyms",
        "value": "Polyethylene glycol 100 dibenzoate; Polyoxyethylene (2) dibenzoate; Benzo Flex 2-45; Benzoic acid, diester with diethylene glycol; Benzoyloxyethoxyethyl benzoate; Dibenzoyldiethyleneglycol ester; Ethanol, 2,2'-oxybis-, dibenzoate; [ChemIDplus]",
        "links": [],
        "cross_references": [
          {
            "type": "name_match",
            "text": "ethylene glycol",
            "confidence": 1.0,
            "uuid": "99589035-d71c-415a-914c-81c7a166be11",
            "name": "Ethylene glycol",
            "url": "https://haz-map.com/Agents/488",
            "category": "agents"
          },
          {
            "type": "name_match",
            "text": "polyethylene",
            "confidence": 1.0,
            "uuid": "49cd0ad9-abe0-4650-bb5b-a2e2e68f0cae",
            "name": "Polyethylene",
            "url": "https://haz-map.com/Agents/850",
            "category": "agents"
          },
          {
            "type": "name_match",
            "text": "ethylene",
            "confidence": 1.0,
            "uuid": "958eacc0-5135-4b62-bb93-6df972bf552f",
            "name": "Ethylene",
            "url": "https://haz-map.com/Agents/1076",
            "category": "agents"
          },
          {
            "type": "name_match",
            "text": "benzoic acid",
            "confidence": 1.0,
            "uuid": "d2c5d3be-d826-4f55-bc32-7b16821aef40",
            "name": "Benzoic acid",
            "url": "https://haz-map.com/Agents/1883",
            "category": "agents"
          },
          {
            "type": "name_match",
            "text": "diethylene glycol",
            "confidence": 1.0,
            "uuid": "6a4c1b24-9807-4ecf-8a5d-d23b7df4b859",
            "name": "Diethylene glycol",
            "url": "https://haz-map.com/Agents/4829",
            "category": "agents"
          },
          {
            "type": "name_match",
            "text": "polyethylene glycol",
            "confidence": 1.0,
            "uuid": "f5b55322-38d4-428d-93e6-34611f9fedce",
            "name": "Polyethylene glycol",
            "url": "https://haz-map.com/Agents/6752",
            "category": "agents"
          },
          {
            "type": "name_match",
            "text": "ethyl benzoate",
            "confidence": 1.0,
            "uuid": "e803e9e1-d2ac-42a3-b0f0-6816d0438ef5",
            "name": "Ethyl benzoate",
            "url": "https://haz-map.com/Agents/8255",
            "category": "agents"
          }
        ]
      },
      "category": {
        "original_name": "Category",
        "value": "Ethylene Glycols",
        "links": [],
        "cross_references": [
          {
            "type": "name_match",
            "text": "ethylene glycol",
            "confidence": 1.0,
            "uuid": "99589035-d71c-415a-914c-81c7a166be11",
            "name": "Ethylene glycol",
            "url": "https://haz-map.com/Agents/488",
            "category": "agents"
          },
          {
            "type": "name_match",
            "text": "ethylene",
            "confidence": 1.0,
            "uuid": "958eacc0-5135-4b62-bb93-6df972bf552f",
            "name": "Ethylene",
            "url": "https://haz-map.com/Agents/1076",
            "category": "agents"
          }
        ]
      },
      "description": {
        "original_name": "Description",
        "value": "Liquid; [Hawley] Solid; mp = 28 deg C; [ICSC] Liquid; mp = -28 deg C; [HSDB] 89.9% Diethylene glycol, dibenzoate freezing point = 24 deg C; [eChemPortal: HPVIS] Colorless to straw-colored viscous liquid; mp ~ 16 deg C; [MSDSonline]",
        "links": [],
        "cross_references": [
          {
            "type": "name_match",
            "text": "ethylene glycol",
            "confidence": 1.0,
            "uuid": "99589035-d71c-415a-914c-81c7a166be11",
            "name": "Ethylene glycol",
            "url": "https://haz-map.com/Agents/488",
            "category": "agents"
          },
          {
            "type": "name_match",
            "text": "ethylene",
            "confidence": 1.0,
            "uuid": "958eacc0-5135-4b62-bb93-6df972bf552f",
            "name": "Ethylene",
            "url": "https://haz-map.com/Agents/1076",
            "category": "agents"
          },
          {
            "type": "name_match",
            "text": "diethylene glycol",
            "confidence": 1.0,
            "uuid": "6a4c1b24-9807-4ecf-8a5d-d23b7df4b859",
            "name": "Diethylene glycol",
            "url": "https://haz-map.com/Agents/4829",
            "category": "agents"
          },
          {
            "type": "name_match",
            "text": "diethylene glycol, dibenzoate",
            "confidence": 1.0,
            "uuid": "2e80883e-d44a-4cb9-8f60-9ba6dee58cb7",
            "name": "Diethylene glycol, dibenzoate",
            "url": "https://haz-map.com/Agents/4833",
            "category": "agents"
          }
        ]
      },
      "sourcesuses": {
        "original_name": "Sources/Uses",
        "value": "Used as plasticizer for resins (cellulose acetate butyrate, polyvinyl acetate, cellulose nitrate, ethyl cellulose, and polymethyl methacrylate) and a stabilizer for perfumes; [HSDB]",
        "links": [],
        "cross_references": [
          {
            "type": "name_match",
            "text": "methyl methacrylate",
            "confidence": 1.0,
            "uuid": "2199439b-5703-45e3-97fa-22fd2d480eb9",
            "name": "Methyl methacrylate",
            "url": "https://haz-map.com/Agents/216",
            "category": "agents"
          },
          {
            "type": "name_match",
            "text": "cellulose",
            "confidence": 1.0,
            "uuid": "b9b1b190-806c-4622-8201-8f09b0a87eca",
            "name": "Cellulose",
            "url": "https://haz-map.com/Agents/347",
            "category": "agents"
          },
          {
            "type": "name_match",
            "text": "vinyl acetate",
            "confidence": 1.0,
            "uuid": "c1e2753d-7115-492f-a7fd-82ffdfa83280",
            "name": "Vinyl acetate",
            "url": "https://haz-map.com/Agents/755",
            "category": "agents"
          },
          {
            "type": "name_match",
            "text": "ethyl methacrylate",
            "confidence": 1.0,
            "uuid": "c6fffbc1-19c8-4d59-a80f-43c99fc33e11",
            "name": "Ethyl methacrylate",
            "url": "https://haz-map.com/Agents/825",
            "category": "agents"
          },
          {
            "type": "name_match",
            "text": "cellulose acetate",
            "confidence": 1.0,
            "uuid": "49569e1f-799a-41c1-89b6-2457a776e513",
            "name": "Cellulose acetate",
            "url": "https://haz-map.com/Agents/4251",
            "category": "agents"
          },
          {
            "type": "name_match",
            "text": "polyvinyl acetate",
            "confidence": 1.0,
            "uuid": "eeb5ec2c-83d7-43e9-8380-f81c8023871f",
            "name": "Polyvinyl acetate",
            "url": "https://haz-map.com/Agents/6769",
            "category": "agents"
          },
          {
            "type": "name_match",
            "text": "ethyl cellulose",
            "confidence": 1.0,
            "uuid": "b3245a3e-f347-440d-8981-e7c57a38f238",
            "name": "Ethyl cellulose",
            "url": "https://haz-map.com/Agents/8356",
            "category": "agents"
          },
          {
            "type": "name_match",
            "text": "cellulose acetate butyrate",
            "confidence": 1.0,
            "uuid": "84fa751e-0a0e-4c60-9cc7-292c0340b5cb",
            "name": "Cellulose acetate butyrate",
            "url": "https://haz-map.com/Agents/12801",
            "category": "agents"
          }
        ]
      },
      "comments": {
        "original_name": "Comments",
        "value": "In oral lethal dose studies of rats, causes convulsions and other changes to the liver; [RTECS] A mild skin and eye irritant; [ICSC] See \"GLYCOL ETHERS.\"",
        "links": [],
        "cross_references": [
          {
            "type": "name_match",
            "text": "convulsion",
            "confidence": 1.0,
            "uuid": "af2c36f8-707a-48e3-a62b-1aa07adc9b72",
            "name": "convulsion",
            "url": "https://haz-map.com/Findings/14",
            "category": "findings"
          },
          {
            "type": "name_match",
            "text": "glycol ethers",
            "confidence": 1.0,
            "uuid": "753cf9f5-dc59-44ba-9fd6-38aca4a3cdac",
            "name": "GLYCOL ETHERS",
            "url": "https://haz-map.com/Agents/688",
            "category": "agents"
          }
        ]
      },
      "biomedical_references": {
        "original_name": "Biomedical References",
        "value": "Search PubMed",
        "links": [
          {
            "text": "Search PubMed",
            "url": "https://www.ncbi.nlm.nih.gov/pubmed?term=Diethylene+glycol%2c+dibenzoate%20AND%20human%5Bmh%5D%20AND%20%28Occupational%20Diseases%20%5Bmh%5D%20OR%20Occupational%20Exposure%20%5Bmh%5D%29%20%20AND%20%28tox%5Bsb%5D%29&cmd=search"
          }
        ],
        "cross_references": []
      }
    },
    "exposure_assessment": {
      "vapor_pressure": {
        "original_name": "Vapor Pressure",
        "value": "0.096 mm Hg",
        "links": [],
        "cross_references": []
      },
      "explanatory_notes": {
        "original_name": "Explanatory Notes",
        "value": "VP from ChemIDplus;",
        "links": [],
        "cross_references": []
      },
      "nfpa": {
        "original_name": "NFPA",
        "value": "must be preheated",
        "links": [],
        "cross_references": []
      }
    },
    "adverse_effects": {
      "neurotoxin": {
        "original_name": "Neurotoxin",
        "value": "Other CNS neurotoxin",
        "links": [],
        "cross_references": []
      }
    },
    "diseases_processes_and_activities_linked_to_this_agent": {
      "other_information": {
        "original_name": "Other Information",
        "value": "No other related information on this agent was found.",
        "links": [],
        "cross_references": []
      }
    }
  },
  "cross_references": [
    {
      "type": "name_match",
      "text": "convulsion",
      "confidence": 1.0,
      "uuid": "af2c36f8-707a-48e3-a62b-1aa07adc9b72",
      "name": "convulsion",
      "url": "https://haz-map.com/Findings/14",
      "category": "findings"
    },
    {
      "type": "name_match",
      "text": "methyl methacrylate",
      "confidence": 1.0,
      "uuid": "2199439b-5703-45e3-97fa-22fd2d480eb9",
      "name": "Methyl methacrylate",
      "url": "https://haz-map.com/Agents/216",
      "category": "agents"
    },
    {
      "type": "name_match",
      "text": "cellulose",
      "confidence": 1.0,
      "uuid": "b9b1b190-806c-4622-8201-8f09b0a87eca",
      "name": "Cellulose",
      "url": "https://haz-map.com/Agents/347",
      "category": "agents"
    },
    {
      "type": "name_match",
      "text": "ethylene glycol",
      "confidence": 1.0,
      "uuid": "99589035-d71c-415a-914c-81c7a166be11",
      "name": "Ethylene glycol",
      "url": "https://haz-map.com/Agents/488",
      "category": "agents"
    },
    {
      "type": "name_match",
      "text": "glycol ethers",
      "confidence": 1.0,
      "uuid": "753cf9f5-dc59-44ba-9fd6-38aca4a3cdac",
      "name": "GLYCOL ETHERS",
      "url": "https://haz-map.com/Agents/688",
      "category": "agents"
    },
    {
      "type": "name_match",
      "text": "vinyl acetate",
      "confidence": 1.0,
      "uuid": "c1e2753d-7115-492f-a7fd-82ffdfa83280",
      "name": "Vinyl acetate",
      "url": "https://haz-map.com/Agents/755",
      "category": "agents"
    },
    {
      "type": "name_match",
      "text": "ethyl methacrylate",
      "confidence": 1.0,
      "uuid": "c6fffbc1-19c8-4d59-a80f-43c99fc33e11",
      "name": "Ethyl methacrylate",
      "url": "https://haz-map.com/Agents/825",
      "category": "agents"
    },
    {
      "type": "name_match",
      "text": "polyethylene",
      "confidence": 1.0,
      "uuid": "49cd0ad9-abe0-4650-bb5b-a2e2e68f0cae",
      "name": "Polyethylene",
      "url": "https://haz-map.com/Agents/850",
      "category": "agents"
    },
    {
      "type": "name_match",
      "text": "ethylene",
      "confidence": 1.0,
      "uuid": "958eacc0-5135-4b62-bb93-6df972bf552f",
      "name": "Ethylene",
      "url": "https://haz-map.com/Agents/1076",
      "category": "agents"
    },
    {
      "type": "name_match",
      "text": "benzoic acid",
      "confidence": 1.0,
      "uuid": "d2c5d3be-d826-4f55-bc32-7b16821aef40",
      "name": "Benzoic acid",
      "url": "https://haz-map.com/Agents/1883",
      "category": "agents"
    },
    {
      "type": "name_match",
      "text": "cellulose acetate",
      "confidence": 1.0,
      "uuid": "49569e1f-799a-41c1-89b6-2457a776e513",
      "name": "Cellulose acetate",
      "url": "https://haz-map.com/Agents/4251",
      "category": "agents"
    },
    {
      "type": "name_match",
      "text": "diethylene glycol",
      "confidence": 1.0,
      "uuid": "6a4c1b24-9807-4ecf-8a5d-d23b7df4b859",
      "name": "Diethylene glycol",
      "url": "https://haz-map.com/Agents/4829",
      "category": "agents"
    },
    {
      "type": "name_match",
      "text": "diethylene glycol, dibenzoate",
      "confidence": 1.0,
      "uuid": "2e80883e-d44a-4cb9-8f60-9ba6dee58cb7",
      "name": "Diethylene glycol, dibenzoate",
      "url": "https://haz-map.com/Agents/4833",
      "category": "agents"
    },
    {
      "type": "name_match",
      "text": "polyethylene glycol",
      "confidence": 1.0,
      "uuid": "f5b55322-38d4-428d-93e6-34611f9fedce",
      "name": "Polyethylene glycol",
      "url": "https://haz-map.com/Agents/6752",
      "category": "agents"
    },
    {
      "type": "name_match",
      "text": "polyvinyl acetate",
      "confidence": 1.0,
      "uuid": "eeb5ec2c-83d7-43e9-8380-f81c8023871f",
      "name": "Polyvinyl acetate",
      "url": "https://haz-map.com/Agents/6769",
      "category": "agents"
    },
    {
      "type": "name_match",
      "text": "ethyl benzoate",
      "confidence": 1.0,
      "uuid": "e803e9e1-d2ac-42a3-b0f0-6816d0438ef5",
      "name": "Ethyl benzoate",
      "url": "https://haz-map.com/Agents/8255",
      "category": "agents"
    },
    {
      "type": "name_match",
      "text": "ethyl cellulose",
      "confidence": 1.0,
      "uuid": "b3245a3e-f347-440d-8981-e7c57a38f238",
      "name": "Ethyl cellulose",
      "url": "https://haz-map.com/Agents/8356",
      "category": "agents"
    },
    {
      "type": "name_match",
      "text": "cellulose acetate butyrate",
      "confidence": 1.0,
      "uuid": "84fa751e-0a0e-4c60-9cc7-292c0340b5cb",
      "name": "Cellulose acetate butyrate",
      "url": "https://haz-map.com/Agents/12801",
      "category": "agents"
    }
  ],
  "all_links": [
    {
      "text": "Search PubMed",
      "url": "https://www.ncbi.nlm.nih.gov/pubmed?term=Diethylene+glycol%2c+dibenzoate%20AND%20human%5Bmh%5D%20AND%20%28Occupational%20Diseases%20%5Bmh%5D%20OR%20Occupational%20Exposure%20%5Bmh%5D%29%20%20AND%20%28tox%5Bsb%5D%29&cmd=search"
    }
  ]
}