{
  "metadata": {
    "scraped_from": "https://haz-map.com/Agents/13384",
    "entity_name": "Isopropylcyclohexane",
    "category": "agents",
    "uuid": "2eb316c3-403f-401d-84a9-41b3d41479f9",
    "scraped_at": "2025-07-23T21:13:56.830915"
  },
  "parsed_at": "2025-07-24T01:14:30.480241",
  "title": "Isopropylcyclohexane",
  "sections": {
    "general": {
      "agent_name": {
        "original_name": "Agent Name",
        "value": "Isopropylcyclohexane",
        "links": [],
        "cross_references": [
          {
            "type": "name_match",
            "text": "cyclohexane",
            "confidence": 1.0,
            "uuid": "366fabd7-ac2f-461c-969f-62dfe3bf2377",
            "name": "Cyclohexane",
            "url": "https://haz-map.com/Agents/384",
            "category": "agents"
          },
          {
            "type": "name_match",
            "text": "isopropylcyclohexane",
            "confidence": 1.0,
            "uuid": "2eb316c3-403f-401d-84a9-41b3d41479f9",
            "name": "Isopropylcyclohexane",
            "url": "https://haz-map.com/Agents/13384",
            "category": "agents"
          },
          {
            "type": "name_match",
            "text": "propylcyclohexane",
            "confidence": 1.0,
            "uuid": "d67557b5-a4dd-482e-8d63-cdf85a4e74cb",
            "name": "Propylcyclohexane",
            "url": "https://haz-map.com/Agents/13444",
            "category": "agents"
          }
        ]
      },
      "cas_number": {
        "original_name": "CAS Number",
        "value": "696-29-7",
        "links": [],
        "cross_references": []
      },
      "formula": {
        "original_name": "Formula",
        "value": "C9-H18",
        "links": [],
        "cross_references": []
      },
      "major_category": {
        "original_name": "Major Category",
        "value": "Solvents",
        "links": [],
        "cross_references": []
      },
      "synonyms": {
        "original_name": "Synonyms",
        "value": "Hexahydrocumene; Normanthane; Cyclohexane, (1-methylethyl)-; Cyclohexane, isopropyl- (8CI); Iso-propylcyclohexane; [ChemIDplus] Isopropyl cyclohexane; 1-Methylethylcyclohexane; [CAMEO] 2-Cyclohexylpropane; [Sigma-Aldrich MSDS] UN3295",
        "links": [],
        "cross_references": [
          {
            "type": "name_match",
            "text": "cumene",
            "confidence": 1.0,
            "uuid": "c07cb302-9546-47b5-9666-ccdbe6b73ab4",
            "name": "Cumene",
            "url": "https://haz-map.com/Agents/380",
            "category": "agents"
          },
          {
            "type": "name_match",
            "text": "cyclohexane",
            "confidence": 1.0,
            "uuid": "366fabd7-ac2f-461c-969f-62dfe3bf2377",
            "name": "Cyclohexane",
            "url": "https://haz-map.com/Agents/384",
            "category": "agents"
          },
          {
            "type": "name_match",
            "text": "propane",
            "confidence": 1.0,
            "uuid": "563a611b-46ea-4bdc-b77b-17d8f7646283",
            "name": "Propane",
            "url": "https://haz-map.com/Agents/607",
            "category": "agents"
          },
          {
            "type": "name_match",
            "text": "ethylcyclohexane",
            "confidence": 1.0,
            "uuid": "69a79758-f136-47c2-86d8-130b138f4a83",
            "name": "Ethylcyclohexane",
            "url": "https://haz-map.com/Agents/8339",
            "category": "agents"
          },
          {
            "type": "name_match",
            "text": "propylcyclohexane",
            "confidence": 1.0,
            "uuid": "d67557b5-a4dd-482e-8d63-cdf85a4e74cb",
            "name": "Propylcyclohexane",
            "url": "https://haz-map.com/Agents/13444",
            "category": "agents"
          }
        ]
      },
      "category": {
        "original_name": "Category",
        "value": "Aliphatics, Saturated (<C12)",
        "links": [],
        "cross_references": []
      },
      "description": {
        "original_name": "Description",
        "value": "Colorless liquid; [CAMEO]",
        "links": [],
        "cross_references": []
      },
      "comments": {
        "original_name": "Comments",
        "value": "A skin, eye, nose, and throat irritant; Inhalation may cause dizziness, nausea, and loss of consciousness; [CHRIS] May cause irritation; An aspiration hazard by ingestion (may cause lung damage); [Sigma-Aldrich MSDS] See \"Cyclohexane.\"",
        "links": [],
        "cross_references": [
          {
            "type": "name_match",
            "text": "dizziness",
            "confidence": 1.0,
            "uuid": "4b0e6043-b228-49de-996c-b42ec8b3780e",
            "name": "dizziness",
            "url": "https://haz-map.com/Findings/16",
            "category": "findings"
          },
          {
            "type": "name_match",
            "text": "cyclohexane",
            "confidence": 1.0,
            "uuid": "366fabd7-ac2f-461c-969f-62dfe3bf2377",
            "name": "Cyclohexane",
            "url": "https://haz-map.com/Agents/384",
            "category": "agents"
          }
        ]
      },
      "biomedical_references": {
        "original_name": "Biomedical References",
        "value": "Search PubMed",
        "links": [
          {
            "text": "Search PubMed",
            "url": "https://www.ncbi.nlm.nih.gov/pubmed?term=Isopropylcyclohexane%20AND%20human%5Bmh%5D%20AND%20%28Occupational%20Diseases%20%5Bmh%5D%20OR%20Occupational%20Exposure%20%5Bmh%5D%29%20%20AND%20%28tox%5Bsb%5D%29&cmd=search"
          }
        ],
        "cross_references": []
      }
    },
    "exposure_assessment": {
      "vapor_pressure": {
        "original_name": "Vapor Pressure",
        "value": "4.8 mm Hg",
        "links": [],
        "cross_references": []
      },
      "explanatory_notes": {
        "original_name": "Explanatory Notes",
        "value": "The Guide in the Emergency Response Guidebook is for \"Hydrocarbons, liquid, n.o.s.\" VP from ChemIDplus;",
        "links": [],
        "cross_references": [
          {
            "type": "name_match",
            "text": "carbon",
            "confidence": 1.0,
            "uuid": "b53f8815-ee80-40ef-b4aa-3b000e17dab5",
            "name": "Carbon",
            "url": "https://haz-map.com/Agents/1891",
            "category": "agents"
          },
          {
            "type": "fuzzy_match",
            "text": "hydrocarbons",
            "matched_name": "Hydrocarbons, C>3",
            "confidence": 0.7100840336134454,
            "uuid": "8eaa37ac-3931-44e4-9242-2734127fd661",
            "category": "agents",
            "url": "https://haz-map.com/Agents/14795"
          }
        ]
      }
    },
    "adverse_effects": {
      "neurotoxin": {
        "original_name": "Neurotoxin",
        "value": "Acute solvent syndrome",
        "links": [],
        "cross_references": []
      }
    },
    "diseases_processes_and_activities_linked_to_this_agent": {
      "diseases": {
        "original_name": "Diseases",
        "value": "Occupational diseases associated with exposure to this agent: Solvents, acute toxic effect",
        "links": [
          {
            "text": "Solvents, acute toxic effect",
            "url": "https://haz-map.com/Diseases/326"
          }
        ],
        "cross_references": [
          {
            "type": "url_match",
            "text": "Solvents, acute toxic effect",
            "url": "https://haz-map.com/Diseases/326",
            "confidence": 1.0,
            "uuid": "581e90e3-9d0c-45f0-aa6c-3468c28da129",
            "name": "Solvents, acute toxic effect",
            "category": "diseases"
          }
        ]
      }
    }
  },
  "cross_references": [
    {
      "type": "url_match",
      "text": "Solvents, acute toxic effect",
      "url": "https://haz-map.com/Diseases/326",
      "confidence": 1.0,
      "uuid": "581e90e3-9d0c-45f0-aa6c-3468c28da129",
      "name": "Solvents, acute toxic effect",
      "category": "diseases"
    },
    {
      "type": "name_match",
      "text": "dizziness",
      "confidence": 1.0,
      "uuid": "4b0e6043-b228-49de-996c-b42ec8b3780e",
      "name": "dizziness",
      "url": "https://haz-map.com/Findings/16",
      "category": "findings"
    },
    {
      "type": "name_match",
      "text": "cumene",
      "confidence": 1.0,
      "uuid": "c07cb302-9546-47b5-9666-ccdbe6b73ab4",
      "name": "Cumene",
      "url": "https://haz-map.com/Agents/380",
      "category": "agents"
    },
    {
      "type": "name_match",
      "text": "cyclohexane",
      "confidence": 1.0,
      "uuid": "366fabd7-ac2f-461c-969f-62dfe3bf2377",
      "name": "Cyclohexane",
      "url": "https://haz-map.com/Agents/384",
      "category": "agents"
    },
    {
      "type": "name_match",
      "text": "propane",
      "confidence": 1.0,
      "uuid": "563a611b-46ea-4bdc-b77b-17d8f7646283",
      "name": "Propane",
      "url": "https://haz-map.com/Agents/607",
      "category": "agents"
    },
    {
      "type": "name_match",
      "text": "carbon",
      "confidence": 1.0,
      "uuid": "b53f8815-ee80-40ef-b4aa-3b000e17dab5",
      "name": "Carbon",
      "url": "https://haz-map.com/Agents/1891",
      "category": "agents"
    },
    {
      "type": "name_match",
      "text": "ethylcyclohexane",
      "confidence": 1.0,
      "uuid": "69a79758-f136-47c2-86d8-130b138f4a83",
      "name": "Ethylcyclohexane",
      "url": "https://haz-map.com/Agents/8339",
      "category": "agents"
    },
    {
      "type": "name_match",
      "text": "isopropylcyclohexane",
      "confidence": 1.0,
      "uuid": "2eb316c3-403f-401d-84a9-41b3d41479f9",
      "name": "Isopropylcyclohexane",
      "url": "https://haz-map.com/Agents/13384",
      "category": "agents"
    },
    {
      "type": "name_match",
      "text": "propylcyclohexane",
      "confidence": 1.0,
      "uuid": "d67557b5-a4dd-482e-8d63-cdf85a4e74cb",
      "name": "Propylcyclohexane",
      "url": "https://haz-map.com/Agents/13444",
      "category": "agents"
    },
    {
      "type": "fuzzy_match",
      "text": "hydrocarbons",
      "matched_name": "Hydrocarbons, C>3",
      "confidence": 0.7100840336134454,
      "uuid": "8eaa37ac-3931-44e4-9242-2734127fd661",
      "category": "agents",
      "url": "https://haz-map.com/Agents/14795"
    }
  ],
  "all_links": [
    {
      "text": "Search PubMed",
      "url": "https://www.ncbi.nlm.nih.gov/pubmed?term=Isopropylcyclohexane%20AND%20human%5Bmh%5D%20AND%20%28Occupational%20Diseases%20%5Bmh%5D%20OR%20Occupational%20Exposure%20%5Bmh%5D%29%20%20AND%20%28tox%5Bsb%5D%29&cmd=search"
    },
    {
      "text": "Solvents, acute toxic effect",
      "url": "https://haz-map.com/Diseases/326"
    }
  ]
}