{
  "metadata": {
    "scraped_from": "https://haz-map.com/Agents/8138",
    "entity_name": "4-Cyanophenol",
    "category": "agents",
    "uuid": "2efbf39e-5d1d-44ad-a1cd-7c475d524d25",
    "scraped_at": "2025-07-23T20:22:48.188245"
  },
  "parsed_at": "2025-07-24T00:56:00.552799",
  "title": "4-Cyanophenol",
  "sections": {
    "general": {
      "agent_name": {
        "original_name": "Agent Name",
        "value": "4-Cyanophenol",
        "links": [],
        "cross_references": [
          {
            "type": "name_match",
            "text": "phenol",
            "confidence": 1.0,
            "uuid": "03141a03-a7df-4f51-9a37-adde1a7c4b31",
            "name": "Phenol",
            "url": "https://haz-map.com/Agents/84",
            "category": "agents"
          },
          {
            "type": "name_match",
            "text": "4-cyanophenol",
            "confidence": 1.0,
            "uuid": "2efbf39e-5d1d-44ad-a1cd-7c475d524d25",
            "name": "4-Cyanophenol",
            "url": "https://haz-map.com/Agents/8138",
            "category": "agents"
          }
        ]
      },
      "cas_number": {
        "original_name": "CAS Number",
        "value": "767-00-0",
        "links": [],
        "cross_references": []
      },
      "formula": {
        "original_name": "Formula",
        "value": "C7-H5-N-O",
        "links": [],
        "cross_references": []
      },
      "major_category": {
        "original_name": "Major Category",
        "value": "Nitrogen Compounds",
        "links": [],
        "cross_references": [
          {
            "type": "name_match",
            "text": "nitrogen",
            "confidence": 1.0,
            "uuid": "db5e90a9-06d2-45b9-8b81-f345a89b0bc0",
            "name": "Nitrogen",
            "url": "https://haz-map.com/Agents/1072",
            "category": "agents"
          }
        ]
      },
      "synonyms": {
        "original_name": "Synonyms",
        "value": "4-Hydroxybenzonitrile; p-Cyanophenol; p-Hydroxybenzonitrile; Benzonitrile, 4-hydroxy-; Benzonitrile, p-hydroxy-; [ChemIDplus]",
        "links": [],
        "cross_references": [
          {
            "type": "name_match",
            "text": "phenol",
            "confidence": 1.0,
            "uuid": "03141a03-a7df-4f51-9a37-adde1a7c4b31",
            "name": "Phenol",
            "url": "https://haz-map.com/Agents/84",
            "category": "agents"
          },
          {
            "type": "name_match",
            "text": "benzonitrile",
            "confidence": 1.0,
            "uuid": "aa9c2a5f-3153-4fc9-85dc-410619ef96a4",
            "name": "Benzonitrile",
            "url": "https://haz-map.com/Agents/1378",
            "category": "agents"
          }
        ]
      },
      "category": {
        "original_name": "Category",
        "value": "Nitriles",
        "links": [],
        "cross_references": [
          {
            "type": "name_match",
            "text": "nitriles",
            "confidence": 1.0,
            "uuid": "41430895-c07a-4421-888b-3d7122a4cd55",
            "name": "NITRILES",
            "url": "https://haz-map.com/Agents/715",
            "category": "agents"
          }
        ]
      },
      "description": {
        "original_name": "Description",
        "value": "Mostly soluble in water (8.98 g/L at 25 deg C); [ChemIDplus] White crystalline chips; [MSDSonline]",
        "links": [],
        "cross_references": [
          {
            "type": "name_match",
            "text": "water",
            "confidence": 1.0,
            "uuid": "6f2a7557-dfd2-49bc-9b4b-a93cd8e225d4",
            "name": "Water",
            "url": "https://haz-map.com/Agents/18668",
            "category": "agents"
          },
          {
            "type": "fuzzy_match",
            "text": "crystalline",
            "matched_name": "Silica, crystalline",
            "confidence": 0.7061403508771931,
            "uuid": "f920e8a2-46df-41b7-af8d-0368a777251e",
            "category": "agents",
            "url": "https://haz-map.com/Agents/427"
          }
        ]
      },
      "sourcesuses": {
        "original_name": "Sources/Uses",
        "value": "Used in the production of herbicides; [Ullmann]",
        "links": [],
        "cross_references": [
          {
            "type": "name_match",
            "text": "herbicides",
            "confidence": 1.0,
            "uuid": "195f29ae-3f15-47c5-836d-0a9791db3fc1",
            "name": "HERBICIDES",
            "url": "https://haz-map.com/Agents/703",
            "category": "agents"
          }
        ]
      },
      "comments": {
        "original_name": "Comments",
        "value": "A skin and eye irritant; [eChemPortal: ERMA] An irritant; [MSDSonline] See \"NITRILES.\"",
        "links": [],
        "cross_references": [
          {
            "type": "name_match",
            "text": "nitriles",
            "confidence": 1.0,
            "uuid": "41430895-c07a-4421-888b-3d7122a4cd55",
            "name": "NITRILES",
            "url": "https://haz-map.com/Agents/715",
            "category": "agents"
          }
        ]
      },
      "biomedical_references": {
        "original_name": "Biomedical References",
        "value": "Search PubMed",
        "links": [
          {
            "text": "Search PubMed",
            "url": "https://www.ncbi.nlm.nih.gov/pubmed?term=4-Cyanophenol%20AND%20human%5Bmh%5D%20AND%20%28Occupational%20Diseases%20%5Bmh%5D%20OR%20Occupational%20Exposure%20%5Bmh%5D%29%20%20AND%20%28tox%5Bsb%5D%29&cmd=search"
          }
        ],
        "cross_references": []
      }
    },
    "exposure_assessment": {
      "vapor_pressure": {
        "original_name": "Vapor Pressure",
        "value": "0.00665 mm Hg",
        "links": [],
        "cross_references": []
      },
      "explanatory_notes": {
        "original_name": "Explanatory Notes",
        "value": "VP from ChemIDplus;",
        "links": [],
        "cross_references": []
      }
    },
    "diseases_processes_and_activities_linked_to_this_agent": {
      "other_information": {
        "original_name": "Other Information",
        "value": "No other related information on this agent was found.",
        "links": [],
        "cross_references": []
      }
    }
  },
  "cross_references": [
    {
      "type": "name_match",
      "text": "phenol",
      "confidence": 1.0,
      "uuid": "03141a03-a7df-4f51-9a37-adde1a7c4b31",
      "name": "Phenol",
      "url": "https://haz-map.com/Agents/84",
      "category": "agents"
    },
    {
      "type": "name_match",
      "text": "herbicides",
      "confidence": 1.0,
      "uuid": "195f29ae-3f15-47c5-836d-0a9791db3fc1",
      "name": "HERBICIDES",
      "url": "https://haz-map.com/Agents/703",
      "category": "agents"
    },
    {
      "type": "name_match",
      "text": "nitriles",
      "confidence": 1.0,
      "uuid": "41430895-c07a-4421-888b-3d7122a4cd55",
      "name": "NITRILES",
      "url": "https://haz-map.com/Agents/715",
      "category": "agents"
    },
    {
      "type": "name_match",
      "text": "nitrogen",
      "confidence": 1.0,
      "uuid": "db5e90a9-06d2-45b9-8b81-f345a89b0bc0",
      "name": "Nitrogen",
      "url": "https://haz-map.com/Agents/1072",
      "category": "agents"
    },
    {
      "type": "name_match",
      "text": "benzonitrile",
      "confidence": 1.0,
      "uuid": "aa9c2a5f-3153-4fc9-85dc-410619ef96a4",
      "name": "Benzonitrile",
      "url": "https://haz-map.com/Agents/1378",
      "category": "agents"
    },
    {
      "type": "name_match",
      "text": "4-cyanophenol",
      "confidence": 1.0,
      "uuid": "2efbf39e-5d1d-44ad-a1cd-7c475d524d25",
      "name": "4-Cyanophenol",
      "url": "https://haz-map.com/Agents/8138",
      "category": "agents"
    },
    {
      "type": "name_match",
      "text": "water",
      "confidence": 1.0,
      "uuid": "6f2a7557-dfd2-49bc-9b4b-a93cd8e225d4",
      "name": "Water",
      "url": "https://haz-map.com/Agents/18668",
      "category": "agents"
    },
    {
      "type": "fuzzy_match",
      "text": "crystalline",
      "matched_name": "Silica, crystalline",
      "confidence": 0.7061403508771931,
      "uuid": "f920e8a2-46df-41b7-af8d-0368a777251e",
      "category": "agents",
      "url": "https://haz-map.com/Agents/427"
    }
  ],
  "all_links": [
    {
      "text": "Search PubMed",
      "url": "https://www.ncbi.nlm.nih.gov/pubmed?term=4-Cyanophenol%20AND%20human%5Bmh%5D%20AND%20%28Occupational%20Diseases%20%5Bmh%5D%20OR%20Occupational%20Exposure%20%5Bmh%5D%29%20%20AND%20%28tox%5Bsb%5D%29&cmd=search"
    }
  ]
}