{
  "metadata": {
    "scraped_from": "https://haz-map.com/Agents/4307",
    "entity_name": "p-Anisoyl chloride",
    "category": "agents",
    "uuid": "2ff5d05d-7d52-436d-98f8-9bdeaf296c29",
    "scraped_at": "2025-07-23T19:39:49.056612"
  },
  "parsed_at": "2025-07-24T01:03:58.813961",
  "title": "p-Anisoyl chloride",
  "sections": {
    "general": {
      "agent_name": {
        "original_name": "Agent Name",
        "value": "p-Anisoyl chloride",
        "links": [],
        "cross_references": [
          {
            "type": "name_match",
            "text": "p-anisoyl chloride",
            "confidence": 1.0,
            "uuid": "2ff5d05d-7d52-436d-98f8-9bdeaf296c29",
            "name": "p-Anisoyl chloride",
            "url": "https://haz-map.com/Agents/4307",
            "category": "agents"
          }
        ]
      },
      "alternative_name": {
        "original_name": "Alternative Name",
        "value": "4-Methoxybenzoyl chloride",
        "links": [],
        "cross_references": [
          {
            "type": "name_match",
            "text": "benzoyl chloride",
            "confidence": 1.0,
            "uuid": "028626a7-066e-4b74-a04c-867ebebfbe6d",
            "name": "Benzoyl chloride",
            "url": "https://haz-map.com/Agents/1379",
            "category": "agents"
          }
        ]
      },
      "cas_number": {
        "original_name": "CAS Number",
        "value": "100-07-2",
        "links": [],
        "cross_references": []
      },
      "formula": {
        "original_name": "Formula",
        "value": "C8-H7-Cl-O2",
        "links": [],
        "cross_references": []
      },
      "major_category": {
        "original_name": "Major Category",
        "value": "Toxic Gases & Vapors",
        "links": [],
        "cross_references": []
      },
      "synonyms": {
        "original_name": "Synonyms",
        "value": "4-Methoxybenzoyl chloride; 4-Anisoyl chloride; 4-Methoxybenzoic acid chloride; Benzoic acid, 4-methoxy-, chloride; Benzoyl chloride, 4-methoxy-; Benzoyl chloride, p-methoxy-; p-Methoxybenzoic acid chloride; p-Methoxybenzoyl chloride; [ChemIDplus] UN1729",
        "links": [],
        "cross_references": [
          {
            "type": "name_match",
            "text": "benzoyl chloride",
            "confidence": 1.0,
            "uuid": "028626a7-066e-4b74-a04c-867ebebfbe6d",
            "name": "Benzoyl chloride",
            "url": "https://haz-map.com/Agents/1379",
            "category": "agents"
          },
          {
            "type": "name_match",
            "text": "benzoic acid",
            "confidence": 1.0,
            "uuid": "d2c5d3be-d826-4f55-bc32-7b16821aef40",
            "name": "Benzoic acid",
            "url": "https://haz-map.com/Agents/1883",
            "category": "agents"
          }
        ]
      },
      "category": {
        "original_name": "Category",
        "value": "Acid Halides",
        "links": [],
        "cross_references": []
      },
      "description": {
        "original_name": "Description",
        "value": "Clear solid or amber liquid; [Hawley] Liquid or low melting solid; [MSDSonline]",
        "links": [],
        "cross_references": []
      },
      "sourcesuses": {
        "original_name": "Sources/Uses",
        "value": "Used as intermediate for dyes and medicines; [Hawley]",
        "links": [],
        "cross_references": []
      },
      "comments": {
        "original_name": "Comments",
        "value": "Decomposed by water; Corrosive to tissue; Explosion risk from Sealed containers due to pressure from decomposition at room temperature; [Hawley] May cause serious burns to eyes; Releases hydrochloric acid by hydrolysis; Emergency treatment: acids; [HSDB] Reacts with moisture forming hydrochloric acid; [CAMEO] A corrosive substance that can cause injury to the skin, eyes, and respiratory tract; Inhalation may cause edema and chemical pneumonitis; [MSDSonline]",
        "links": [],
        "cross_references": [
          {
            "type": "name_match",
            "text": "burn",
            "confidence": 1.0,
            "uuid": "63665de5-6376-4918-8dbf-4c10c4d63837",
            "name": "burn",
            "url": "https://haz-map.com/Findings/204",
            "category": "findings"
          },
          {
            "type": "name_match",
            "text": "mica",
            "confidence": 1.0,
            "uuid": "433f26f1-c399-4596-b179-ce3843cfd465",
            "name": "Mica",
            "url": "https://haz-map.com/Agents/621",
            "category": "agents"
          },
          {
            "type": "name_match",
            "text": "chloric acid",
            "confidence": 1.0,
            "uuid": "b21bc556-162c-4249-8afc-fb6303f2b8f9",
            "name": "Chloric acid",
            "url": "https://haz-map.com/Agents/8326",
            "category": "agents"
          },
          {
            "type": "name_match",
            "text": "water",
            "confidence": 1.0,
            "uuid": "6f2a7557-dfd2-49bc-9b4b-a93cd8e225d4",
            "name": "Water",
            "url": "https://haz-map.com/Agents/18668",
            "category": "agents"
          }
        ]
      },
      "biomedical_references": {
        "original_name": "Biomedical References",
        "value": "Search PubMed",
        "links": [
          {
            "text": "Search PubMed",
            "url": "https://www.ncbi.nlm.nih.gov/pubmed?term=p-Anisoyl+chloride%20AND%20human%5Bmh%5D%20AND%20%28Occupational%20Diseases%20%5Bmh%5D%20OR%20Occupational%20Exposure%20%5Bmh%5D%29%20%20AND%20%28tox%5Bsb%5D%29&cmd=search"
          }
        ],
        "cross_references": []
      }
    },
    "exposure_assessment": {
      "vapor_pressure": {
        "original_name": "Vapor Pressure",
        "value": "0.014 mm Hg",
        "links": [],
        "cross_references": []
      }
    },
    "adverse_effects": {
      "toxic_pneumonitis": {
        "original_name": "Toxic Pneumonitis",
        "value": "Yes",
        "links": [],
        "cross_references": []
      },
      "dermatotoxin": {
        "original_name": "Dermatotoxin",
        "value": "Skin burns",
        "links": [],
        "cross_references": [
          {
            "type": "name_match",
            "text": "burn",
            "confidence": 1.0,
            "uuid": "63665de5-6376-4918-8dbf-4c10c4d63837",
            "name": "burn",
            "url": "https://haz-map.com/Findings/204",
            "category": "findings"
          }
        ]
      }
    },
    "diseases_processes_and_activities_linked_to_this_agent": {
      "other_information": {
        "original_name": "Other Information",
        "value": "No other related information on this agent was found.",
        "links": [],
        "cross_references": []
      }
    }
  },
  "cross_references": [
    {
      "type": "name_match",
      "text": "burn",
      "confidence": 1.0,
      "uuid": "63665de5-6376-4918-8dbf-4c10c4d63837",
      "name": "burn",
      "url": "https://haz-map.com/Findings/204",
      "category": "findings"
    },
    {
      "type": "name_match",
      "text": "mica",
      "confidence": 1.0,
      "uuid": "433f26f1-c399-4596-b179-ce3843cfd465",
      "name": "Mica",
      "url": "https://haz-map.com/Agents/621",
      "category": "agents"
    },
    {
      "type": "name_match",
      "text": "benzoyl chloride",
      "confidence": 1.0,
      "uuid": "028626a7-066e-4b74-a04c-867ebebfbe6d",
      "name": "Benzoyl chloride",
      "url": "https://haz-map.com/Agents/1379",
      "category": "agents"
    },
    {
      "type": "name_match",
      "text": "benzoic acid",
      "confidence": 1.0,
      "uuid": "d2c5d3be-d826-4f55-bc32-7b16821aef40",
      "name": "Benzoic acid",
      "url": "https://haz-map.com/Agents/1883",
      "category": "agents"
    },
    {
      "type": "name_match",
      "text": "p-anisoyl chloride",
      "confidence": 1.0,
      "uuid": "2ff5d05d-7d52-436d-98f8-9bdeaf296c29",
      "name": "p-Anisoyl chloride",
      "url": "https://haz-map.com/Agents/4307",
      "category": "agents"
    },
    {
      "type": "name_match",
      "text": "chloric acid",
      "confidence": 1.0,
      "uuid": "b21bc556-162c-4249-8afc-fb6303f2b8f9",
      "name": "Chloric acid",
      "url": "https://haz-map.com/Agents/8326",
      "category": "agents"
    },
    {
      "type": "name_match",
      "text": "water",
      "confidence": 1.0,
      "uuid": "6f2a7557-dfd2-49bc-9b4b-a93cd8e225d4",
      "name": "Water",
      "url": "https://haz-map.com/Agents/18668",
      "category": "agents"
    }
  ],
  "all_links": [
    {
      "text": "Search PubMed",
      "url": "https://www.ncbi.nlm.nih.gov/pubmed?term=p-Anisoyl+chloride%20AND%20human%5Bmh%5D%20AND%20%28Occupational%20Diseases%20%5Bmh%5D%20OR%20Occupational%20Exposure%20%5Bmh%5D%29%20%20AND%20%28tox%5Bsb%5D%29&cmd=search"
    }
  ]
}