{
  "metadata": {
    "scraped_from": "https://haz-map.com/Agents/2484",
    "entity_name": "4-Acetamidobenzoic acid",
    "category": "agents",
    "uuid": "304f780a-7957-40c8-9735-08bedb97e8e5",
    "scraped_at": "2025-07-23T19:13:47.886780"
  },
  "parsed_at": "2025-07-24T01:10:29.256005",
  "title": "4-Acetamidobenzoic acid",
  "sections": {
    "general": {
      "agent_name": {
        "original_name": "Agent Name",
        "value": "4-Acetamidobenzoic acid",
        "links": [],
        "cross_references": [
          {
            "type": "name_match",
            "text": "benzoic acid",
            "confidence": 1.0,
            "uuid": "d2c5d3be-d826-4f55-bc32-7b16821aef40",
            "name": "Benzoic acid",
            "url": "https://haz-map.com/Agents/1883",
            "category": "agents"
          },
          {
            "type": "name_match",
            "text": "4-acetamidobenzoic acid",
            "confidence": 1.0,
            "uuid": "304f780a-7957-40c8-9735-08bedb97e8e5",
            "name": "4-Acetamidobenzoic acid",
            "url": "https://haz-map.com/Agents/2484",
            "category": "agents"
          }
        ]
      },
      "cas_number": {
        "original_name": "CAS Number",
        "value": "556-08-1",
        "links": [],
        "cross_references": []
      },
      "formula": {
        "original_name": "Formula",
        "value": "C9-H9-N-O3",
        "links": [],
        "cross_references": []
      },
      "major_category": {
        "original_name": "Major Category",
        "value": "Nitrogen Compounds",
        "links": [],
        "cross_references": [
          {
            "type": "name_match",
            "text": "nitrogen",
            "confidence": 1.0,
            "uuid": "db5e90a9-06d2-45b9-8b81-f345a89b0bc0",
            "name": "Nitrogen",
            "url": "https://haz-map.com/Agents/1072",
            "category": "agents"
          }
        ]
      },
      "synonyms": {
        "original_name": "Synonyms",
        "value": "Acedoben [INN]; 4-Acetamidobenzoic acid; 4-Acetylaminobenzoic acid; 4-Carboxyacetanilide; Acedoben [INN-Spanish]; Acedobene [INN-French]; Acedobenum [INN-Latin]; N-Acetyl-p-aminobenzoic acid; PAAB; p-Acetaminobenzoic acid; p-Acetoaminobenzoic acid; Acedoben; Benzoic acid, 4-(acetylamino)-; Benzoic acid, p-acetamido- (8CI); [ChemIDplus]",
        "links": [],
        "cross_references": [
          {
            "type": "name_match",
            "text": "benzoic acid",
            "confidence": 1.0,
            "uuid": "d2c5d3be-d826-4f55-bc32-7b16821aef40",
            "name": "Benzoic acid",
            "url": "https://haz-map.com/Agents/1883",
            "category": "agents"
          },
          {
            "type": "name_match",
            "text": "4-acetamidobenzoic acid",
            "confidence": 1.0,
            "uuid": "304f780a-7957-40c8-9735-08bedb97e8e5",
            "name": "4-Acetamidobenzoic acid",
            "url": "https://haz-map.com/Agents/2484",
            "category": "agents"
          },
          {
            "type": "name_match",
            "text": "acetanilide",
            "confidence": 1.0,
            "uuid": "73a5c68d-8466-44fa-a773-12d44f7b1458",
            "name": "Acetanilide",
            "url": "https://haz-map.com/Agents/3390",
            "category": "agents"
          },
          {
            "type": "name_match",
            "text": "p-aminobenzoic acid",
            "confidence": 1.0,
            "uuid": "741471ef-b6a8-48ee-b33c-93780229db7e",
            "name": "p-Aminobenzoic acid",
            "url": "https://haz-map.com/Agents/3473",
            "category": "agents"
          }
        ]
      },
      "category": {
        "original_name": "Category",
        "value": "Aminobenzoic Acids",
        "links": [],
        "cross_references": [
          {
            "type": "name_match",
            "text": "benzoic acid",
            "confidence": 1.0,
            "uuid": "d2c5d3be-d826-4f55-bc32-7b16821aef40",
            "name": "Benzoic acid",
            "url": "https://haz-map.com/Agents/1883",
            "category": "agents"
          }
        ]
      },
      "description": {
        "original_name": "Description",
        "value": "Off-white solid; [CAMEO] White powder, insoluble in water; [MSDSonline]",
        "links": [],
        "cross_references": [
          {
            "type": "name_match",
            "text": "water",
            "confidence": 1.0,
            "uuid": "6f2a7557-dfd2-49bc-9b4b-a93cd8e225d4",
            "name": "Water",
            "url": "https://haz-map.com/Agents/18668",
            "category": "agents"
          }
        ]
      },
      "comments": {
        "original_name": "Comments",
        "value": "An irritant to the skin, eyes, and respiratory tract; \"Stable under recommended storage conditions.\" [MSDSonline]",
        "links": [],
        "cross_references": []
      },
      "biomedical_references": {
        "original_name": "Biomedical References",
        "value": "Search PubMed",
        "links": [
          {
            "text": "Search PubMed",
            "url": "https://www.ncbi.nlm.nih.gov/pubmed?term=4-Acetamidobenzoic+acid%20AND%20human%5Bmh%5D%20AND%20%28Occupational%20Diseases%20%5Bmh%5D%20OR%20Occupational%20Exposure%20%5Bmh%5D%29%20%20AND%20%28tox%5Bsb%5D%29&cmd=search"
          }
        ],
        "cross_references": []
      }
    },
    "exposure_assessment": {
      "vapor_pressure": {
        "original_name": "Vapor Pressure",
        "value": "7.14E-07 mm Hg",
        "links": [],
        "cross_references": []
      },
      "explanatory_notes": {
        "original_name": "Explanatory Notes",
        "value": "mp = 259-262 deg C; [MSDSonline]",
        "links": [],
        "cross_references": []
      },
      "nfpa": {
        "original_name": "NFPA",
        "value": "must be preheated",
        "links": [],
        "cross_references": []
      }
    },
    "diseases_processes_and_activities_linked_to_this_agent": {
      "other_information": {
        "original_name": "Other Information",
        "value": "No other related information on this agent was found.",
        "links": [],
        "cross_references": []
      }
    }
  },
  "cross_references": [
    {
      "type": "name_match",
      "text": "nitrogen",
      "confidence": 1.0,
      "uuid": "db5e90a9-06d2-45b9-8b81-f345a89b0bc0",
      "name": "Nitrogen",
      "url": "https://haz-map.com/Agents/1072",
      "category": "agents"
    },
    {
      "type": "name_match",
      "text": "benzoic acid",
      "confidence": 1.0,
      "uuid": "d2c5d3be-d826-4f55-bc32-7b16821aef40",
      "name": "Benzoic acid",
      "url": "https://haz-map.com/Agents/1883",
      "category": "agents"
    },
    {
      "type": "name_match",
      "text": "4-acetamidobenzoic acid",
      "confidence": 1.0,
      "uuid": "304f780a-7957-40c8-9735-08bedb97e8e5",
      "name": "4-Acetamidobenzoic acid",
      "url": "https://haz-map.com/Agents/2484",
      "category": "agents"
    },
    {
      "type": "name_match",
      "text": "acetanilide",
      "confidence": 1.0,
      "uuid": "73a5c68d-8466-44fa-a773-12d44f7b1458",
      "name": "Acetanilide",
      "url": "https://haz-map.com/Agents/3390",
      "category": "agents"
    },
    {
      "type": "name_match",
      "text": "p-aminobenzoic acid",
      "confidence": 1.0,
      "uuid": "741471ef-b6a8-48ee-b33c-93780229db7e",
      "name": "p-Aminobenzoic acid",
      "url": "https://haz-map.com/Agents/3473",
      "category": "agents"
    },
    {
      "type": "name_match",
      "text": "water",
      "confidence": 1.0,
      "uuid": "6f2a7557-dfd2-49bc-9b4b-a93cd8e225d4",
      "name": "Water",
      "url": "https://haz-map.com/Agents/18668",
      "category": "agents"
    }
  ],
  "all_links": [
    {
      "text": "Search PubMed",
      "url": "https://www.ncbi.nlm.nih.gov/pubmed?term=4-Acetamidobenzoic+acid%20AND%20human%5Bmh%5D%20AND%20%28Occupational%20Diseases%20%5Bmh%5D%20OR%20Occupational%20Exposure%20%5Bmh%5D%29%20%20AND%20%28tox%5Bsb%5D%29&cmd=search"
    }
  ]
}