{
  "metadata": {
    "scraped_from": "https://haz-map.com/Agents/71",
    "entity_name": "Osmium tetroxide",
    "category": "agents",
    "uuid": "30b36a8c-9624-462c-a676-359536d7683b",
    "scraped_at": "2025-07-23T18:34:27.390805"
  },
  "parsed_at": "2025-07-24T00:55:44.544786",
  "title": "Osmium tetroxide",
  "sections": {
    "general": {
      "agent_name": {
        "original_name": "Agent Name",
        "value": "Osmium tetroxide",
        "links": [],
        "cross_references": [
          {
            "type": "name_match",
            "text": "osmium tetroxide",
            "confidence": 1.0,
            "uuid": "30b36a8c-9624-462c-a676-359536d7683b",
            "name": "Osmium tetroxide",
            "url": "https://haz-map.com/Agents/71",
            "category": "agents"
          },
          {
            "type": "name_match",
            "text": "osmium",
            "confidence": 1.0,
            "uuid": "5104abb2-647a-4320-b96c-ac5620a82e1e",
            "name": "Osmium",
            "url": "https://haz-map.com/Agents/6468",
            "category": "agents"
          }
        ]
      },
      "cas_number": {
        "original_name": "CAS Number",
        "value": "20816-12-0",
        "links": [],
        "cross_references": []
      },
      "formula": {
        "original_name": "Formula",
        "value": "O4-Os",
        "links": [],
        "cross_references": []
      },
      "major_category": {
        "original_name": "Major Category",
        "value": "Metals",
        "links": [],
        "cross_references": []
      },
      "synonyms": {
        "original_name": "Synonyms",
        "value": "Osmic acid; Osmic acid anhydride; Osmium tetraoxide; Osmium tetroxide; Perosmic acid anhydride; Perosmic oxide; [ChemIDplus] UN2471",
        "links": [],
        "cross_references": [
          {
            "type": "name_match",
            "text": "osmium tetroxide",
            "confidence": 1.0,
            "uuid": "30b36a8c-9624-462c-a676-359536d7683b",
            "name": "Osmium tetroxide",
            "url": "https://haz-map.com/Agents/71",
            "category": "agents"
          },
          {
            "type": "name_match",
            "text": "osmium",
            "confidence": 1.0,
            "uuid": "5104abb2-647a-4320-b96c-ac5620a82e1e",
            "name": "Osmium",
            "url": "https://haz-map.com/Agents/6468",
            "category": "agents"
          }
        ]
      },
      "category": {
        "original_name": "Category",
        "value": "Metals, Inorganic Compounds",
        "links": [],
        "cross_references": [
          {
            "type": "fuzzy_match",
            "text": "organic compounds",
            "matched_name": "Tin, organic compounds",
            "confidence": 0.8196969696969697,
            "uuid": "e027d413-8869-4308-9eb2-27d768b011ea",
            "category": "agents",
            "url": "https://haz-map.com/Agents/656"
          },
          {
            "type": "fuzzy_match",
            "text": "inorganic compounds",
            "matched_name": "Tin and inorganic compounds",
            "confidence": 0.8161375661375662,
            "uuid": "f9a072ab-0fbc-477a-88a2-1389e762d773",
            "category": "agents",
            "url": "https://haz-map.com/Agents/42"
          },
          {
            "type": "fuzzy_match",
            "text": "inorganic compounds",
            "matched_name": "Mercury, inorganic compounds",
            "confidence": 0.7455357142857143,
            "uuid": "4b03e512-ea73-428b-aa40-cfb4b29e3cd6",
            "category": "agents",
            "url": "https://haz-map.com/Agents/1954"
          }
        ]
      },
      "description": {
        "original_name": "Description",
        "value": "Colorless, crystalline solid or pale-yellow mass with an unpleasant, acrid, chlorine-like odor; Note: A liquid above 105 degrees F; [NIOSH]",
        "links": [],
        "cross_references": [
          {
            "type": "name_match",
            "text": "chlorine",
            "confidence": 1.0,
            "uuid": "8a67a545-61fb-4d71-865e-ff2725a0b999",
            "name": "Chlorine",
            "url": "https://haz-map.com/Agents/89",
            "category": "agents"
          },
          {
            "type": "name_match",
            "text": "chlorin",
            "confidence": 1.0,
            "uuid": "4a566fec-ec7e-42b0-9f14-ec586335e694",
            "name": "Chlorin",
            "url": "https://haz-map.com/Agents/20422",
            "category": "agents"
          },
          {
            "type": "fuzzy_match",
            "text": "crystalline",
            "matched_name": "Silica, crystalline",
            "confidence": 0.7061403508771931,
            "uuid": "f920e8a2-46df-41b7-af8d-0368a777251e",
            "category": "agents",
            "url": "https://haz-map.com/Agents/427"
          }
        ]
      },
      "sourcesuses": {
        "original_name": "Sources/Uses",
        "value": "Used primarily for staining of biological and pathological tissues for microscopic study; [ACGIH]",
        "links": [],
        "cross_references": []
      },
      "comments": {
        "original_name": "Comments",
        "value": "A skin and respiratory irritant, OsO4 can cause pulmonary edema in animals exposed to high concentrations. [ACGIH] A lachrymator; [ChemFinder] \"Tear drawing\" and corrosive to the skin, eyes, and respiratory tract; May cause kidney injury after prolonged or repeated exposure; [ICSC] Osmium tetroxide can cause chronic bronchitis. [LaDou, p. 382] May cause severe burns; [CAMEO] Based on animal studies, osmium tetroxide bioaccumulates after chronic exposure and may cause kidney and liver damage. [HSDB] See \"Osmium.\"",
        "links": [],
        "cross_references": [
          {
            "type": "name_match",
            "text": "pulmonary edema",
            "confidence": 1.0,
            "uuid": "ee39114e-c922-40fd-9588-a532de404962",
            "name": "pulmonary edema",
            "url": "https://haz-map.com/Findings/186",
            "category": "findings"
          },
          {
            "type": "name_match",
            "text": "burn",
            "confidence": 1.0,
            "uuid": "63665de5-6376-4918-8dbf-4c10c4d63837",
            "name": "burn",
            "url": "https://haz-map.com/Findings/204",
            "category": "findings"
          },
          {
            "type": "name_match",
            "text": "osmium tetroxide",
            "confidence": 1.0,
            "uuid": "30b36a8c-9624-462c-a676-359536d7683b",
            "name": "Osmium tetroxide",
            "url": "https://haz-map.com/Agents/71",
            "category": "agents"
          },
          {
            "type": "name_match",
            "text": "tea",
            "confidence": 1.0,
            "uuid": "773409e5-ac1a-4c9e-9470-9667ca82091c",
            "name": "Tea",
            "url": "https://haz-map.com/Agents/878",
            "category": "agents"
          },
          {
            "type": "name_match",
            "text": "osmium",
            "confidence": 1.0,
            "uuid": "5104abb2-647a-4320-b96c-ac5620a82e1e",
            "name": "Osmium",
            "url": "https://haz-map.com/Agents/6468",
            "category": "agents"
          }
        ]
      },
      "biomedical_references": {
        "original_name": "Biomedical References",
        "value": "Search PubMed",
        "links": [
          {
            "text": "Search PubMed",
            "url": "https://www.ncbi.nlm.nih.gov/pubmed?term=Osmium+tetroxide%20AND%20human%5Bmh%5D%20AND%20%28Occupational%20Diseases%20%5Bmh%5D%20OR%20Occupational%20Exposure%20%5Bmh%5D%29%20%20AND%20%28tox%5Bsb%5D%29&cmd=search"
          }
        ],
        "cross_references": []
      }
    },
    "exposure_assessment": {
      "skin_designation_acgih": {
        "original_name": "Skin Designation (ACGIH)",
        "value": "Insufficient data",
        "links": [],
        "cross_references": []
      },
      "bioaccumulates": {
        "original_name": "Bioaccumulates",
        "value": "Yes",
        "links": [],
        "cross_references": []
      },
      "tlv_acgih": {
        "original_name": "TLV (ACGIH)",
        "value": "0.0016 mg/m3",
        "links": [],
        "cross_references": []
      },
      "stel_acgih": {
        "original_name": "STEL (ACGIH)",
        "value": "0.0047 mg/m3",
        "links": [],
        "cross_references": []
      },
      "pel_osha": {
        "original_name": "PEL (OSHA)",
        "value": "0.002 mg/m3, as Os",
        "links": [],
        "cross_references": []
      },
      "idlh_niosh": {
        "original_name": "IDLH (NIOSH)",
        "value": "1 mg/m3, as Os",
        "links": [],
        "cross_references": []
      },
      "excerpts_from_documentation_for_idlhs": {
        "original_name": "Excerpts from Documentation for IDLHs",
        "value": "It has been suggested that 1 mg/m3 is tolerable for 30 minutes [Flury and Zernik 1931]. Workers exposed to 0.1 to 0.6 mg/m3 suffered from lacrimation and disturbances of vision and in some cases, headache, conjunctivitis, and cough [McLaughlin et al. 1946].",
        "links": [],
        "cross_references": [
          {
            "type": "name_match",
            "text": "cough",
            "confidence": 1.0,
            "uuid": "c18f3d8e-9c2e-4cef-ace6-8008147b34b1",
            "name": "cough",
            "url": "https://haz-map.com/Findings/4",
            "category": "findings"
          },
          {
            "type": "name_match",
            "text": "headache",
            "confidence": 1.0,
            "uuid": "a474a38d-66ac-44da-92de-de1c781a30e7",
            "name": "headache",
            "url": "https://haz-map.com/Findings/17",
            "category": "findings"
          },
          {
            "type": "name_match",
            "text": "lacrimation",
            "confidence": 1.0,
            "uuid": "392ff8e7-90fa-4d6d-8f67-3e49d053ffac",
            "name": "lacrimation",
            "url": "https://haz-map.com/Findings/199",
            "category": "findings"
          }
        ]
      },
      "vapor_pressure": {
        "original_name": "Vapor Pressure",
        "value": "7 mm Hg",
        "links": [],
        "cross_references": []
      },
      "odor_threshold_low": {
        "original_name": "Odor Threshold Low",
        "value": "0.0019 ppm",
        "links": [],
        "cross_references": []
      },
      "lethal_concentration": {
        "original_name": "Lethal Concentration",
        "value": "LCLo (rat) = 40 ppm/4H",
        "links": [],
        "cross_references": []
      },
      "explanatory_notes": {
        "original_name": "Explanatory Notes",
        "value": "Odor threshold from NJ \"Hazardous Substance Fact Sheet\"; VP from HSDB at 27 deg C;",
        "links": [],
        "cross_references": []
      },
      "reference_link_2": {
        "original_name": "Reference Link #2",
        "value": "ICSC: Osmium tetroxide",
        "links": [
          {
            "text": "ICSC: Osmium tetroxide",
            "url": "https://www.ilo.org/dyn/icsc/showcard.home"
          }
        ],
        "cross_references": [
          {
            "type": "name_match",
            "text": "osmium tetroxide",
            "confidence": 1.0,
            "uuid": "30b36a8c-9624-462c-a676-359536d7683b",
            "name": "Osmium tetroxide",
            "url": "https://haz-map.com/Agents/71",
            "category": "agents"
          },
          {
            "type": "name_match",
            "text": "osmium",
            "confidence": 1.0,
            "uuid": "5104abb2-647a-4320-b96c-ac5620a82e1e",
            "name": "Osmium",
            "url": "https://haz-map.com/Agents/6468",
            "category": "agents"
          }
        ]
      }
    },
    "adverse_effects": {
      "chronic_bronchitis": {
        "original_name": "Chronic Bronchitis",
        "value": "Yes",
        "links": [],
        "cross_references": []
      },
      "lachrymator": {
        "original_name": "Lachrymator",
        "value": "Yes",
        "links": [],
        "cross_references": []
      },
      "toxic_pneumonitis": {
        "original_name": "Toxic Pneumonitis",
        "value": "Yes",
        "links": [],
        "cross_references": []
      },
      "hepatotoxin": {
        "original_name": "Hepatotoxin",
        "value": "Hepatoxic (a) from occupational exposure (secondary effect) or (b) in animal studies or in humans after ingestion",
        "links": [],
        "cross_references": []
      },
      "nephrotoxin": {
        "original_name": "Nephrotoxin",
        "value": "Yes",
        "links": [],
        "cross_references": []
      },
      "dermatotoxin": {
        "original_name": "Dermatotoxin",
        "value": "Skin burns",
        "links": [],
        "cross_references": [
          {
            "type": "name_match",
            "text": "burn",
            "confidence": 1.0,
            "uuid": "63665de5-6376-4918-8dbf-4c10c4d63837",
            "name": "burn",
            "url": "https://haz-map.com/Findings/204",
            "category": "findings"
          }
        ]
      }
    },
    "diseases_processes_and_activities_linked_to_this_agent": {
      "diseases": {
        "original_name": "Diseases",
        "value": "Occupational diseases associated with exposure to this agent: Pulmonary disease, chronic obstructive",
        "links": [
          {
            "text": "Pulmonary disease, chronic obstructive",
            "url": "https://haz-map.com/Diseases/236"
          }
        ],
        "cross_references": [
          {
            "type": "url_match",
            "text": "Pulmonary disease, chronic obstructive",
            "url": "https://haz-map.com/Diseases/236",
            "confidence": 1.0,
            "uuid": "f658e889-f90c-4139-bf67-fb7d9ff9840e",
            "name": "Pulmonary disease, chronic obstructive",
            "category": "diseases"
          }
        ]
      }
    }
  },
  "cross_references": [
    {
      "type": "url_match",
      "text": "Pulmonary disease, chronic obstructive",
      "url": "https://haz-map.com/Diseases/236",
      "confidence": 1.0,
      "uuid": "f658e889-f90c-4139-bf67-fb7d9ff9840e",
      "name": "Pulmonary disease, chronic obstructive",
      "category": "diseases"
    },
    {
      "type": "name_match",
      "text": "cough",
      "confidence": 1.0,
      "uuid": "c18f3d8e-9c2e-4cef-ace6-8008147b34b1",
      "name": "cough",
      "url": "https://haz-map.com/Findings/4",
      "category": "findings"
    },
    {
      "type": "name_match",
      "text": "headache",
      "confidence": 1.0,
      "uuid": "a474a38d-66ac-44da-92de-de1c781a30e7",
      "name": "headache",
      "url": "https://haz-map.com/Findings/17",
      "category": "findings"
    },
    {
      "type": "name_match",
      "text": "pulmonary edema",
      "confidence": 1.0,
      "uuid": "ee39114e-c922-40fd-9588-a532de404962",
      "name": "pulmonary edema",
      "url": "https://haz-map.com/Findings/186",
      "category": "findings"
    },
    {
      "type": "name_match",
      "text": "lacrimation",
      "confidence": 1.0,
      "uuid": "392ff8e7-90fa-4d6d-8f67-3e49d053ffac",
      "name": "lacrimation",
      "url": "https://haz-map.com/Findings/199",
      "category": "findings"
    },
    {
      "type": "name_match",
      "text": "burn",
      "confidence": 1.0,
      "uuid": "63665de5-6376-4918-8dbf-4c10c4d63837",
      "name": "burn",
      "url": "https://haz-map.com/Findings/204",
      "category": "findings"
    },
    {
      "type": "name_match",
      "text": "osmium tetroxide",
      "confidence": 1.0,
      "uuid": "30b36a8c-9624-462c-a676-359536d7683b",
      "name": "Osmium tetroxide",
      "url": "https://haz-map.com/Agents/71",
      "category": "agents"
    },
    {
      "type": "name_match",
      "text": "chlorine",
      "confidence": 1.0,
      "uuid": "8a67a545-61fb-4d71-865e-ff2725a0b999",
      "name": "Chlorine",
      "url": "https://haz-map.com/Agents/89",
      "category": "agents"
    },
    {
      "type": "name_match",
      "text": "tea",
      "confidence": 1.0,
      "uuid": "773409e5-ac1a-4c9e-9470-9667ca82091c",
      "name": "Tea",
      "url": "https://haz-map.com/Agents/878",
      "category": "agents"
    },
    {
      "type": "name_match",
      "text": "osmium",
      "confidence": 1.0,
      "uuid": "5104abb2-647a-4320-b96c-ac5620a82e1e",
      "name": "Osmium",
      "url": "https://haz-map.com/Agents/6468",
      "category": "agents"
    },
    {
      "type": "name_match",
      "text": "chlorin",
      "confidence": 1.0,
      "uuid": "4a566fec-ec7e-42b0-9f14-ec586335e694",
      "name": "Chlorin",
      "url": "https://haz-map.com/Agents/20422",
      "category": "agents"
    },
    {
      "type": "fuzzy_match",
      "text": "organic compounds",
      "matched_name": "Tin, organic compounds",
      "confidence": 0.8196969696969697,
      "uuid": "e027d413-8869-4308-9eb2-27d768b011ea",
      "category": "agents",
      "url": "https://haz-map.com/Agents/656"
    },
    {
      "type": "fuzzy_match",
      "text": "inorganic compounds",
      "matched_name": "Tin and inorganic compounds",
      "confidence": 0.8161375661375662,
      "uuid": "f9a072ab-0fbc-477a-88a2-1389e762d773",
      "category": "agents",
      "url": "https://haz-map.com/Agents/42"
    },
    {
      "type": "fuzzy_match",
      "text": "inorganic compounds",
      "matched_name": "Mercury, inorganic compounds",
      "confidence": 0.7455357142857143,
      "uuid": "4b03e512-ea73-428b-aa40-cfb4b29e3cd6",
      "category": "agents",
      "url": "https://haz-map.com/Agents/1954"
    },
    {
      "type": "fuzzy_match",
      "text": "crystalline",
      "matched_name": "Silica, crystalline",
      "confidence": 0.7061403508771931,
      "uuid": "f920e8a2-46df-41b7-af8d-0368a777251e",
      "category": "agents",
      "url": "https://haz-map.com/Agents/427"
    }
  ],
  "all_links": [
    {
      "text": "Search PubMed",
      "url": "https://www.ncbi.nlm.nih.gov/pubmed?term=Osmium+tetroxide%20AND%20human%5Bmh%5D%20AND%20%28Occupational%20Diseases%20%5Bmh%5D%20OR%20Occupational%20Exposure%20%5Bmh%5D%29%20%20AND%20%28tox%5Bsb%5D%29&cmd=search"
    },
    {
      "text": "ICSC: Osmium tetroxide",
      "url": "https://www.ilo.org/dyn/icsc/showcard.home"
    },
    {
      "text": "Pulmonary disease, chronic obstructive",
      "url": "https://haz-map.com/Diseases/236"
    }
  ]
}