{
  "metadata": {
    "scraped_from": "https://haz-map.com/Agents/269",
    "entity_name": "Methyl demeton",
    "category": "agents",
    "uuid": "311845ff-b53e-4f14-9a69-481fe8dcf975",
    "scraped_at": "2025-07-23T18:38:21.223983"
  },
  "parsed_at": "2025-07-24T01:11:08.263856",
  "title": "Methyl demeton",
  "sections": {
    "general": {
      "agent_name": {
        "original_name": "Agent Name",
        "value": "Methyl demeton",
        "links": [],
        "cross_references": [
          {
            "type": "name_match",
            "text": "methyl demeton",
            "confidence": 1.0,
            "uuid": "311845ff-b53e-4f14-9a69-481fe8dcf975",
            "name": "Methyl demeton",
            "url": "https://haz-map.com/Agents/269",
            "category": "agents"
          },
          {
            "type": "name_match",
            "text": "demeton",
            "confidence": 1.0,
            "uuid": "9b431a2a-28a3-4694-8058-1cb64103338d",
            "name": "Demeton",
            "url": "https://haz-map.com/Agents/391",
            "category": "agents"
          }
        ]
      },
      "alternative_name": {
        "original_name": "Alternative Name",
        "value": "Demeton-methyl",
        "links": [],
        "cross_references": [
          {
            "type": "name_match",
            "text": "demeton",
            "confidence": 1.0,
            "uuid": "9b431a2a-28a3-4694-8058-1cb64103338d",
            "name": "Demeton",
            "url": "https://haz-map.com/Agents/391",
            "category": "agents"
          }
        ]
      },
      "cas_number": {
        "original_name": "CAS Number",
        "value": "8022-00-2",
        "links": [],
        "cross_references": []
      },
      "formula": {
        "original_name": "Formula",
        "value": "C6-H15-O3-P-S2",
        "links": [],
        "cross_references": []
      },
      "major_category": {
        "original_name": "Major Category",
        "value": "Pesticides",
        "links": [],
        "cross_references": []
      },
      "synonyms": {
        "original_name": "Synonyms",
        "value": "Demeton-methyl; Bayer 21/116; Demeton M; Demeton methyl; Demeton-methyl; Metasystox; Metasystox forte; Methyl demeton 25 EC; Methyl mercaptophos; Methyl systox; Methyl-mercaptophos; Methylmerkaptofos [Czech]; Phosphorothioic acid, O-(2-(ethylthio)ethyl) O,O-dimethyl ester, mixt. With S-(2-(ethylthio)ethyl) O,O-dimethyl ester; S(and O)-2-(Ethylthio)ethyl O,O-dimethyl phosphorothioate; [ChemIDplus] UN3018",
        "links": [],
        "cross_references": [
          {
            "type": "name_match",
            "text": "methyl demeton",
            "confidence": 1.0,
            "uuid": "311845ff-b53e-4f14-9a69-481fe8dcf975",
            "name": "Methyl demeton",
            "url": "https://haz-map.com/Agents/269",
            "category": "agents"
          },
          {
            "type": "name_match",
            "text": "demeton",
            "confidence": 1.0,
            "uuid": "9b431a2a-28a3-4694-8058-1cb64103338d",
            "name": "Demeton",
            "url": "https://haz-map.com/Agents/391",
            "category": "agents"
          }
        ]
      },
      "category": {
        "original_name": "Category",
        "value": "Organophosphate Insecticides",
        "links": [],
        "cross_references": []
      },
      "description": {
        "original_name": "Description",
        "value": "Oily, colorless to pale-yellow liquid with an unpleasant odor. [insecticide] [Note: Technical grade consists of 2 isomers: thiono & thiolo.]; [NIOSH]",
        "links": [],
        "cross_references": []
      },
      "sourcesuses": {
        "original_name": "Sources/Uses",
        "value": "Used to kill insects on garden crops, fruit, and hops; [ACGIH]",
        "links": [],
        "cross_references": [
          {
            "type": "name_match",
            "text": "insects",
            "confidence": 1.0,
            "uuid": "aa09eb63-8062-4e8a-ba83-b4fd16d81454",
            "name": "Insects",
            "url": "https://haz-map.com/Agents/1216",
            "category": "agents"
          }
        ]
      },
      "comments": {
        "original_name": "Comments",
        "value": "It is less toxic than demeton. [ACGIH] A cholinesterase inhibitor that may cause CNS effects; Can be absorbed through skin; [ICSC] “The average of two baseline respective cholinesterase activity determinations three days apart, with no exposures to enzyme inhibiting pesticides for at least 30 days, is recommended for each worker prior to exposure to cholinesterase inhibitors because of large inter-individual differences in published baseline values. To be established at least once a year. Removal from workplace exposures is recommended until the cholinesterase activity returns to within 20% of baseline.” [TLVs and BEIs]",
        "links": [],
        "cross_references": [
          {
            "type": "name_match",
            "text": "demeton",
            "confidence": 1.0,
            "uuid": "9b431a2a-28a3-4694-8058-1cb64103338d",
            "name": "Demeton",
            "url": "https://haz-map.com/Agents/391",
            "category": "agents"
          },
          {
            "type": "name_match",
            "text": "choline",
            "confidence": 1.0,
            "uuid": "a21a71e9-9d67-4563-9da2-98c4dcb1b766",
            "name": "Choline",
            "url": "https://haz-map.com/Agents/12978",
            "category": "agents"
          }
        ]
      },
      "restricted": {
        "original_name": "Restricted",
        "value": "Not registered for use in the US; [EPA PPIS]",
        "links": [],
        "cross_references": []
      },
      "biomedical_references": {
        "original_name": "Biomedical References",
        "value": "Search PubMed",
        "links": [
          {
            "text": "Search PubMed",
            "url": "https://www.ncbi.nlm.nih.gov/pubmed?term=Methyl+demeton%20AND%20human%5Bmh%5D%20AND%20%28Occupational%20Diseases%20%5Bmh%5D%20OR%20Occupational%20Exposure%20%5Bmh%5D%29%20%20AND%20%28tox%5Bsb%5D%29&cmd=search"
          }
        ],
        "cross_references": []
      }
    },
    "exposure_assessment": {
      "bei": {
        "original_name": "BEI",
        "value": "Acetylcholinesterase activity in red blood cells = 70% of individual's baseline; Butylcholinesterase activity in serum or plasma = 60% of individual's baseline; Sample at end of shift; [TLVs and BEIs]",
        "links": [],
        "cross_references": [
          {
            "type": "name_match",
            "text": "choline",
            "confidence": 1.0,
            "uuid": "a21a71e9-9d67-4563-9da2-98c4dcb1b766",
            "name": "Choline",
            "url": "https://haz-map.com/Agents/12978",
            "category": "agents"
          }
        ]
      },
      "skin_designation_acgih": {
        "original_name": "Skin Designation (ACGIH)",
        "value": "Yes",
        "links": [],
        "cross_references": []
      },
      "tlv_acgih": {
        "original_name": "TLV (ACGIH)",
        "value": "0.05 mg/m3, inhalable fraction and vapor",
        "links": [],
        "cross_references": []
      },
      "mak": {
        "original_name": "MAK",
        "value": "4.8 mg/m3",
        "links": [],
        "cross_references": []
      },
      "vapor_pressure": {
        "original_name": "Vapor Pressure",
        "value": "0.0004 mm Hg",
        "links": [],
        "cross_references": []
      },
      "lethal_concentration": {
        "original_name": "Lethal Concentration",
        "value": "LCLo (cat) = 20 mg/m3/4hr",
        "links": [],
        "cross_references": []
      },
      "explanatory_notes": {
        "original_name": "Explanatory Notes",
        "value": "The Guide in the Emergency Response Guidebook is for \"Organophosphorus pesticide, liquid, toxic.\"",
        "links": [],
        "cross_references": []
      }
    },
    "adverse_effects": {
      "other_poison": {
        "original_name": "Other Poison",
        "value": "Organophosphate",
        "links": [],
        "cross_references": []
      }
    },
    "diseases_processes_and_activities_linked_to_this_agent": {
      "diseases": {
        "original_name": "Diseases",
        "value": "Occupational diseases associated with exposure to this agent: Organophosphates & carbamates, acute poisoning",
        "links": [
          {
            "text": "Organophosphates & carbamates, acute poisoning",
            "url": "https://haz-map.com/Diseases/66"
          }
        ],
        "cross_references": [
          {
            "type": "url_match",
            "text": "Organophosphates & carbamates, acute poisoning",
            "url": "https://haz-map.com/Diseases/66",
            "confidence": 1.0,
            "uuid": "aea2cba9-fb36-463f-84d8-b819551bb327",
            "name": "Organophosphates & carbamates, acute poisoning",
            "category": "diseases"
          },
          {
            "type": "name_match",
            "text": "organophosphates",
            "confidence": 1.0,
            "uuid": "8d2d239c-20f9-4f02-9916-5e7667b9990c",
            "name": "ORGANOPHOSPHATES",
            "url": "https://haz-map.com/Agents/702",
            "category": "agents"
          }
        ]
      },
      "processes": {
        "original_name": "Processes",
        "value": "Industrial Processes with risk of exposure: Farming (Pesticides)",
        "links": [
          {
            "text": "Farming (Pesticides)",
            "url": "https://haz-map.com/Processes/218"
          }
        ],
        "cross_references": [
          {
            "type": "url_match",
            "text": "Farming (Pesticides)",
            "url": "https://haz-map.com/Processes/218",
            "confidence": 1.0,
            "uuid": "cf1e5815-c9bb-4917-82a5-391848170b7e",
            "name": "Farming (Pesticides)",
            "category": "processes"
          }
        ]
      }
    }
  },
  "cross_references": [
    {
      "type": "url_match",
      "text": "Organophosphates & carbamates, acute poisoning",
      "url": "https://haz-map.com/Diseases/66",
      "confidence": 1.0,
      "uuid": "aea2cba9-fb36-463f-84d8-b819551bb327",
      "name": "Organophosphates & carbamates, acute poisoning",
      "category": "diseases"
    },
    {
      "type": "url_match",
      "text": "Farming (Pesticides)",
      "url": "https://haz-map.com/Processes/218",
      "confidence": 1.0,
      "uuid": "cf1e5815-c9bb-4917-82a5-391848170b7e",
      "name": "Farming (Pesticides)",
      "category": "processes"
    },
    {
      "type": "name_match",
      "text": "methyl demeton",
      "confidence": 1.0,
      "uuid": "311845ff-b53e-4f14-9a69-481fe8dcf975",
      "name": "Methyl demeton",
      "url": "https://haz-map.com/Agents/269",
      "category": "agents"
    },
    {
      "type": "name_match",
      "text": "demeton",
      "confidence": 1.0,
      "uuid": "9b431a2a-28a3-4694-8058-1cb64103338d",
      "name": "Demeton",
      "url": "https://haz-map.com/Agents/391",
      "category": "agents"
    },
    {
      "type": "name_match",
      "text": "organophosphates",
      "confidence": 1.0,
      "uuid": "8d2d239c-20f9-4f02-9916-5e7667b9990c",
      "name": "ORGANOPHOSPHATES",
      "url": "https://haz-map.com/Agents/702",
      "category": "agents"
    },
    {
      "type": "name_match",
      "text": "insects",
      "confidence": 1.0,
      "uuid": "aa09eb63-8062-4e8a-ba83-b4fd16d81454",
      "name": "Insects",
      "url": "https://haz-map.com/Agents/1216",
      "category": "agents"
    },
    {
      "type": "name_match",
      "text": "choline",
      "confidence": 1.0,
      "uuid": "a21a71e9-9d67-4563-9da2-98c4dcb1b766",
      "name": "Choline",
      "url": "https://haz-map.com/Agents/12978",
      "category": "agents"
    }
  ],
  "all_links": [
    {
      "text": "Search PubMed",
      "url": "https://www.ncbi.nlm.nih.gov/pubmed?term=Methyl+demeton%20AND%20human%5Bmh%5D%20AND%20%28Occupational%20Diseases%20%5Bmh%5D%20OR%20Occupational%20Exposure%20%5Bmh%5D%29%20%20AND%20%28tox%5Bsb%5D%29&cmd=search"
    },
    {
      "text": "Organophosphates & carbamates, acute poisoning",
      "url": "https://haz-map.com/Diseases/66"
    },
    {
      "text": "Farming (Pesticides)",
      "url": "https://haz-map.com/Processes/218"
    }
  ]
}