{
  "metadata": {
    "scraped_from": "https://haz-map.com/Agents/3967",
    "entity_name": "Docusate sodium",
    "category": "agents",
    "uuid": "31395fbc-800e-4414-a2d1-bd04aa37a4e9",
    "scraped_at": "2025-07-23T19:35:22.875306"
  },
  "parsed_at": "2025-07-24T01:11:59.272053",
  "title": "Docusate sodium",
  "sections": {
    "general": {
      "agent_name": {
        "original_name": "Agent Name",
        "value": "Docusate sodium",
        "links": [],
        "cross_references": [
          {
            "type": "name_match",
            "text": "sodium",
            "confidence": 1.0,
            "uuid": "1adffc42-a4d8-44d5-81d6-7dbd96ef8a6f",
            "name": "Sodium",
            "url": "https://haz-map.com/Agents/1527",
            "category": "agents"
          },
          {
            "type": "name_match",
            "text": "docusate sodium",
            "confidence": 1.0,
            "uuid": "31395fbc-800e-4414-a2d1-bd04aa37a4e9",
            "name": "Docusate sodium",
            "url": "https://haz-map.com/Agents/3967",
            "category": "agents"
          },
          {
            "type": "name_match",
            "text": "docusate",
            "confidence": 1.0,
            "uuid": "62ab0820-7d03-430c-af5f-8158b036dbec",
            "name": "Docusate",
            "url": "https://haz-map.com/Agents/20337",
            "category": "agents"
          }
        ]
      },
      "cas_number": {
        "original_name": "CAS Number",
        "value": "577-11-7",
        "links": [],
        "cross_references": []
      },
      "formula": {
        "original_name": "Formula",
        "value": "C20-H38-O7-S.Na",
        "links": [],
        "cross_references": []
      },
      "major_category": {
        "original_name": "Major Category",
        "value": "Other Uses",
        "links": [],
        "cross_references": []
      },
      "synonyms": {
        "original_name": "Synonyms",
        "value": "1,4-Bis(2-ethylhexyl)sulfobutanedioate, sodium salt; Sodium dioctyl sulfosuccinate; Sulfosuccinic acid, di-(2-ethylhexyl) ester, sodium salt; 1,4-Bis(2-ethylhexyl) sodium sulfosuccinate; 2-Ethylhexyl sulfosuccinate sodium; Adekacol EC 8600; Aerosol A 501; Aerosol AOT; Aerosol GPG; Aerosol OT; Aerosol OT 70PG; Aerosol OT 75; Aerosol OT-A; Aerosol OT-B; Alcopol O; Alkasurf SS-O 75; Alphasol OT; Berol 478; Bis(2-ethylhexyl) S-sodium sulfosuccinate; Bis(2-ethylhexyl) sulfosuccinate sodium salt; Bis(2-ethylhexyl)sodium sulfosuccinate; Bis(ethylhexyl) ester of sodium sulfosuccinic acid; Bis-2-ethylhexylester sulfojantaranu sodneho [Czech]; Butanedioic acid, sulfo-, 1,4-bis(2-ethylhexyl) ester, sodium salt; Celanol DOS 65; Celanol DOS 75; Clestol; Colace; Coloxyl; Complemix; Constonate; Coprol; Correctol Extra Gentle Tablets; D-S-S; DESS; DSS; Defilin; Di(2-ethylhexyl)sulfosuccinic acid, sodium salt; Di-(2-ethylhexyl) sodium sulfosuccinate; Dialose; Dioctlyn; Dioctyl ester of sodium sulfosuccinate; Dioctyl ester of sodium sulfosuccinic acid; Dioctyl sodium sulfosuccinate; Dioctyl sodium sulphosuccinate; Dioctyl sulfosuccinate sodium; Dioctyl sulfosuccinate sodium salt; Dioctyl-medo forte; Dioctylal; Diomedicone; Diosuccin; Diotilan; Diovac; Diox; Disonate; Docusate sodique [INN-French]; Docusato sodico [INN-Spanish]; Docusatum natricum [INN-Latin]; Doxinate; Doxol; Dulsivac; Duosol; Humifen WT 27G; Konlax; Kosate; Laxinate; Laxinate 100; Manoxal OT; Manoxol OT; Mervamine; Modane Soft; Molatoc; Molcer; Molofac; Monawet MD 70E; Monawet MO-70; Monawet MO-70 RP; Monawet MO-84 R2W; Monoxol OT; Natrii dioctylsulfosuccinas; Nekal WT-27; Nevax; Nikkol OTP 70; Norval; Obston; Rapisol; Regutol; Requtol; Revac; SBO; SV 102; Sanmorin OT 70; Sobital; Sodium 1,4-bis(2-ethylhexyl) sulfosuccinate; Sodium 1,4-bis(2-ethylhexyl)sulfosuccinate; Sodium 2-ethylhexylsulfosuccinate; Sodium bis(2-ethylhexyl) sulfosuccinate; Sodium di-(2-ethylhexyl) sulfosuccinate; Sodium dioctyl sulfosuccinate; Sodium dioctyl sulphosuccinate; Sodium sulfodi-(2-ethylhexyl)-sulfosuccinate; Softil; Sol sodowej sulfobursztynianu dwu-2-etyloheksylowego; Sol sodowej sulfobursztynianu dwu-2-etyloheksylowego; [Polish]; Soliwax; Solusol-100%; Solusol-75%; Succinic acid, sulfo-, 1,4-bis(2-ethylhexyl) ester, sodium salt; Sulfimel DOS; Sulfosuccinic acid, bis(2-ethylhexyl)ester sodium salt; Tex-Wet 1001; Triton GR 7; Triton GR-5; Vatsol OT; Velmol; Waxsol; Wetaid SR; [ChemIDplus]",
        "links": [],
        "cross_references": [
          {
            "type": "name_match",
            "text": "sodium",
            "confidence": 1.0,
            "uuid": "1adffc42-a4d8-44d5-81d6-7dbd96ef8a6f",
            "name": "Sodium",
            "url": "https://haz-map.com/Agents/1527",
            "category": "agents"
          },
          {
            "type": "name_match",
            "text": "dioctyl sulfosuccinate",
            "confidence": 1.0,
            "uuid": "ce69d470-e678-4d34-ab72-91499bd32891",
            "name": "Dioctyl sulfosuccinate",
            "url": "https://haz-map.com/Agents/4986",
            "category": "agents"
          },
          {
            "type": "name_match",
            "text": "succinic acid",
            "confidence": 1.0,
            "uuid": "e01347b0-231d-4c97-8f6d-724da7d58bfb",
            "name": "Succinic acid",
            "url": "https://haz-map.com/Agents/7229",
            "category": "agents"
          },
          {
            "type": "name_match",
            "text": "morin",
            "confidence": 1.0,
            "uuid": "fce4adcc-4265-4f5f-8f8c-903d2c08f942",
            "name": "Morin",
            "url": "https://haz-map.com/Agents/9933",
            "category": "agents"
          },
          {
            "type": "name_match",
            "text": "docusate",
            "confidence": 1.0,
            "uuid": "62ab0820-7d03-430c-af5f-8158b036dbec",
            "name": "Docusate",
            "url": "https://haz-map.com/Agents/20337",
            "category": "agents"
          }
        ]
      },
      "category": {
        "original_name": "Category",
        "value": "Emulsifiers/Surfactants",
        "links": [],
        "cross_references": []
      },
      "description": {
        "original_name": "Description",
        "value": "Commercially available in rolls of very thin wax-like solid; as solution (50-75%) in various solvents; [Merck Index] White waxy solid; [MSDSonline]",
        "links": [],
        "cross_references": []
      },
      "sourcesuses": {
        "original_name": "Sources/Uses",
        "value": "Used as a wetting agent (industrial, pharmaceutical, cosmetic, and food applications), processing aid in the sugar industry, stabilizer for hydrophilic colloids, dispersant and emulsifier, and stool softener; Also used in powderless etching systems; [HSDB]",
        "links": [],
        "cross_references": []
      },
      "comments": {
        "original_name": "Comments",
        "value": "In studies of rabbits, causes minor and reversible eye injury at concentrations of 0.5% and 2% and severe eye injury at concentrations of 10%; [HSDB] A strong eye irritant; May cause skin irritation by removal of natural oils; [CAMEO] An irritant; [MSDSonline] See \"Docusate.\"",
        "links": [],
        "cross_references": [
          {
            "type": "name_match",
            "text": "docusate",
            "confidence": 1.0,
            "uuid": "62ab0820-7d03-430c-af5f-8158b036dbec",
            "name": "Docusate",
            "url": "https://haz-map.com/Agents/20337",
            "category": "agents"
          }
        ]
      },
      "restricted": {
        "original_name": "Restricted",
        "value": "Use in food products restricted; [HSDB]",
        "links": [],
        "cross_references": []
      },
      "biomedical_references": {
        "original_name": "Biomedical References",
        "value": "Search PubMed",
        "links": [
          {
            "text": "Search PubMed",
            "url": "https://www.ncbi.nlm.nih.gov/pubmed?term=Docusate+sodium%20AND%20human%5Bmh%5D%20AND%20%28Occupational%20Diseases%20%5Bmh%5D%20OR%20Occupational%20Exposure%20%5Bmh%5D%29%20%20AND%20%28tox%5Bsb%5D%29&cmd=search"
          }
        ],
        "cross_references": []
      }
    },
    "exposure_assessment": {
      "vapor_pressure": {
        "original_name": "Vapor Pressure",
        "value": "2.17E-11 mm Hg",
        "links": [],
        "cross_references": []
      }
    },
    "diseases_processes_and_activities_linked_to_this_agent": {
      "other_information": {
        "original_name": "Other Information",
        "value": "No other related information on this agent was found.",
        "links": [],
        "cross_references": []
      }
    }
  },
  "cross_references": [
    {
      "type": "name_match",
      "text": "sodium",
      "confidence": 1.0,
      "uuid": "1adffc42-a4d8-44d5-81d6-7dbd96ef8a6f",
      "name": "Sodium",
      "url": "https://haz-map.com/Agents/1527",
      "category": "agents"
    },
    {
      "type": "name_match",
      "text": "docusate sodium",
      "confidence": 1.0,
      "uuid": "31395fbc-800e-4414-a2d1-bd04aa37a4e9",
      "name": "Docusate sodium",
      "url": "https://haz-map.com/Agents/3967",
      "category": "agents"
    },
    {
      "type": "name_match",
      "text": "dioctyl sulfosuccinate",
      "confidence": 1.0,
      "uuid": "ce69d470-e678-4d34-ab72-91499bd32891",
      "name": "Dioctyl sulfosuccinate",
      "url": "https://haz-map.com/Agents/4986",
      "category": "agents"
    },
    {
      "type": "name_match",
      "text": "succinic acid",
      "confidence": 1.0,
      "uuid": "e01347b0-231d-4c97-8f6d-724da7d58bfb",
      "name": "Succinic acid",
      "url": "https://haz-map.com/Agents/7229",
      "category": "agents"
    },
    {
      "type": "name_match",
      "text": "morin",
      "confidence": 1.0,
      "uuid": "fce4adcc-4265-4f5f-8f8c-903d2c08f942",
      "name": "Morin",
      "url": "https://haz-map.com/Agents/9933",
      "category": "agents"
    },
    {
      "type": "name_match",
      "text": "docusate",
      "confidence": 1.0,
      "uuid": "62ab0820-7d03-430c-af5f-8158b036dbec",
      "name": "Docusate",
      "url": "https://haz-map.com/Agents/20337",
      "category": "agents"
    }
  ],
  "all_links": [
    {
      "text": "Search PubMed",
      "url": "https://www.ncbi.nlm.nih.gov/pubmed?term=Docusate+sodium%20AND%20human%5Bmh%5D%20AND%20%28Occupational%20Diseases%20%5Bmh%5D%20OR%20Occupational%20Exposure%20%5Bmh%5D%29%20%20AND%20%28tox%5Bsb%5D%29&cmd=search"
    }
  ]
}