{
  "metadata": {
    "scraped_from": "https://haz-map.com/Agents/6940",
    "entity_name": "Quinolinic acid",
    "category": "agents",
    "uuid": "3181935e-dd42-4263-9674-08e3bdd1d352",
    "scraped_at": "2025-07-23T20:07:06.812950"
  },
  "parsed_at": "2025-07-24T01:16:51.300780",
  "title": "Quinolinic acid",
  "sections": {
    "general": {
      "agent_name": {
        "original_name": "Agent Name",
        "value": "Quinolinic acid",
        "links": [],
        "cross_references": [
          {
            "type": "name_match",
            "text": "quinolinic acid",
            "confidence": 1.0,
            "uuid": "3181935e-dd42-4263-9674-08e3bdd1d352",
            "name": "Quinolinic acid",
            "url": "https://haz-map.com/Agents/6940",
            "category": "agents"
          }
        ]
      },
      "cas_number": {
        "original_name": "CAS Number",
        "value": "89-00-9",
        "links": [],
        "cross_references": []
      },
      "formula": {
        "original_name": "Formula",
        "value": "C7-H5-N-O4",
        "links": [],
        "cross_references": []
      },
      "major_category": {
        "original_name": "Major Category",
        "value": "Nitrogen Compounds",
        "links": [],
        "cross_references": [
          {
            "type": "name_match",
            "text": "nitrogen",
            "confidence": 1.0,
            "uuid": "db5e90a9-06d2-45b9-8b81-f345a89b0bc0",
            "name": "Nitrogen",
            "url": "https://haz-map.com/Agents/1072",
            "category": "agents"
          }
        ]
      },
      "synonyms": {
        "original_name": "Synonyms",
        "value": "Pyridine-2,3-dicarboxylic acid; 2,3-Pyridinedicarboxylic acid; [ChemIDplus]",
        "links": [],
        "cross_references": [
          {
            "type": "name_match",
            "text": "pyridine",
            "confidence": 1.0,
            "uuid": "a2d916a4-844b-4df6-9be5-868b2b364d71",
            "name": "Pyridine",
            "url": "https://haz-map.com/Agents/616",
            "category": "agents"
          }
        ]
      },
      "category": {
        "original_name": "Category",
        "value": "Amino Carboxylic Acids",
        "links": [],
        "cross_references": []
      },
      "description": {
        "original_name": "Description",
        "value": "Odorless solid; [Merck Index] White or light yellow powder; [MSDSonline]",
        "links": [],
        "cross_references": [
          {
            "type": "name_match",
            "text": "ht",
            "confidence": 1.0,
            "uuid": "764df367-8d53-4a11-81a2-31ccfe122a8d",
            "name": "HT",
            "url": "https://haz-map.com/Agents/2168",
            "category": "agents"
          }
        ]
      },
      "sourcesuses": {
        "original_name": "Sources/Uses",
        "value": "A metabolite of tryptophan; Used to make Assert (herbicide) and nicotinic acid; [HSDB]",
        "links": [],
        "cross_references": [
          {
            "type": "name_match",
            "text": "nicotinic acid",
            "confidence": 1.0,
            "uuid": "a2557ad0-66df-43a7-b01e-f9390d8e602f",
            "name": "Nicotinic acid",
            "url": "https://haz-map.com/Agents/15893",
            "category": "agents"
          },
          {
            "type": "name_match",
            "text": "tryptophan",
            "confidence": 1.0,
            "uuid": "6e65ea50-c130-48b7-8f58-412d441749df",
            "name": "Tryptophan",
            "url": "https://haz-map.com/Agents/18463",
            "category": "agents"
          }
        ]
      },
      "comments": {
        "original_name": "Comments",
        "value": "A mild skin irritant; [Hawley] Causes convulsions after intracerebral administration in mice; [RTECS]",
        "links": [],
        "cross_references": [
          {
            "type": "name_match",
            "text": "convulsion",
            "confidence": 1.0,
            "uuid": "af2c36f8-707a-48e3-a62b-1aa07adc9b72",
            "name": "convulsion",
            "url": "https://haz-map.com/Findings/14",
            "category": "findings"
          }
        ]
      },
      "biomedical_references": {
        "original_name": "Biomedical References",
        "value": "Search PubMed",
        "links": [
          {
            "text": "Search PubMed",
            "url": "https://www.ncbi.nlm.nih.gov/pubmed?term=Quinolinic+acid%20AND%20human%5Bmh%5D%20AND%20%28Occupational%20Diseases%20%5Bmh%5D%20OR%20Occupational%20Exposure%20%5Bmh%5D%29%20%20AND%20%28tox%5Bsb%5D%29&cmd=search"
          }
        ],
        "cross_references": []
      }
    },
    "exposure_assessment": {
      "vapor_pressure": {
        "original_name": "Vapor Pressure",
        "value": "6.1E-06 mm Hg",
        "links": [],
        "cross_references": []
      }
    },
    "diseases_processes_and_activities_linked_to_this_agent": {
      "other_information": {
        "original_name": "Other Information",
        "value": "No other related information on this agent was found.",
        "links": [],
        "cross_references": []
      }
    }
  },
  "cross_references": [
    {
      "type": "name_match",
      "text": "convulsion",
      "confidence": 1.0,
      "uuid": "af2c36f8-707a-48e3-a62b-1aa07adc9b72",
      "name": "convulsion",
      "url": "https://haz-map.com/Findings/14",
      "category": "findings"
    },
    {
      "type": "name_match",
      "text": "pyridine",
      "confidence": 1.0,
      "uuid": "a2d916a4-844b-4df6-9be5-868b2b364d71",
      "name": "Pyridine",
      "url": "https://haz-map.com/Agents/616",
      "category": "agents"
    },
    {
      "type": "name_match",
      "text": "nitrogen",
      "confidence": 1.0,
      "uuid": "db5e90a9-06d2-45b9-8b81-f345a89b0bc0",
      "name": "Nitrogen",
      "url": "https://haz-map.com/Agents/1072",
      "category": "agents"
    },
    {
      "type": "name_match",
      "text": "ht",
      "confidence": 1.0,
      "uuid": "764df367-8d53-4a11-81a2-31ccfe122a8d",
      "name": "HT",
      "url": "https://haz-map.com/Agents/2168",
      "category": "agents"
    },
    {
      "type": "name_match",
      "text": "quinolinic acid",
      "confidence": 1.0,
      "uuid": "3181935e-dd42-4263-9674-08e3bdd1d352",
      "name": "Quinolinic acid",
      "url": "https://haz-map.com/Agents/6940",
      "category": "agents"
    },
    {
      "type": "name_match",
      "text": "nicotinic acid",
      "confidence": 1.0,
      "uuid": "a2557ad0-66df-43a7-b01e-f9390d8e602f",
      "name": "Nicotinic acid",
      "url": "https://haz-map.com/Agents/15893",
      "category": "agents"
    },
    {
      "type": "name_match",
      "text": "tryptophan",
      "confidence": 1.0,
      "uuid": "6e65ea50-c130-48b7-8f58-412d441749df",
      "name": "Tryptophan",
      "url": "https://haz-map.com/Agents/18463",
      "category": "agents"
    }
  ],
  "all_links": [
    {
      "text": "Search PubMed",
      "url": "https://www.ncbi.nlm.nih.gov/pubmed?term=Quinolinic+acid%20AND%20human%5Bmh%5D%20AND%20%28Occupational%20Diseases%20%5Bmh%5D%20OR%20Occupational%20Exposure%20%5Bmh%5D%29%20%20AND%20%28tox%5Bsb%5D%29&cmd=search"
    }
  ]
}