{
  "metadata": {
    "scraped_from": "https://haz-map.com/Agents/2453",
    "entity_name": "Chromium hexacarbonyl",
    "category": "agents",
    "uuid": "31c55550-92e3-47fa-9e59-0b938cdf1ffc",
    "scraped_at": "2025-07-23T19:13:10.833195"
  },
  "parsed_at": "2025-07-24T01:00:12.323909",
  "title": "Chromium hexacarbonyl",
  "sections": {
    "general": {
      "agent_name": {
        "original_name": "Agent Name",
        "value": "Chromium hexacarbonyl",
        "links": [],
        "cross_references": [
          {
            "type": "name_match",
            "text": "chromium",
            "confidence": 1.0,
            "uuid": "84822d7b-b69c-44a8-96b3-a0e606e38049",
            "name": "Chromium",
            "url": "https://haz-map.com/Agents/7",
            "category": "agents"
          },
          {
            "type": "name_match",
            "text": "carbon",
            "confidence": 1.0,
            "uuid": "b53f8815-ee80-40ef-b4aa-3b000e17dab5",
            "name": "Carbon",
            "url": "https://haz-map.com/Agents/1891",
            "category": "agents"
          },
          {
            "type": "name_match",
            "text": "chromium hexacarbonyl",
            "confidence": 1.0,
            "uuid": "31c55550-92e3-47fa-9e59-0b938cdf1ffc",
            "name": "Chromium hexacarbonyl",
            "url": "https://haz-map.com/Agents/2453",
            "category": "agents"
          }
        ]
      },
      "cas_number": {
        "original_name": "CAS Number",
        "value": "13007-92-6",
        "links": [],
        "cross_references": []
      },
      "formula": {
        "original_name": "Formula",
        "value": "C6-Cr-O6",
        "links": [],
        "cross_references": []
      },
      "major_category": {
        "original_name": "Major Category",
        "value": "Metals",
        "links": [],
        "cross_references": []
      },
      "synonyms": {
        "original_name": "Synonyms",
        "value": "Hexacarbonyl chromium; Chromium carbonyl; [ChemIDplus] UN3466",
        "links": [],
        "cross_references": [
          {
            "type": "name_match",
            "text": "chromium",
            "confidence": 1.0,
            "uuid": "84822d7b-b69c-44a8-96b3-a0e606e38049",
            "name": "Chromium",
            "url": "https://haz-map.com/Agents/7",
            "category": "agents"
          },
          {
            "type": "name_match",
            "text": "carbon",
            "confidence": 1.0,
            "uuid": "b53f8815-ee80-40ef-b4aa-3b000e17dab5",
            "name": "Carbon",
            "url": "https://haz-map.com/Agents/1891",
            "category": "agents"
          }
        ]
      },
      "category": {
        "original_name": "Category",
        "value": "Chromium Compounds, Inorganic",
        "links": [],
        "cross_references": [
          {
            "type": "name_match",
            "text": "chromium",
            "confidence": 1.0,
            "uuid": "84822d7b-b69c-44a8-96b3-a0e606e38049",
            "name": "Chromium",
            "url": "https://haz-map.com/Agents/7",
            "category": "agents"
          }
        ]
      },
      "description": {
        "original_name": "Description",
        "value": "White solid; Sublimes at room temperature; [CAMEO] Insoluble in water; Danger of explosion if heated; [MSDSonline]",
        "links": [],
        "cross_references": [
          {
            "type": "name_match",
            "text": "water",
            "confidence": 1.0,
            "uuid": "6f2a7557-dfd2-49bc-9b4b-a93cd8e225d4",
            "name": "Water",
            "url": "https://haz-map.com/Agents/18668",
            "category": "agents"
          }
        ]
      },
      "sourcesuses": {
        "original_name": "Sources/Uses",
        "value": "Used as a catalyst for olefin polymerization, a gasoline additive, and to prepare chromous oxide; [Merck Index]",
        "links": [],
        "cross_references": [
          {
            "type": "name_match",
            "text": "gasoline",
            "confidence": 1.0,
            "uuid": "af15c833-3eae-46c5-9af4-2214858d7282",
            "name": "Gasoline",
            "url": "https://haz-map.com/Agents/410",
            "category": "agents"
          }
        ]
      },
      "comments": {
        "original_name": "Comments",
        "value": "Skin contact: dermatitis; Inhalation: perforation of nasal septum, lacrimation, and acute hepatitis; [CAMEO] A skin, eye, and respiratory tract irritant; Harmful if ingested, absorbed through skin, or inhaled; Decomposition of carbonyl compounds can yield carbon monoxide; [MSDSonline] \"A water-insoluble chromium [0] compound (chromium carbonyl) did not induce DNA damage in bacteria.\" [IARC] See \"Chromium.\"",
        "links": [],
        "cross_references": [
          {
            "type": "name_match",
            "text": "dermatitis",
            "confidence": 1.0,
            "uuid": "fe9c05f2-b19f-4ceb-ac7a-ffb7d7a0cae0",
            "name": "dermatitis",
            "url": "https://haz-map.com/Findings/59",
            "category": "findings"
          },
          {
            "type": "name_match",
            "text": "lacrimation",
            "confidence": 1.0,
            "uuid": "392ff8e7-90fa-4d6d-8f67-3e49d053ffac",
            "name": "lacrimation",
            "url": "https://haz-map.com/Findings/199",
            "category": "findings"
          },
          {
            "type": "name_match",
            "text": "chromium",
            "confidence": 1.0,
            "uuid": "84822d7b-b69c-44a8-96b3-a0e606e38049",
            "name": "Chromium",
            "url": "https://haz-map.com/Agents/7",
            "category": "agents"
          },
          {
            "type": "name_match",
            "text": "carbon monoxide",
            "confidence": 1.0,
            "uuid": "f8c58714-67a5-498a-8292-a2176c1bf18a",
            "name": "Carbon monoxide",
            "url": "https://haz-map.com/Agents/20",
            "category": "agents"
          },
          {
            "type": "name_match",
            "text": "carbon",
            "confidence": 1.0,
            "uuid": "b53f8815-ee80-40ef-b4aa-3b000e17dab5",
            "name": "Carbon",
            "url": "https://haz-map.com/Agents/1891",
            "category": "agents"
          },
          {
            "type": "name_match",
            "text": "water",
            "confidence": 1.0,
            "uuid": "6f2a7557-dfd2-49bc-9b4b-a93cd8e225d4",
            "name": "Water",
            "url": "https://haz-map.com/Agents/18668",
            "category": "agents"
          }
        ]
      },
      "biomedical_references": {
        "original_name": "Biomedical References",
        "value": "Search PubMed",
        "links": [
          {
            "text": "Search PubMed",
            "url": "https://www.ncbi.nlm.nih.gov/pubmed?term=Chromium+hexacarbonyl%20AND%20human%5Bmh%5D%20AND%20%28Occupational%20Diseases%20%5Bmh%5D%20OR%20Occupational%20Exposure%20%5Bmh%5D%29%20%20AND%20%28tox%5Bsb%5D%29&cmd=search"
          }
        ],
        "cross_references": []
      }
    },
    "exposure_assessment": {
      "vapor_pressure": {
        "original_name": "Vapor Pressure",
        "value": "0.26 mm Hg",
        "links": [],
        "cross_references": []
      },
      "lethal_concentration": {
        "original_name": "Lethal Concentration",
        "value": "LCLo (rat) = 35 mg/ m3/30min",
        "links": [],
        "cross_references": []
      },
      "explanatory_notes": {
        "original_name": "Explanatory Notes",
        "value": "VP = 1 mm Hg at 97 deg F; [CAMEO] Explodes at 204 deg C; [Hawley] VP = 0.26 mmHG at 20 deg C; mp = 150 deg C; [MSDSonline] The Guide in the Emergency Response Guidebook is for \"Metal carbonyls, solid, n.o.s.\"",
        "links": [],
        "cross_references": [
          {
            "type": "name_match",
            "text": "carbon",
            "confidence": 1.0,
            "uuid": "b53f8815-ee80-40ef-b4aa-3b000e17dab5",
            "name": "Carbon",
            "url": "https://haz-map.com/Agents/1891",
            "category": "agents"
          }
        ]
      }
    },
    "adverse_effects": {
      "lachrymator": {
        "original_name": "Lachrymator",
        "value": "Yes",
        "links": [],
        "cross_references": []
      },
      "hepatotoxin": {
        "original_name": "Hepatotoxin",
        "value": "Hepatoxic (a) from occupational exposure (secondary effect) or (b) in animal studies or in humans after ingestion",
        "links": [],
        "cross_references": []
      }
    },
    "diseases_processes_and_activities_linked_to_this_agent": {
      "other_information": {
        "original_name": "Other Information",
        "value": "No other related information on this agent was found.",
        "links": [],
        "cross_references": []
      }
    }
  },
  "cross_references": [
    {
      "type": "name_match",
      "text": "dermatitis",
      "confidence": 1.0,
      "uuid": "fe9c05f2-b19f-4ceb-ac7a-ffb7d7a0cae0",
      "name": "dermatitis",
      "url": "https://haz-map.com/Findings/59",
      "category": "findings"
    },
    {
      "type": "name_match",
      "text": "lacrimation",
      "confidence": 1.0,
      "uuid": "392ff8e7-90fa-4d6d-8f67-3e49d053ffac",
      "name": "lacrimation",
      "url": "https://haz-map.com/Findings/199",
      "category": "findings"
    },
    {
      "type": "name_match",
      "text": "chromium",
      "confidence": 1.0,
      "uuid": "84822d7b-b69c-44a8-96b3-a0e606e38049",
      "name": "Chromium",
      "url": "https://haz-map.com/Agents/7",
      "category": "agents"
    },
    {
      "type": "name_match",
      "text": "carbon monoxide",
      "confidence": 1.0,
      "uuid": "f8c58714-67a5-498a-8292-a2176c1bf18a",
      "name": "Carbon monoxide",
      "url": "https://haz-map.com/Agents/20",
      "category": "agents"
    },
    {
      "type": "name_match",
      "text": "gasoline",
      "confidence": 1.0,
      "uuid": "af15c833-3eae-46c5-9af4-2214858d7282",
      "name": "Gasoline",
      "url": "https://haz-map.com/Agents/410",
      "category": "agents"
    },
    {
      "type": "name_match",
      "text": "carbon",
      "confidence": 1.0,
      "uuid": "b53f8815-ee80-40ef-b4aa-3b000e17dab5",
      "name": "Carbon",
      "url": "https://haz-map.com/Agents/1891",
      "category": "agents"
    },
    {
      "type": "name_match",
      "text": "chromium hexacarbonyl",
      "confidence": 1.0,
      "uuid": "31c55550-92e3-47fa-9e59-0b938cdf1ffc",
      "name": "Chromium hexacarbonyl",
      "url": "https://haz-map.com/Agents/2453",
      "category": "agents"
    },
    {
      "type": "name_match",
      "text": "water",
      "confidence": 1.0,
      "uuid": "6f2a7557-dfd2-49bc-9b4b-a93cd8e225d4",
      "name": "Water",
      "url": "https://haz-map.com/Agents/18668",
      "category": "agents"
    }
  ],
  "all_links": [
    {
      "text": "Search PubMed",
      "url": "https://www.ncbi.nlm.nih.gov/pubmed?term=Chromium+hexacarbonyl%20AND%20human%5Bmh%5D%20AND%20%28Occupational%20Diseases%20%5Bmh%5D%20OR%20Occupational%20Exposure%20%5Bmh%5D%29%20%20AND%20%28tox%5Bsb%5D%29&cmd=search"
    }
  ]
}