{
  "metadata": {
    "scraped_from": "https://haz-map.com/Agents/16575",
    "entity_name": "Phenyl-N-tert-butylnitrone",
    "category": "agents",
    "uuid": "3261e99a-4593-41ef-91e5-3fae0579bdfa",
    "scraped_at": "2025-07-23T21:38:42.646083"
  },
  "parsed_at": "2025-07-24T01:16:55.456029",
  "title": "Phenyl-N-tert-butylnitrone",
  "sections": {
    "general": {
      "agent_name": {
        "original_name": "Agent Name",
        "value": "Phenyl-N-tert-butylnitrone",
        "links": [],
        "cross_references": [
          {
            "type": "name_match",
            "text": "nitron",
            "confidence": 1.0,
            "uuid": "8292f00f-7a71-4a39-aff1-c8872a508194",
            "name": "Nitron",
            "url": "https://haz-map.com/Agents/16004",
            "category": "agents"
          },
          {
            "type": "name_match",
            "text": "phenyl-n-tert-butylnitrone",
            "confidence": 1.0,
            "uuid": "3261e99a-4593-41ef-91e5-3fae0579bdfa",
            "name": "Phenyl-N-tert-butylnitrone",
            "url": "https://haz-map.com/Agents/16575",
            "category": "agents"
          }
        ]
      },
      "alternative_name": {
        "original_name": "Alternative Name",
        "value": "PBN",
        "links": [],
        "cross_references": []
      },
      "cas_number": {
        "original_name": "CAS Number",
        "value": "3376-24-7",
        "links": [],
        "cross_references": []
      },
      "formula": {
        "original_name": "Formula",
        "value": "C11-H15-N-O",
        "links": [],
        "cross_references": []
      },
      "major_category": {
        "original_name": "Major Category",
        "value": "Other Uses",
        "links": [],
        "cross_references": []
      },
      "synonyms": {
        "original_name": "Synonyms",
        "value": "2-Phenyl-N-tert-butylnitrone; Benzylidene-tert-butylamine N-oxide; N-tert-Butyl-2-phenylnitrone; N-tert-Butyl-alpha-phenylnitrone; PBN; alpha-Phenyl-N-t-butylnitrone; alpha-Phenyl-N-tert-butylnitrone; alpha-Phenyl-t-butylnitrone; tert Butylphenylnitrone; 2-Propanamine, 2-methyl-N-(phenylmethylene)-, N-oxide; N-Benzyliden-tert-butylamine N-ether; Nitrone, N-tert-butyl-alpha-phenyl- (6CI,7CI,8CI); [ChemIDplus] 2-Methyl-N-(phenylmethylene)-2-propanamine N-oxide; Benzylidene-tert-butylamine oxide; [Merck Index]",
        "links": [],
        "cross_references": [
          {
            "type": "name_match",
            "text": "ethylene",
            "confidence": 1.0,
            "uuid": "958eacc0-5135-4b62-bb93-6df972bf552f",
            "name": "Ethylene",
            "url": "https://haz-map.com/Agents/1076",
            "category": "agents"
          },
          {
            "type": "name_match",
            "text": "tert-butylamine",
            "confidence": 1.0,
            "uuid": "b37c84b6-be68-455a-8296-ccca8cd6a625",
            "name": "tert-Butylamine",
            "url": "https://haz-map.com/Agents/1389",
            "category": "agents"
          },
          {
            "type": "name_match",
            "text": "nitron",
            "confidence": 1.0,
            "uuid": "8292f00f-7a71-4a39-aff1-c8872a508194",
            "name": "Nitron",
            "url": "https://haz-map.com/Agents/16004",
            "category": "agents"
          },
          {
            "type": "name_match",
            "text": "phenyl-n-tert-butylnitrone",
            "confidence": 1.0,
            "uuid": "3261e99a-4593-41ef-91e5-3fae0579bdfa",
            "name": "Phenyl-N-tert-butylnitrone",
            "url": "https://haz-map.com/Agents/16575",
            "category": "agents"
          }
        ]
      },
      "category": {
        "original_name": "Category",
        "value": "Biochemical Research",
        "links": [],
        "cross_references": [
          {
            "type": "name_match",
            "text": "mica",
            "confidence": 1.0,
            "uuid": "433f26f1-c399-4596-b179-ce3843cfd465",
            "name": "Mica",
            "url": "https://haz-map.com/Agents/621",
            "category": "agents"
          }
        ]
      },
      "description": {
        "original_name": "Description",
        "value": "Solid; [Merck Index] White crystalline needles; [Alfa Aesar MSDS]",
        "links": [],
        "cross_references": [
          {
            "type": "fuzzy_match",
            "text": "crystalline",
            "matched_name": "Silica, crystalline",
            "confidence": 0.7061403508771931,
            "uuid": "f920e8a2-46df-41b7-af8d-0368a777251e",
            "category": "agents",
            "url": "https://haz-map.com/Agents/427"
          }
        ]
      },
      "sourcesuses": {
        "original_name": "Sources/Uses",
        "value": "Used as a spin trap for free radicals; [Merck Index]",
        "links": [],
        "cross_references": []
      },
      "comments": {
        "original_name": "Comments",
        "value": "Causes convulsions in intravenous lethal-dose studies of mice (LDLo = 200 mg/kg); [RTECS] May cause irritation; [Alfa Aesar MSDS]",
        "links": [],
        "cross_references": [
          {
            "type": "name_match",
            "text": "convulsion",
            "confidence": 1.0,
            "uuid": "af2c36f8-707a-48e3-a62b-1aa07adc9b72",
            "name": "convulsion",
            "url": "https://haz-map.com/Findings/14",
            "category": "findings"
          }
        ]
      },
      "biomedical_references": {
        "original_name": "Biomedical References",
        "value": "Search PubMed",
        "links": [
          {
            "text": "Search PubMed",
            "url": "https://www.ncbi.nlm.nih.gov/pubmed?term=Phenyl-N-tert-butylnitrone%20AND%20human%5Bmh%5D%20AND%20%28Occupational%20Diseases%20%5Bmh%5D%20OR%20Occupational%20Exposure%20%5Bmh%5D%29%20%20AND%20%28tox%5Bsb%5D%29&cmd=search"
          }
        ],
        "cross_references": []
      }
    },
    "exposure_assessment": {
      "vapor_pressure": {
        "original_name": "Vapor Pressure",
        "value": "4.33E-07 mm Hg",
        "links": [],
        "cross_references": []
      }
    },
    "diseases_processes_and_activities_linked_to_this_agent": {
      "other_information": {
        "original_name": "Other Information",
        "value": "No other related information on this agent was found.",
        "links": [],
        "cross_references": []
      }
    }
  },
  "cross_references": [
    {
      "type": "name_match",
      "text": "convulsion",
      "confidence": 1.0,
      "uuid": "af2c36f8-707a-48e3-a62b-1aa07adc9b72",
      "name": "convulsion",
      "url": "https://haz-map.com/Findings/14",
      "category": "findings"
    },
    {
      "type": "name_match",
      "text": "mica",
      "confidence": 1.0,
      "uuid": "433f26f1-c399-4596-b179-ce3843cfd465",
      "name": "Mica",
      "url": "https://haz-map.com/Agents/621",
      "category": "agents"
    },
    {
      "type": "name_match",
      "text": "ethylene",
      "confidence": 1.0,
      "uuid": "958eacc0-5135-4b62-bb93-6df972bf552f",
      "name": "Ethylene",
      "url": "https://haz-map.com/Agents/1076",
      "category": "agents"
    },
    {
      "type": "name_match",
      "text": "tert-butylamine",
      "confidence": 1.0,
      "uuid": "b37c84b6-be68-455a-8296-ccca8cd6a625",
      "name": "tert-Butylamine",
      "url": "https://haz-map.com/Agents/1389",
      "category": "agents"
    },
    {
      "type": "name_match",
      "text": "nitron",
      "confidence": 1.0,
      "uuid": "8292f00f-7a71-4a39-aff1-c8872a508194",
      "name": "Nitron",
      "url": "https://haz-map.com/Agents/16004",
      "category": "agents"
    },
    {
      "type": "name_match",
      "text": "phenyl-n-tert-butylnitrone",
      "confidence": 1.0,
      "uuid": "3261e99a-4593-41ef-91e5-3fae0579bdfa",
      "name": "Phenyl-N-tert-butylnitrone",
      "url": "https://haz-map.com/Agents/16575",
      "category": "agents"
    },
    {
      "type": "fuzzy_match",
      "text": "crystalline",
      "matched_name": "Silica, crystalline",
      "confidence": 0.7061403508771931,
      "uuid": "f920e8a2-46df-41b7-af8d-0368a777251e",
      "category": "agents",
      "url": "https://haz-map.com/Agents/427"
    }
  ],
  "all_links": [
    {
      "text": "Search PubMed",
      "url": "https://www.ncbi.nlm.nih.gov/pubmed?term=Phenyl-N-tert-butylnitrone%20AND%20human%5Bmh%5D%20AND%20%28Occupational%20Diseases%20%5Bmh%5D%20OR%20Occupational%20Exposure%20%5Bmh%5D%29%20%20AND%20%28tox%5Bsb%5D%29&cmd=search"
    }
  ]
}