{
  "metadata": {
    "scraped_from": "https://haz-map.com/Agents/6505",
    "entity_name": "p-Chlorostyrene",
    "category": "agents",
    "uuid": "327bd49e-ec54-4e2b-aa0a-b45559d4075c",
    "scraped_at": "2025-07-23T20:02:36.643129"
  },
  "parsed_at": "2025-07-24T00:54:00.557515",
  "title": "p-Chlorostyrene",
  "sections": {
    "general": {
      "agent_name": {
        "original_name": "Agent Name",
        "value": "p-Chlorostyrene",
        "links": [],
        "cross_references": [
          {
            "type": "name_match",
            "text": "styrene",
            "confidence": 1.0,
            "uuid": "03c5632f-5079-4688-82bd-0dacf3d0d36a",
            "name": "Styrene",
            "url": "https://haz-map.com/Agents/32",
            "category": "agents"
          },
          {
            "type": "name_match",
            "text": "p-chlorostyrene",
            "confidence": 1.0,
            "uuid": "327bd49e-ec54-4e2b-aa0a-b45559d4075c",
            "name": "p-Chlorostyrene",
            "url": "https://haz-map.com/Agents/6505",
            "category": "agents"
          }
        ]
      },
      "cas_number": {
        "original_name": "CAS Number",
        "value": "1073-67-2",
        "links": [],
        "cross_references": []
      },
      "formula": {
        "original_name": "Formula",
        "value": "C8-H7-Cl",
        "links": [],
        "cross_references": []
      },
      "major_category": {
        "original_name": "Major Category",
        "value": "Plastics & Rubber",
        "links": [],
        "cross_references": []
      },
      "synonyms": {
        "original_name": "Synonyms",
        "value": "4-Chlorostyrene; Benzene, 1-chloro-4-ethenyl-; Parachlorostyrene; Styrene, 4-chloro-; Styrene, p-chloro-; [ChemIDplus]",
        "links": [],
        "cross_references": [
          {
            "type": "name_match",
            "text": "benzene",
            "confidence": 1.0,
            "uuid": "b05124de-5f34-4c14-8f04-ccb20c3780d9",
            "name": "Benzene",
            "url": "https://haz-map.com/Agents/5",
            "category": "agents"
          },
          {
            "type": "name_match",
            "text": "styrene",
            "confidence": 1.0,
            "uuid": "03c5632f-5079-4688-82bd-0dacf3d0d36a",
            "name": "Styrene",
            "url": "https://haz-map.com/Agents/32",
            "category": "agents"
          }
        ]
      },
      "category": {
        "original_name": "Category",
        "value": "Styrenes",
        "links": [],
        "cross_references": [
          {
            "type": "name_match",
            "text": "styrene",
            "confidence": 1.0,
            "uuid": "03c5632f-5079-4688-82bd-0dacf3d0d36a",
            "name": "Styrene",
            "url": "https://haz-map.com/Agents/32",
            "category": "agents"
          }
        ]
      },
      "description": {
        "original_name": "Description",
        "value": "Colorless liquid; [MSDSonline]",
        "links": [],
        "cross_references": []
      },
      "sourcesuses": {
        "original_name": "Sources/Uses",
        "value": "Used to make polychlorostyrene; [HSDB]",
        "links": [],
        "cross_references": [
          {
            "type": "name_match",
            "text": "styrene",
            "confidence": 1.0,
            "uuid": "03c5632f-5079-4688-82bd-0dacf3d0d36a",
            "name": "Styrene",
            "url": "https://haz-map.com/Agents/32",
            "category": "agents"
          }
        ]
      },
      "comments": {
        "original_name": "Comments",
        "value": "An irritant; [MSDSonline] See \"o-Chlorostyrene.\" See \"Styrene.\"",
        "links": [],
        "cross_references": [
          {
            "type": "name_match",
            "text": "styrene",
            "confidence": 1.0,
            "uuid": "03c5632f-5079-4688-82bd-0dacf3d0d36a",
            "name": "Styrene",
            "url": "https://haz-map.com/Agents/32",
            "category": "agents"
          },
          {
            "type": "name_match",
            "text": "o-chlorostyrene",
            "confidence": 1.0,
            "uuid": "5f97d67a-77ca-457f-9110-053086173e05",
            "name": "o-Chlorostyrene",
            "url": "https://haz-map.com/Agents/363",
            "category": "agents"
          }
        ]
      },
      "biomedical_references": {
        "original_name": "Biomedical References",
        "value": "Search PubMed",
        "links": [
          {
            "text": "Search PubMed",
            "url": "https://www.ncbi.nlm.nih.gov/pubmed?term=p-Chlorostyrene%20AND%20human%5Bmh%5D%20AND%20%28Occupational%20Diseases%20%5Bmh%5D%20OR%20Occupational%20Exposure%20%5Bmh%5D%29%20%20AND%20%28tox%5Bsb%5D%29&cmd=search"
          }
        ],
        "cross_references": []
      }
    },
    "exposure_assessment": {
      "vapor_pressure": {
        "original_name": "Vapor Pressure",
        "value": "0.816 mm Hg",
        "links": [],
        "cross_references": []
      }
    },
    "adverse_effects": {
      "neurotoxin": {
        "original_name": "Neurotoxin",
        "value": "Acute solvent syndrome",
        "links": [],
        "cross_references": []
      },
      "hepatotoxin": {
        "original_name": "Hepatotoxin",
        "value": "Hepatoxic (a) from occupational exposure (secondary effect) or (b) in animal studies or in humans after ingestion",
        "links": [],
        "cross_references": []
      }
    },
    "diseases_processes_and_activities_linked_to_this_agent": {
      "diseases": {
        "original_name": "Diseases",
        "value": "Occupational diseases associated with exposure to this agent: Solvents, acute toxic effect",
        "links": [
          {
            "text": "Solvents, acute toxic effect",
            "url": "https://haz-map.com/Diseases/326"
          }
        ],
        "cross_references": [
          {
            "type": "url_match",
            "text": "Solvents, acute toxic effect",
            "url": "https://haz-map.com/Diseases/326",
            "confidence": 1.0,
            "uuid": "581e90e3-9d0c-45f0-aa6c-3468c28da129",
            "name": "Solvents, acute toxic effect",
            "category": "diseases"
          }
        ]
      }
    }
  },
  "cross_references": [
    {
      "type": "url_match",
      "text": "Solvents, acute toxic effect",
      "url": "https://haz-map.com/Diseases/326",
      "confidence": 1.0,
      "uuid": "581e90e3-9d0c-45f0-aa6c-3468c28da129",
      "name": "Solvents, acute toxic effect",
      "category": "diseases"
    },
    {
      "type": "name_match",
      "text": "benzene",
      "confidence": 1.0,
      "uuid": "b05124de-5f34-4c14-8f04-ccb20c3780d9",
      "name": "Benzene",
      "url": "https://haz-map.com/Agents/5",
      "category": "agents"
    },
    {
      "type": "name_match",
      "text": "styrene",
      "confidence": 1.0,
      "uuid": "03c5632f-5079-4688-82bd-0dacf3d0d36a",
      "name": "Styrene",
      "url": "https://haz-map.com/Agents/32",
      "category": "agents"
    },
    {
      "type": "name_match",
      "text": "o-chlorostyrene",
      "confidence": 1.0,
      "uuid": "5f97d67a-77ca-457f-9110-053086173e05",
      "name": "o-Chlorostyrene",
      "url": "https://haz-map.com/Agents/363",
      "category": "agents"
    },
    {
      "type": "name_match",
      "text": "p-chlorostyrene",
      "confidence": 1.0,
      "uuid": "327bd49e-ec54-4e2b-aa0a-b45559d4075c",
      "name": "p-Chlorostyrene",
      "url": "https://haz-map.com/Agents/6505",
      "category": "agents"
    }
  ],
  "all_links": [
    {
      "text": "Search PubMed",
      "url": "https://www.ncbi.nlm.nih.gov/pubmed?term=p-Chlorostyrene%20AND%20human%5Bmh%5D%20AND%20%28Occupational%20Diseases%20%5Bmh%5D%20OR%20Occupational%20Exposure%20%5Bmh%5D%29%20%20AND%20%28tox%5Bsb%5D%29&cmd=search"
    },
    {
      "text": "Solvents, acute toxic effect",
      "url": "https://haz-map.com/Diseases/326"
    }
  ]
}