{
  "metadata": {
    "scraped_from": "https://haz-map.com/Agents/10901",
    "entity_name": "2-Methyl-1,2-epoxypropane",
    "category": "agents",
    "uuid": "3293cf59-1497-4488-a61c-31e4ad280af6",
    "scraped_at": "2025-07-23T20:54:07.843313"
  },
  "parsed_at": "2025-07-24T01:12:10.333365",
  "title": "2-Methyl-1,2-epoxypropane",
  "sections": {
    "general": {
      "agent_name": {
        "original_name": "Agent Name",
        "value": "2-Methyl-1,2-epoxypropane",
        "links": [],
        "cross_references": [
          {
            "type": "name_match",
            "text": "propane",
            "confidence": 1.0,
            "uuid": "563a611b-46ea-4bdc-b77b-17d8f7646283",
            "name": "Propane",
            "url": "https://haz-map.com/Agents/607",
            "category": "agents"
          },
          {
            "type": "name_match",
            "text": "2-methyl-1,2-epoxypropane",
            "confidence": 1.0,
            "uuid": "3293cf59-1497-4488-a61c-31e4ad280af6",
            "name": "2-Methyl-1,2-epoxypropane",
            "url": "https://haz-map.com/Agents/10901",
            "category": "agents"
          }
        ]
      },
      "cas_number": {
        "original_name": "CAS Number",
        "value": "558-30-5",
        "links": [],
        "cross_references": []
      },
      "formula": {
        "original_name": "Formula",
        "value": "C4-H8-O",
        "links": [],
        "cross_references": []
      },
      "major_category": {
        "original_name": "Major Category",
        "value": "Plastics & Rubber",
        "links": [],
        "cross_references": []
      },
      "synonyms": {
        "original_name": "Synonyms",
        "value": "1,1-Dimethylethylene oxide; 1,2-Epoxy-2-methylpropane; 1,2-Epoxyisobutane; 1,2-Isobutylene oxide; 2,2-Dimethyloxirane; 2-Methyl-1-propene oxide; Isobutene oxide; Isobutylene epoxide; Isobutylene oxide; Isobutyleneoxide; Oxirane, 2,2-dimethyl-; Propane, 1,2-epoxy-2-methyl-; [ChemIDplus] UN1993",
        "links": [],
        "cross_references": [
          {
            "type": "name_match",
            "text": "ethylene oxide",
            "confidence": 1.0,
            "uuid": "df29ee36-6345-4c09-b2c3-e3501b1449ec",
            "name": "Ethylene oxide",
            "url": "https://haz-map.com/Agents/21",
            "category": "agents"
          },
          {
            "type": "name_match",
            "text": "propane",
            "confidence": 1.0,
            "uuid": "563a611b-46ea-4bdc-b77b-17d8f7646283",
            "name": "Propane",
            "url": "https://haz-map.com/Agents/607",
            "category": "agents"
          },
          {
            "type": "name_match",
            "text": "ethylene",
            "confidence": 1.0,
            "uuid": "958eacc0-5135-4b62-bb93-6df972bf552f",
            "name": "Ethylene",
            "url": "https://haz-map.com/Agents/1076",
            "category": "agents"
          },
          {
            "type": "name_match",
            "text": "isobutane",
            "confidence": 1.0,
            "uuid": "9a4cf2e6-02b0-45a3-8589-afc3acf47e00",
            "name": "Isobutane",
            "url": "https://haz-map.com/Agents/1534",
            "category": "agents"
          },
          {
            "type": "name_match",
            "text": "isobutylene",
            "confidence": 1.0,
            "uuid": "6a2033c7-081c-4035-b361-f4b2f5e0d7fb",
            "name": "Isobutylene",
            "url": "https://haz-map.com/Agents/5678",
            "category": "agents"
          }
        ]
      },
      "category": {
        "original_name": "Category",
        "value": "Epoxides",
        "links": [],
        "cross_references": []
      },
      "description": {
        "original_name": "Description",
        "value": "Colorless liquid; [Alfa Aesar MSDS]",
        "links": [],
        "cross_references": []
      },
      "comments": {
        "original_name": "Comments",
        "value": "An irritant; [Alfa Aesar MSDS] See \"Propylene oxide.\"",
        "links": [],
        "cross_references": [
          {
            "type": "name_match",
            "text": "propylene oxide",
            "confidence": 1.0,
            "uuid": "ba4ef42b-914d-42fd-b05e-f2b28e97be37",
            "name": "Propylene oxide",
            "url": "https://haz-map.com/Agents/423",
            "category": "agents"
          },
          {
            "type": "name_match",
            "text": "propylene",
            "confidence": 1.0,
            "uuid": "78ac73a1-0029-4a50-b283-561134c72041",
            "name": "Propylene",
            "url": "https://haz-map.com/Agents/1078",
            "category": "agents"
          }
        ]
      },
      "biomedical_references": {
        "original_name": "Biomedical References",
        "value": "Search PubMed",
        "links": [
          {
            "text": "Search PubMed",
            "url": "https://www.ncbi.nlm.nih.gov/pubmed?term=2-Methyl-1%2c2-epoxypropane%20AND%20human%5Bmh%5D%20AND%20%28Occupational%20Diseases%20%5Bmh%5D%20OR%20Occupational%20Exposure%20%5Bmh%5D%29%20%20AND%20%28tox%5Bsb%5D%29&cmd=search"
          }
        ],
        "cross_references": []
      }
    },
    "exposure_assessment": {
      "vapor_pressure": {
        "original_name": "Vapor Pressure",
        "value": "387 mm Hg",
        "links": [],
        "cross_references": []
      },
      "explanatory_notes": {
        "original_name": "Explanatory Notes",
        "value": "The Guide in the Emergency Response Guidebook is for \"Flammable liquid, n.o.s.\" VP from ChemIDplus;",
        "links": [],
        "cross_references": []
      }
    },
    "diseases_processes_and_activities_linked_to_this_agent": {
      "other_information": {
        "original_name": "Other Information",
        "value": "No other related information on this agent was found.",
        "links": [],
        "cross_references": []
      }
    }
  },
  "cross_references": [
    {
      "type": "name_match",
      "text": "ethylene oxide",
      "confidence": 1.0,
      "uuid": "df29ee36-6345-4c09-b2c3-e3501b1449ec",
      "name": "Ethylene oxide",
      "url": "https://haz-map.com/Agents/21",
      "category": "agents"
    },
    {
      "type": "name_match",
      "text": "propylene oxide",
      "confidence": 1.0,
      "uuid": "ba4ef42b-914d-42fd-b05e-f2b28e97be37",
      "name": "Propylene oxide",
      "url": "https://haz-map.com/Agents/423",
      "category": "agents"
    },
    {
      "type": "name_match",
      "text": "propane",
      "confidence": 1.0,
      "uuid": "563a611b-46ea-4bdc-b77b-17d8f7646283",
      "name": "Propane",
      "url": "https://haz-map.com/Agents/607",
      "category": "agents"
    },
    {
      "type": "name_match",
      "text": "ethylene",
      "confidence": 1.0,
      "uuid": "958eacc0-5135-4b62-bb93-6df972bf552f",
      "name": "Ethylene",
      "url": "https://haz-map.com/Agents/1076",
      "category": "agents"
    },
    {
      "type": "name_match",
      "text": "propylene",
      "confidence": 1.0,
      "uuid": "78ac73a1-0029-4a50-b283-561134c72041",
      "name": "Propylene",
      "url": "https://haz-map.com/Agents/1078",
      "category": "agents"
    },
    {
      "type": "name_match",
      "text": "isobutane",
      "confidence": 1.0,
      "uuid": "9a4cf2e6-02b0-45a3-8589-afc3acf47e00",
      "name": "Isobutane",
      "url": "https://haz-map.com/Agents/1534",
      "category": "agents"
    },
    {
      "type": "name_match",
      "text": "isobutylene",
      "confidence": 1.0,
      "uuid": "6a2033c7-081c-4035-b361-f4b2f5e0d7fb",
      "name": "Isobutylene",
      "url": "https://haz-map.com/Agents/5678",
      "category": "agents"
    },
    {
      "type": "name_match",
      "text": "2-methyl-1,2-epoxypropane",
      "confidence": 1.0,
      "uuid": "3293cf59-1497-4488-a61c-31e4ad280af6",
      "name": "2-Methyl-1,2-epoxypropane",
      "url": "https://haz-map.com/Agents/10901",
      "category": "agents"
    }
  ],
  "all_links": [
    {
      "text": "Search PubMed",
      "url": "https://www.ncbi.nlm.nih.gov/pubmed?term=2-Methyl-1%2c2-epoxypropane%20AND%20human%5Bmh%5D%20AND%20%28Occupational%20Diseases%20%5Bmh%5D%20OR%20Occupational%20Exposure%20%5Bmh%5D%29%20%20AND%20%28tox%5Bsb%5D%29&cmd=search"
    }
  ]
}