{
  "metadata": {
    "scraped_from": "https://haz-map.com/Agents/1583",
    "entity_name": "1,3,5-Trinitrobenzene",
    "category": "agents",
    "uuid": "32e8c7bd-b41c-4905-9ffe-fe68dbec0d5f",
    "scraped_at": "2025-07-23T19:01:40.125338"
  },
  "parsed_at": "2025-07-24T00:59:30.033938",
  "title": "1,3,5-Trinitrobenzene",
  "sections": {
    "general": {
      "agent_name": {
        "original_name": "Agent Name",
        "value": "1,3,5-Trinitrobenzene",
        "links": [],
        "cross_references": [
          {
            "type": "name_match",
            "text": "benzene",
            "confidence": 1.0,
            "uuid": "b05124de-5f34-4c14-8f04-ccb20c3780d9",
            "name": "Benzene",
            "url": "https://haz-map.com/Agents/5",
            "category": "agents"
          },
          {
            "type": "name_match",
            "text": "nitrobenzene",
            "confidence": 1.0,
            "uuid": "4488262c-4790-4774-a462-bf0cc71ff40c",
            "name": "Nitrobenzene",
            "url": "https://haz-map.com/Agents/569",
            "category": "agents"
          },
          {
            "type": "name_match",
            "text": "1,3,5-trinitrobenzene",
            "confidence": 1.0,
            "uuid": "32e8c7bd-b41c-4905-9ffe-fe68dbec0d5f",
            "name": "1,3,5-Trinitrobenzene",
            "url": "https://haz-map.com/Agents/1583",
            "category": "agents"
          }
        ]
      },
      "cas_number": {
        "original_name": "CAS Number",
        "value": "99-35-4",
        "links": [],
        "cross_references": []
      },
      "formula": {
        "original_name": "Formula",
        "value": "C6-H3-N3-O6",
        "links": [],
        "cross_references": []
      },
      "major_category": {
        "original_name": "Major Category",
        "value": "Nitrogen Compounds",
        "links": [],
        "cross_references": [
          {
            "type": "name_match",
            "text": "nitrogen",
            "confidence": 1.0,
            "uuid": "db5e90a9-06d2-45b9-8b81-f345a89b0bc0",
            "name": "Nitrogen",
            "url": "https://haz-map.com/Agents/1072",
            "category": "agents"
          }
        ]
      },
      "synonyms": {
        "original_name": "Synonyms",
        "value": "sym-Trinitrobenzene; Benzene, 1,3,5-trinitro-; Benzene, trinitro- (wet); Benzite; TNB; Trinitrobenzeen [Dutch]; Trinitrobenzene; Trinitrobenzol [German]; s-Trinitrobenzene; symmetric Trinitrobenzene; syn-Trinitrobenzene; UN0214; UN1354; [ChemIDplus]",
        "links": [],
        "cross_references": [
          {
            "type": "name_match",
            "text": "benzene",
            "confidence": 1.0,
            "uuid": "b05124de-5f34-4c14-8f04-ccb20c3780d9",
            "name": "Benzene",
            "url": "https://haz-map.com/Agents/5",
            "category": "agents"
          },
          {
            "type": "name_match",
            "text": "nitrobenzene",
            "confidence": 1.0,
            "uuid": "4488262c-4790-4774-a462-bf0cc71ff40c",
            "name": "Nitrobenzene",
            "url": "https://haz-map.com/Agents/569",
            "category": "agents"
          }
        ]
      },
      "category": {
        "original_name": "Category",
        "value": "Nitros, Aromatic",
        "links": [],
        "cross_references": []
      },
      "description": {
        "original_name": "Description",
        "value": "Yellow crystals--will explode if heated; [ATSDR-PHS]",
        "links": [],
        "cross_references": []
      },
      "sourcesuses": {
        "original_name": "Sources/Uses",
        "value": "Used to make rubber; A by-product of trinitrotoluene (TNT) production; [ATSDR-PHS]",
        "links": [],
        "cross_references": [
          {
            "type": "name_match",
            "text": "toluene",
            "confidence": 1.0,
            "uuid": "0a34d5de-e924-4c47-aff5-7ae8e48c6772",
            "name": "Toluene",
            "url": "https://haz-map.com/Agents/83",
            "category": "agents"
          }
        ]
      },
      "comments": {
        "original_name": "Comments",
        "value": "\"1,3-DNB and 1,3,5-TNB are suspected to cause similar health effects.\" [ATSDR-PHS] See \"m-Dinitrobenzene.\"",
        "links": [],
        "cross_references": [
          {
            "type": "name_match",
            "text": "benzene",
            "confidence": 1.0,
            "uuid": "b05124de-5f34-4c14-8f04-ccb20c3780d9",
            "name": "Benzene",
            "url": "https://haz-map.com/Agents/5",
            "category": "agents"
          },
          {
            "type": "name_match",
            "text": "m-dinitrobenzene",
            "confidence": 1.0,
            "uuid": "1eea28ff-ed73-4069-aea6-c4cb833df7e6",
            "name": "m-Dinitrobenzene",
            "url": "https://haz-map.com/Agents/469",
            "category": "agents"
          },
          {
            "type": "name_match",
            "text": "nitrobenzene",
            "confidence": 1.0,
            "uuid": "4488262c-4790-4774-a462-bf0cc71ff40c",
            "name": "Nitrobenzene",
            "url": "https://haz-map.com/Agents/569",
            "category": "agents"
          },
          {
            "type": "name_match",
            "text": "dinitrobenzene",
            "confidence": 1.0,
            "uuid": "49a0ec1f-8ee6-407d-8c6a-4edfe755be12",
            "name": "Dinitrobenzene",
            "url": "https://haz-map.com/Agents/4975",
            "category": "agents"
          }
        ]
      },
      "reference_link_1": {
        "original_name": "Reference Link #1",
        "value": "ATSDR - Public Health Statement: 1,3-Dinitrobenzene and 1,3,5-Trinitrobenzene (1,3-DNB and 1,3,5-TNB)",
        "links": [
          {
            "text": "ATSDR - Public Health Statement: 1,3-Dinitrobenzene and 1,3,5-Trinitrobenzene (1,3-DNB and 1,3,5-TNB)",
            "url": "http://www.atsdr.cdc.gov/phs/phs.asp?id=840&tid=164"
          }
        ],
        "cross_references": [
          {
            "type": "name_match",
            "text": "benzene",
            "confidence": 1.0,
            "uuid": "b05124de-5f34-4c14-8f04-ccb20c3780d9",
            "name": "Benzene",
            "url": "https://haz-map.com/Agents/5",
            "category": "agents"
          },
          {
            "type": "name_match",
            "text": "nitrobenzene",
            "confidence": 1.0,
            "uuid": "4488262c-4790-4774-a462-bf0cc71ff40c",
            "name": "Nitrobenzene",
            "url": "https://haz-map.com/Agents/569",
            "category": "agents"
          },
          {
            "type": "name_match",
            "text": "1,3,5-trinitrobenzene",
            "confidence": 1.0,
            "uuid": "32e8c7bd-b41c-4905-9ffe-fe68dbec0d5f",
            "name": "1,3,5-Trinitrobenzene",
            "url": "https://haz-map.com/Agents/1583",
            "category": "agents"
          },
          {
            "type": "name_match",
            "text": "dinitrobenzene",
            "confidence": 1.0,
            "uuid": "49a0ec1f-8ee6-407d-8c6a-4edfe755be12",
            "name": "Dinitrobenzene",
            "url": "https://haz-map.com/Agents/4975",
            "category": "agents"
          }
        ]
      },
      "biomedical_references": {
        "original_name": "Biomedical References",
        "value": "Search PubMed",
        "links": [
          {
            "text": "Search PubMed",
            "url": "https://www.ncbi.nlm.nih.gov/pubmed?term=1%2c3%2c5-Trinitrobenzene%20AND%20human%5Bmh%5D%20AND%20%28Occupational%20Diseases%20%5Bmh%5D%20OR%20Occupational%20Exposure%20%5Bmh%5D%29%20%20AND%20%28tox%5Bsb%5D%29&cmd=search"
          }
        ],
        "cross_references": []
      }
    },
    "exposure_assessment": {
      "vapor_pressure": {
        "original_name": "Vapor Pressure",
        "value": "3.2E-06 mm Hg",
        "links": [],
        "cross_references": []
      }
    },
    "adverse_effects": {
      "methemoglobinemia": {
        "original_name": "Methemoglobinemia",
        "value": "MetHgb is secondary toxic effect",
        "links": [],
        "cross_references": []
      },
      "hepatotoxin": {
        "original_name": "Hepatotoxin",
        "value": "Hepatoxic (a) from occupational exposure (secondary effect) or (b) in animal studies or in humans after ingestion",
        "links": [],
        "cross_references": []
      }
    },
    "diseases_processes_and_activities_linked_to_this_agent": {
      "other_information": {
        "original_name": "Other Information",
        "value": "No other related information on this agent was found.",
        "links": [],
        "cross_references": []
      }
    }
  },
  "cross_references": [
    {
      "type": "name_match",
      "text": "benzene",
      "confidence": 1.0,
      "uuid": "b05124de-5f34-4c14-8f04-ccb20c3780d9",
      "name": "Benzene",
      "url": "https://haz-map.com/Agents/5",
      "category": "agents"
    },
    {
      "type": "name_match",
      "text": "toluene",
      "confidence": 1.0,
      "uuid": "0a34d5de-e924-4c47-aff5-7ae8e48c6772",
      "name": "Toluene",
      "url": "https://haz-map.com/Agents/83",
      "category": "agents"
    },
    {
      "type": "name_match",
      "text": "m-dinitrobenzene",
      "confidence": 1.0,
      "uuid": "1eea28ff-ed73-4069-aea6-c4cb833df7e6",
      "name": "m-Dinitrobenzene",
      "url": "https://haz-map.com/Agents/469",
      "category": "agents"
    },
    {
      "type": "name_match",
      "text": "nitrobenzene",
      "confidence": 1.0,
      "uuid": "4488262c-4790-4774-a462-bf0cc71ff40c",
      "name": "Nitrobenzene",
      "url": "https://haz-map.com/Agents/569",
      "category": "agents"
    },
    {
      "type": "name_match",
      "text": "nitrogen",
      "confidence": 1.0,
      "uuid": "db5e90a9-06d2-45b9-8b81-f345a89b0bc0",
      "name": "Nitrogen",
      "url": "https://haz-map.com/Agents/1072",
      "category": "agents"
    },
    {
      "type": "name_match",
      "text": "1,3,5-trinitrobenzene",
      "confidence": 1.0,
      "uuid": "32e8c7bd-b41c-4905-9ffe-fe68dbec0d5f",
      "name": "1,3,5-Trinitrobenzene",
      "url": "https://haz-map.com/Agents/1583",
      "category": "agents"
    },
    {
      "type": "name_match",
      "text": "dinitrobenzene",
      "confidence": 1.0,
      "uuid": "49a0ec1f-8ee6-407d-8c6a-4edfe755be12",
      "name": "Dinitrobenzene",
      "url": "https://haz-map.com/Agents/4975",
      "category": "agents"
    }
  ],
  "all_links": [
    {
      "text": "ATSDR - Public Health Statement: 1,3-Dinitrobenzene and 1,3,5-Trinitrobenzene (1,3-DNB and 1,3,5-TNB)",
      "url": "http://www.atsdr.cdc.gov/phs/phs.asp?id=840&tid=164"
    },
    {
      "text": "Search PubMed",
      "url": "https://www.ncbi.nlm.nih.gov/pubmed?term=1%2c3%2c5-Trinitrobenzene%20AND%20human%5Bmh%5D%20AND%20%28Occupational%20Diseases%20%5Bmh%5D%20OR%20Occupational%20Exposure%20%5Bmh%5D%29%20%20AND%20%28tox%5Bsb%5D%29&cmd=search"
    }
  ]
}