{
  "metadata": {
    "scraped_from": "https://haz-map.com/Agents/2839",
    "entity_name": "1-Acetyl-2-thiourea",
    "category": "agents",
    "uuid": "3353610a-187d-4caa-a217-fa568153eb6d",
    "scraped_at": "2025-07-23T19:19:40.642642"
  },
  "parsed_at": "2025-07-24T00:54:07.725737",
  "title": "1-Acetyl-2-thiourea",
  "sections": {
    "general": {
      "agent_name": {
        "original_name": "Agent Name",
        "value": "1-Acetyl-2-thiourea",
        "links": [],
        "cross_references": [
          {
            "type": "name_match",
            "text": "thiourea",
            "confidence": 1.0,
            "uuid": "9d84caab-5d53-428a-985f-be88dd4db13f",
            "name": "Thiourea",
            "url": "https://haz-map.com/Agents/998",
            "category": "agents"
          },
          {
            "type": "name_match",
            "text": "urea",
            "confidence": 1.0,
            "uuid": "a92a6129-bddd-4f79-9a78-136812ae610f",
            "name": "Urea",
            "url": "https://haz-map.com/Agents/2078",
            "category": "agents"
          },
          {
            "type": "name_match",
            "text": "1-acetyl-2-thiourea",
            "confidence": 1.0,
            "uuid": "3353610a-187d-4caa-a217-fa568153eb6d",
            "name": "1-Acetyl-2-thiourea",
            "url": "https://haz-map.com/Agents/2839",
            "category": "agents"
          }
        ]
      },
      "cas_number": {
        "original_name": "CAS Number",
        "value": "591-08-2",
        "links": [],
        "cross_references": []
      },
      "formula": {
        "original_name": "Formula",
        "value": "C3-H6-N2-O-S",
        "links": [],
        "cross_references": []
      },
      "major_category": {
        "original_name": "Major Category",
        "value": "Nitrogen Compounds",
        "links": [],
        "cross_references": [
          {
            "type": "name_match",
            "text": "nitrogen",
            "confidence": 1.0,
            "uuid": "db5e90a9-06d2-45b9-8b81-f345a89b0bc0",
            "name": "Nitrogen",
            "url": "https://haz-map.com/Agents/1072",
            "category": "agents"
          }
        ]
      },
      "synonyms": {
        "original_name": "Synonyms",
        "value": "1-Acetylthiourea; Acetamide, N-(aminothioxomethyl)-; Acetothiourea; Acetyl thiourea; Acetylthiocarbamide; Acetylthiourea; N-(Thiocarbamyl)acetamide; N-Acetyl-2-thiourea; N-Acetylthiocarbamide; N-Acetylthiourea; Urea, 1-acetyl-2-thio-; [ChemIDplus] UN2811",
        "links": [],
        "cross_references": [
          {
            "type": "name_match",
            "text": "thiourea",
            "confidence": 1.0,
            "uuid": "9d84caab-5d53-428a-985f-be88dd4db13f",
            "name": "Thiourea",
            "url": "https://haz-map.com/Agents/998",
            "category": "agents"
          },
          {
            "type": "name_match",
            "text": "urea",
            "confidence": 1.0,
            "uuid": "a92a6129-bddd-4f79-9a78-136812ae610f",
            "name": "Urea",
            "url": "https://haz-map.com/Agents/2078",
            "category": "agents"
          },
          {
            "type": "name_match",
            "text": "acetamide",
            "confidence": 1.0,
            "uuid": "dd8ffc77-2f5f-4c87-8995-3206d6c9affc",
            "name": "Acetamide",
            "url": "https://haz-map.com/Agents/3385",
            "category": "agents"
          }
        ]
      },
      "category": {
        "original_name": "Category",
        "value": "Thiourea Compounds",
        "links": [],
        "cross_references": [
          {
            "type": "name_match",
            "text": "thiourea",
            "confidence": 1.0,
            "uuid": "9d84caab-5d53-428a-985f-be88dd4db13f",
            "name": "Thiourea",
            "url": "https://haz-map.com/Agents/998",
            "category": "agents"
          },
          {
            "type": "name_match",
            "text": "urea",
            "confidence": 1.0,
            "uuid": "a92a6129-bddd-4f79-9a78-136812ae610f",
            "name": "Urea",
            "url": "https://haz-map.com/Agents/2078",
            "category": "agents"
          }
        ]
      },
      "description": {
        "original_name": "Description",
        "value": "White solid; [CAMEO] White crystalline solid; [Alfa Aesar MSDS]",
        "links": [],
        "cross_references": [
          {
            "type": "fuzzy_match",
            "text": "crystalline",
            "matched_name": "Silica, crystalline",
            "confidence": 0.7061403508771931,
            "uuid": "f920e8a2-46df-41b7-af8d-0368a777251e",
            "category": "agents",
            "url": "https://haz-map.com/Agents/427"
          }
        ]
      },
      "sourcesuses": {
        "original_name": "Sources/Uses",
        "value": "Not manufactured or used as an industrial end-product in the US; [HSDB] One manufacturer in the US (as of 1990); [EPA]",
        "links": [],
        "cross_references": []
      },
      "comments": {
        "original_name": "Comments",
        "value": "An irritant; [Alfa Aesar MSDS]",
        "links": [],
        "cross_references": []
      },
      "biomedical_references": {
        "original_name": "Biomedical References",
        "value": "Search PubMed",
        "links": [
          {
            "text": "Search PubMed",
            "url": "https://www.ncbi.nlm.nih.gov/pubmed?term=1-Acetyl-2-thiourea%20AND%20human%5Bmh%5D%20AND%20%28Occupational%20Diseases%20%5Bmh%5D%20OR%20Occupational%20Exposure%20%5Bmh%5D%29%20%20AND%20%28tox%5Bsb%5D%29&cmd=search"
          }
        ],
        "cross_references": []
      }
    },
    "exposure_assessment": {
      "vapor_pressure": {
        "original_name": "Vapor Pressure",
        "value": "0.000372 mm Hg",
        "links": [],
        "cross_references": []
      },
      "explanatory_notes": {
        "original_name": "Explanatory Notes",
        "value": "The Guide in the Emergency Response Guidebook is for \"Toxic solid, organic, n.o.s.\"",
        "links": [],
        "cross_references": []
      }
    },
    "diseases_processes_and_activities_linked_to_this_agent": {
      "other_information": {
        "original_name": "Other Information",
        "value": "No other related information on this agent was found.",
        "links": [],
        "cross_references": []
      }
    }
  },
  "cross_references": [
    {
      "type": "name_match",
      "text": "thiourea",
      "confidence": 1.0,
      "uuid": "9d84caab-5d53-428a-985f-be88dd4db13f",
      "name": "Thiourea",
      "url": "https://haz-map.com/Agents/998",
      "category": "agents"
    },
    {
      "type": "name_match",
      "text": "nitrogen",
      "confidence": 1.0,
      "uuid": "db5e90a9-06d2-45b9-8b81-f345a89b0bc0",
      "name": "Nitrogen",
      "url": "https://haz-map.com/Agents/1072",
      "category": "agents"
    },
    {
      "type": "name_match",
      "text": "urea",
      "confidence": 1.0,
      "uuid": "a92a6129-bddd-4f79-9a78-136812ae610f",
      "name": "Urea",
      "url": "https://haz-map.com/Agents/2078",
      "category": "agents"
    },
    {
      "type": "name_match",
      "text": "1-acetyl-2-thiourea",
      "confidence": 1.0,
      "uuid": "3353610a-187d-4caa-a217-fa568153eb6d",
      "name": "1-Acetyl-2-thiourea",
      "url": "https://haz-map.com/Agents/2839",
      "category": "agents"
    },
    {
      "type": "name_match",
      "text": "acetamide",
      "confidence": 1.0,
      "uuid": "dd8ffc77-2f5f-4c87-8995-3206d6c9affc",
      "name": "Acetamide",
      "url": "https://haz-map.com/Agents/3385",
      "category": "agents"
    },
    {
      "type": "fuzzy_match",
      "text": "crystalline",
      "matched_name": "Silica, crystalline",
      "confidence": 0.7061403508771931,
      "uuid": "f920e8a2-46df-41b7-af8d-0368a777251e",
      "category": "agents",
      "url": "https://haz-map.com/Agents/427"
    }
  ],
  "all_links": [
    {
      "text": "Search PubMed",
      "url": "https://www.ncbi.nlm.nih.gov/pubmed?term=1-Acetyl-2-thiourea%20AND%20human%5Bmh%5D%20AND%20%28Occupational%20Diseases%20%5Bmh%5D%20OR%20Occupational%20Exposure%20%5Bmh%5D%29%20%20AND%20%28tox%5Bsb%5D%29&cmd=search"
    }
  ]
}