{
  "metadata": {
    "scraped_from": "https://haz-map.com/Agents/2983",
    "entity_name": "2,4,5-Trimethoxybenzaldehyde",
    "category": "agents",
    "uuid": "336fb9d7-e882-4133-985f-b210c19a626a",
    "scraped_at": "2025-07-23T19:22:08.322116"
  },
  "parsed_at": "2025-07-24T01:16:51.143459",
  "title": "2,4,5-Trimethoxybenzaldehyde",
  "sections": {
    "general": {
      "agent_name": {
        "original_name": "Agent Name",
        "value": "2,4,5-Trimethoxybenzaldehyde",
        "links": [],
        "cross_references": [
          {
            "type": "name_match",
            "text": "2,4,5-t",
            "confidence": 1.0,
            "uuid": "e264617e-1fc4-45f5-acbb-36f4d966512f",
            "name": "2,4,5-T",
            "url": "https://haz-map.com/Agents/687",
            "category": "agents"
          },
          {
            "type": "name_match",
            "text": "benzaldehyde",
            "confidence": 1.0,
            "uuid": "8546358a-fcfc-48f8-83d6-bf7adb438729",
            "name": "Benzaldehyde",
            "url": "https://haz-map.com/Agents/1884",
            "category": "agents"
          },
          {
            "type": "name_match",
            "text": "2,4,5-trimethoxybenzaldehyde",
            "confidence": 1.0,
            "uuid": "336fb9d7-e882-4133-985f-b210c19a626a",
            "name": "2,4,5-Trimethoxybenzaldehyde",
            "url": "https://haz-map.com/Agents/2983",
            "category": "agents"
          },
          {
            "type": "fuzzy_match",
            "text": "5-trimethoxybenzaldehyde",
            "matched_name": "3,4,5-Trimethoxybenzaldehyde",
            "confidence": 0.8535714285714285,
            "uuid": "f3bdc37d-9ff4-4cd7-92a2-f5df496edc00",
            "category": "agents",
            "url": "https://haz-map.com/Agents/19717"
          }
        ]
      },
      "cas_number": {
        "original_name": "CAS Number",
        "value": "4460-86-0",
        "links": [],
        "cross_references": []
      },
      "formula": {
        "original_name": "Formula",
        "value": "C10-H12-O4",
        "links": [],
        "cross_references": []
      },
      "major_category": {
        "original_name": "Major Category",
        "value": "Other Classes",
        "links": [],
        "cross_references": []
      },
      "synonyms": {
        "original_name": "Synonyms",
        "value": "3,4,6-Trimethoxybenzaldehyde; Asaraldehyde; Asaronaldehyde; Asarylaldehyde; Benzaldehyde, 2,4,5-trimethoxy-; Gazarin; [ChemIDplus]",
        "links": [],
        "cross_references": [
          {
            "type": "name_match",
            "text": "2,4,5-t",
            "confidence": 1.0,
            "uuid": "e264617e-1fc4-45f5-acbb-36f4d966512f",
            "name": "2,4,5-T",
            "url": "https://haz-map.com/Agents/687",
            "category": "agents"
          },
          {
            "type": "name_match",
            "text": "benzaldehyde",
            "confidence": 1.0,
            "uuid": "8546358a-fcfc-48f8-83d6-bf7adb438729",
            "name": "Benzaldehyde",
            "url": "https://haz-map.com/Agents/1884",
            "category": "agents"
          }
        ]
      },
      "category": {
        "original_name": "Category",
        "value": "Benzaldehydes",
        "links": [],
        "cross_references": [
          {
            "type": "name_match",
            "text": "aldehydes",
            "confidence": 1.0,
            "uuid": "60ff52e0-7c53-4dd0-99cf-f775cfcfed59",
            "name": "ALDEHYDES",
            "url": "https://haz-map.com/Agents/719",
            "category": "agents"
          },
          {
            "type": "name_match",
            "text": "benzaldehyde",
            "confidence": 1.0,
            "uuid": "8546358a-fcfc-48f8-83d6-bf7adb438729",
            "name": "Benzaldehyde",
            "url": "https://haz-map.com/Agents/1884",
            "category": "agents"
          }
        ]
      },
      "description": {
        "original_name": "Description",
        "value": "Beige solid; [CAMEO] White to pale brown solid; [MSDSonline]",
        "links": [],
        "cross_references": []
      },
      "sourcesuses": {
        "original_name": "Sources/Uses",
        "value": "Used as an intermediate for pharmaceuticals and agrochemicals; [HSDB]",
        "links": [],
        "cross_references": [
          {
            "type": "name_match",
            "text": "mica",
            "confidence": 1.0,
            "uuid": "433f26f1-c399-4596-b179-ce3843cfd465",
            "name": "Mica",
            "url": "https://haz-map.com/Agents/621",
            "category": "agents"
          },
          {
            "type": "name_match",
            "text": "pharmaceuticals",
            "confidence": 1.0,
            "uuid": "713c3c30-b67e-4a2f-a90f-b32f8a306332",
            "name": "PHARMACEUTICALS",
            "url": "https://haz-map.com/Agents/1000",
            "category": "agents"
          }
        ]
      },
      "comments": {
        "original_name": "Comments",
        "value": "Similar compounds cause gastrointestinal tract irritation and convulsions; [CAMEO] May cause irritation; [MSDSonline]",
        "links": [],
        "cross_references": [
          {
            "type": "name_match",
            "text": "convulsion",
            "confidence": 1.0,
            "uuid": "af2c36f8-707a-48e3-a62b-1aa07adc9b72",
            "name": "convulsion",
            "url": "https://haz-map.com/Findings/14",
            "category": "findings"
          }
        ]
      },
      "biomedical_references": {
        "original_name": "Biomedical References",
        "value": "Search PubMed",
        "links": [
          {
            "text": "Search PubMed",
            "url": "https://www.ncbi.nlm.nih.gov/pubmed?term=2%2c4%2c5-Trimethoxybenzaldehyde%20AND%20human%5Bmh%5D%20AND%20%28Occupational%20Diseases%20%5Bmh%5D%20OR%20Occupational%20Exposure%20%5Bmh%5D%29%20%20AND%20%28tox%5Bsb%5D%29&cmd=search"
          }
        ],
        "cross_references": []
      }
    },
    "exposure_assessment": {
      "vapor_pressure": {
        "original_name": "Vapor Pressure",
        "value": "0.00113 mm Hg",
        "links": [],
        "cross_references": []
      }
    },
    "diseases_processes_and_activities_linked_to_this_agent": {
      "other_information": {
        "original_name": "Other Information",
        "value": "No other related information on this agent was found.",
        "links": [],
        "cross_references": []
      }
    }
  },
  "cross_references": [
    {
      "type": "name_match",
      "text": "convulsion",
      "confidence": 1.0,
      "uuid": "af2c36f8-707a-48e3-a62b-1aa07adc9b72",
      "name": "convulsion",
      "url": "https://haz-map.com/Findings/14",
      "category": "findings"
    },
    {
      "type": "name_match",
      "text": "mica",
      "confidence": 1.0,
      "uuid": "433f26f1-c399-4596-b179-ce3843cfd465",
      "name": "Mica",
      "url": "https://haz-map.com/Agents/621",
      "category": "agents"
    },
    {
      "type": "name_match",
      "text": "2,4,5-t",
      "confidence": 1.0,
      "uuid": "e264617e-1fc4-45f5-acbb-36f4d966512f",
      "name": "2,4,5-T",
      "url": "https://haz-map.com/Agents/687",
      "category": "agents"
    },
    {
      "type": "name_match",
      "text": "aldehydes",
      "confidence": 1.0,
      "uuid": "60ff52e0-7c53-4dd0-99cf-f775cfcfed59",
      "name": "ALDEHYDES",
      "url": "https://haz-map.com/Agents/719",
      "category": "agents"
    },
    {
      "type": "name_match",
      "text": "pharmaceuticals",
      "confidence": 1.0,
      "uuid": "713c3c30-b67e-4a2f-a90f-b32f8a306332",
      "name": "PHARMACEUTICALS",
      "url": "https://haz-map.com/Agents/1000",
      "category": "agents"
    },
    {
      "type": "name_match",
      "text": "benzaldehyde",
      "confidence": 1.0,
      "uuid": "8546358a-fcfc-48f8-83d6-bf7adb438729",
      "name": "Benzaldehyde",
      "url": "https://haz-map.com/Agents/1884",
      "category": "agents"
    },
    {
      "type": "name_match",
      "text": "2,4,5-trimethoxybenzaldehyde",
      "confidence": 1.0,
      "uuid": "336fb9d7-e882-4133-985f-b210c19a626a",
      "name": "2,4,5-Trimethoxybenzaldehyde",
      "url": "https://haz-map.com/Agents/2983",
      "category": "agents"
    },
    {
      "type": "fuzzy_match",
      "text": "5-trimethoxybenzaldehyde",
      "matched_name": "3,4,5-Trimethoxybenzaldehyde",
      "confidence": 0.8535714285714285,
      "uuid": "f3bdc37d-9ff4-4cd7-92a2-f5df496edc00",
      "category": "agents",
      "url": "https://haz-map.com/Agents/19717"
    }
  ],
  "all_links": [
    {
      "text": "Search PubMed",
      "url": "https://www.ncbi.nlm.nih.gov/pubmed?term=2%2c4%2c5-Trimethoxybenzaldehyde%20AND%20human%5Bmh%5D%20AND%20%28Occupational%20Diseases%20%5Bmh%5D%20OR%20Occupational%20Exposure%20%5Bmh%5D%29%20%20AND%20%28tox%5Bsb%5D%29&cmd=search"
    }
  ]
}