{
  "metadata": {
    "scraped_from": "https://haz-map.com/Agents/4618",
    "entity_name": "Cyfluthrin",
    "category": "agents",
    "uuid": "338ce7dd-f3a5-49c4-bd44-78492bc9ede3",
    "scraped_at": "2025-07-23T19:42:53.029046"
  },
  "parsed_at": "2025-07-24T01:01:26.207350",
  "title": "Cyfluthrin",
  "sections": {
    "general": {
      "agent_name": {
        "original_name": "Agent Name",
        "value": "Cyfluthrin",
        "links": [],
        "cross_references": [
          {
            "type": "name_match",
            "text": "cyfluthrin",
            "confidence": 1.0,
            "uuid": "338ce7dd-f3a5-49c4-bd44-78492bc9ede3",
            "name": "Cyfluthrin",
            "url": "https://haz-map.com/Agents/4618",
            "category": "agents"
          }
        ]
      },
      "cas_number": {
        "original_name": "CAS Number",
        "value": "68359-37-5",
        "links": [],
        "cross_references": []
      },
      "formula": {
        "original_name": "Formula",
        "value": "C22-H18-Cl2-F-N-O3",
        "links": [],
        "cross_references": []
      },
      "major_category": {
        "original_name": "Major Category",
        "value": "Pesticides",
        "links": [],
        "cross_references": []
      },
      "synonyms": {
        "original_name": "Synonyms",
        "value": "(R,S)-alpha-Cyano-4-fluoro-3-phenoxybenzyl-(1R,S)-cis,trans-3-(2,2-dichlorovinyl)-2,2-dimethylcyclopropanecarboxylate; (RS)-alpha-Cyano-4-fluoro-3-phenoxybenzyl (1RS,3RS:1RS,3SR)-3-(2,2-dichlorovinyl)-2,2-dimethylcyclopropanecarboxylate; (RS)-alpha-Cyano-4-fluoro-3-phenoxybenzyl (1RS,3RS; 1RS,3SR)-3-(2,2-dichlorovinyl)-2,2-dimethylcyclopropanecarboxylate; 3-(2,2-Dichloroethenyl)-2,2-dimethylcyclopropanecarboxylic acid cyano(4-fluoro-3-phenoxyphenyl)methyl ester; BAY FCR 1272; BAY-VI 1704; Bay-fcr 1272; Baythroid; Baythroid H; Cyano(4-fluoro-3-phenoxyphenyl)methyl 3-(2,2-dichloroethenyl)-2,2-dimethyl-cyclopropanecarboxylate; Cyfluthine [ISO-French]; Cyfluthrine; Cyfoxylate; Eulan SP; FCR 1272; FCR 4545; Responsar; Solfac; Syfrutrin; Tempo 2; Cyclopropanecarboxylic acid, 2-(2,2-dichlorovinyl)-3,3-dimethyl-, ester with (4-fluoro-3-phenoxyphenyl)hydroxyacetonitrile; Cyclopropanecarboxylic acid, 3-(2,2-dichloroethenyl)-2,2-dimethyl-, cyano(4-fluoro-3-phenoxyphenyl)methyl ester; alpha-Cyano-4-fluoro-3-phenoxybenzyl 3-(2,2-dichlorovinyl)-2,2-dimethylcyclopropanecarboxylate; [ChemIDplus] UN2811",
        "links": [],
        "cross_references": [
          {
            "type": "name_match",
            "text": "acetonitrile",
            "confidence": 1.0,
            "uuid": "84f1210b-94c6-4b35-8215-ba63f2fe4c64",
            "name": "Acetonitrile",
            "url": "https://haz-map.com/Agents/159",
            "category": "agents"
          },
          {
            "type": "name_match",
            "text": "propane",
            "confidence": 1.0,
            "uuid": "563a611b-46ea-4bdc-b77b-17d8f7646283",
            "name": "Propane",
            "url": "https://haz-map.com/Agents/607",
            "category": "agents"
          },
          {
            "type": "name_match",
            "text": "cyclopropane",
            "confidence": 1.0,
            "uuid": "eff680c8-2b85-4f0d-9c04-449434d56b54",
            "name": "Cyclopropane",
            "url": "https://haz-map.com/Agents/4611",
            "category": "agents"
          },
          {
            "type": "name_match",
            "text": "cyfluthrin",
            "confidence": 1.0,
            "uuid": "338ce7dd-f3a5-49c4-bd44-78492bc9ede3",
            "name": "Cyfluthrin",
            "url": "https://haz-map.com/Agents/4618",
            "category": "agents"
          },
          {
            "type": "name_match",
            "text": "ethylcyclopropane",
            "confidence": 1.0,
            "uuid": "3829e96b-c048-428e-a2ff-537a69ad5f8f",
            "name": "Ethylcyclopropane",
            "url": "https://haz-map.com/Agents/13535",
            "category": "agents"
          },
          {
            "type": "name_match",
            "text": "cyclopropanecarboxylic acid",
            "confidence": 1.0,
            "uuid": "34616f0c-ada5-417e-a983-ad8428383152",
            "name": "Cyclopropanecarboxylic acid",
            "url": "https://haz-map.com/Agents/13541",
            "category": "agents"
          },
          {
            "type": "name_match",
            "text": "tempo",
            "confidence": 1.0,
            "uuid": "55930a45-7786-4f0a-a7e8-bd4064508b68",
            "name": "TEMPO",
            "url": "https://haz-map.com/Agents/17879",
            "category": "agents"
          },
          {
            "type": "fuzzy_match",
            "text": "2-dimethylcyclopropane",
            "matched_name": "trans-1,2-Dimethylcyclopropane",
            "confidence": 0.787719298245614,
            "uuid": "82a4a103-a5b0-4faf-9769-3edd1697a4bf",
            "category": "agents",
            "url": "https://haz-map.com/Agents/13526"
          }
        ]
      },
      "category": {
        "original_name": "Category",
        "value": "Pyrethrins/Pyrethroids",
        "links": [],
        "cross_references": []
      },
      "description": {
        "original_name": "Description",
        "value": "Yellowish-brown liquid or colorless solid; [HSDB] Brown solid; [MSDSonline]",
        "links": [],
        "cross_references": []
      },
      "sourcesuses": {
        "original_name": "Sources/Uses",
        "value": "Used as an agricultural insecticide; [Merck Index] Used as a veterinary medication; [HSDB]",
        "links": [],
        "cross_references": []
      },
      "comments": {
        "original_name": "Comments",
        "value": "A skin, eye, and mucous membrane irritant; In human experiments, the threshold for upper respiratory tract irritation was 0.1 mg/m3; Common symptoms after overexposure in the workplace are stinging sensations of the skin and mucous membranes that begin 1-2 hours after contact and last for 1-2 days; Such symptoms are thought to be due to local action on sensitive nerves; [HSDB] Toxic by inhalation and ingestion; [eChemPortal: ESIS] A skin and eye irritant; [MSDSonline]",
        "links": [],
        "cross_references": [
          {
            "type": "name_match",
            "text": "ht",
            "confidence": 1.0,
            "uuid": "764df367-8d53-4a11-81a2-31ccfe122a8d",
            "name": "HT",
            "url": "https://haz-map.com/Agents/2168",
            "category": "agents"
          }
        ]
      },
      "biomedical_references": {
        "original_name": "Biomedical References",
        "value": "Search PubMed",
        "links": [
          {
            "text": "Search PubMed",
            "url": "https://www.ncbi.nlm.nih.gov/pubmed?term=Cyfluthrin%20AND%20human%5Bmh%5D%20AND%20%28Occupational%20Diseases%20%5Bmh%5D%20OR%20Occupational%20Exposure%20%5Bmh%5D%29%20%20AND%20%28tox%5Bsb%5D%29&cmd=search"
          }
        ],
        "cross_references": []
      }
    },
    "exposure_assessment": {
      "mak": {
        "original_name": "MAK",
        "value": "0.01 mg/m3, inhalable fraction",
        "links": [],
        "cross_references": []
      },
      "vapor_pressure": {
        "original_name": "Vapor Pressure",
        "value": "1.5E-10 mm Hg",
        "links": [],
        "cross_references": []
      },
      "explanatory_notes": {
        "original_name": "Explanatory Notes",
        "value": "The Guide in the Emergency Response Guidebook is for \"Toxic solid, organic, n.o.s.\"",
        "links": [],
        "cross_references": []
      }
    },
    "adverse_effects": {
      "neurotoxin": {
        "original_name": "Neurotoxin",
        "value": "Other CNS neurotoxin",
        "links": [],
        "cross_references": []
      },
      "hepatotoxin": {
        "original_name": "Hepatotoxin",
        "value": "Hepatoxic (a) from occupational exposure (secondary effect) or (b) in animal studies or in humans after ingestion",
        "links": [],
        "cross_references": []
      }
    },
    "diseases_processes_and_activities_linked_to_this_agent": {
      "processes": {
        "original_name": "Processes",
        "value": "Industrial Processes with risk of exposure: Farming (Pesticides)",
        "links": [
          {
            "text": "Farming (Pesticides)",
            "url": "https://haz-map.com/Processes/218"
          }
        ],
        "cross_references": [
          {
            "type": "url_match",
            "text": "Farming (Pesticides)",
            "url": "https://haz-map.com/Processes/218",
            "confidence": 1.0,
            "uuid": "cf1e5815-c9bb-4917-82a5-391848170b7e",
            "name": "Farming (Pesticides)",
            "category": "processes"
          }
        ]
      }
    }
  },
  "cross_references": [
    {
      "type": "url_match",
      "text": "Farming (Pesticides)",
      "url": "https://haz-map.com/Processes/218",
      "confidence": 1.0,
      "uuid": "cf1e5815-c9bb-4917-82a5-391848170b7e",
      "name": "Farming (Pesticides)",
      "category": "processes"
    },
    {
      "type": "name_match",
      "text": "acetonitrile",
      "confidence": 1.0,
      "uuid": "84f1210b-94c6-4b35-8215-ba63f2fe4c64",
      "name": "Acetonitrile",
      "url": "https://haz-map.com/Agents/159",
      "category": "agents"
    },
    {
      "type": "name_match",
      "text": "propane",
      "confidence": 1.0,
      "uuid": "563a611b-46ea-4bdc-b77b-17d8f7646283",
      "name": "Propane",
      "url": "https://haz-map.com/Agents/607",
      "category": "agents"
    },
    {
      "type": "name_match",
      "text": "ht",
      "confidence": 1.0,
      "uuid": "764df367-8d53-4a11-81a2-31ccfe122a8d",
      "name": "HT",
      "url": "https://haz-map.com/Agents/2168",
      "category": "agents"
    },
    {
      "type": "name_match",
      "text": "cyclopropane",
      "confidence": 1.0,
      "uuid": "eff680c8-2b85-4f0d-9c04-449434d56b54",
      "name": "Cyclopropane",
      "url": "https://haz-map.com/Agents/4611",
      "category": "agents"
    },
    {
      "type": "name_match",
      "text": "cyfluthrin",
      "confidence": 1.0,
      "uuid": "338ce7dd-f3a5-49c4-bd44-78492bc9ede3",
      "name": "Cyfluthrin",
      "url": "https://haz-map.com/Agents/4618",
      "category": "agents"
    },
    {
      "type": "name_match",
      "text": "ethylcyclopropane",
      "confidence": 1.0,
      "uuid": "3829e96b-c048-428e-a2ff-537a69ad5f8f",
      "name": "Ethylcyclopropane",
      "url": "https://haz-map.com/Agents/13535",
      "category": "agents"
    },
    {
      "type": "name_match",
      "text": "cyclopropanecarboxylic acid",
      "confidence": 1.0,
      "uuid": "34616f0c-ada5-417e-a983-ad8428383152",
      "name": "Cyclopropanecarboxylic acid",
      "url": "https://haz-map.com/Agents/13541",
      "category": "agents"
    },
    {
      "type": "name_match",
      "text": "tempo",
      "confidence": 1.0,
      "uuid": "55930a45-7786-4f0a-a7e8-bd4064508b68",
      "name": "TEMPO",
      "url": "https://haz-map.com/Agents/17879",
      "category": "agents"
    },
    {
      "type": "fuzzy_match",
      "text": "2-dimethylcyclopropane",
      "matched_name": "trans-1,2-Dimethylcyclopropane",
      "confidence": 0.787719298245614,
      "uuid": "82a4a103-a5b0-4faf-9769-3edd1697a4bf",
      "category": "agents",
      "url": "https://haz-map.com/Agents/13526"
    }
  ],
  "all_links": [
    {
      "text": "Search PubMed",
      "url": "https://www.ncbi.nlm.nih.gov/pubmed?term=Cyfluthrin%20AND%20human%5Bmh%5D%20AND%20%28Occupational%20Diseases%20%5Bmh%5D%20OR%20Occupational%20Exposure%20%5Bmh%5D%29%20%20AND%20%28tox%5Bsb%5D%29&cmd=search"
    },
    {
      "text": "Farming (Pesticides)",
      "url": "https://haz-map.com/Processes/218"
    }
  ]
}