{
  "metadata": {
    "scraped_from": "https://haz-map.com/Agents/16295",
    "entity_name": "o-Toluamide",
    "category": "agents",
    "uuid": "33a553ef-e354-4da5-8f70-db1d81f12317",
    "scraped_at": "2025-07-23T21:36:08.642445"
  },
  "parsed_at": "2025-07-24T01:09:36.896034",
  "title": "o-Toluamide",
  "sections": {
    "general": {
      "agent_name": {
        "original_name": "Agent Name",
        "value": "o-Toluamide",
        "links": [],
        "cross_references": [
          {
            "type": "name_match",
            "text": "o-toluamide",
            "confidence": 1.0,
            "uuid": "33a553ef-e354-4da5-8f70-db1d81f12317",
            "name": "o-Toluamide",
            "url": "https://haz-map.com/Agents/16295",
            "category": "agents"
          }
        ]
      },
      "cas_number": {
        "original_name": "CAS Number",
        "value": "527-85-5",
        "links": [],
        "cross_references": []
      },
      "formula": {
        "original_name": "Formula",
        "value": "C8-H9-N-O",
        "links": [],
        "cross_references": []
      },
      "major_category": {
        "original_name": "Major Category",
        "value": "Nitrogen Compounds",
        "links": [],
        "cross_references": [
          {
            "type": "name_match",
            "text": "nitrogen",
            "confidence": 1.0,
            "uuid": "db5e90a9-06d2-45b9-8b81-f345a89b0bc0",
            "name": "Nitrogen",
            "url": "https://haz-map.com/Agents/1072",
            "category": "agents"
          }
        ]
      },
      "synonyms": {
        "original_name": "Synonyms",
        "value": "2-Methylbenzamide; o-Methylbenzamide; o-Toluic amide; o-Tolylamide; Benzamide, 2-methyl-; [ChemIDplus] 2-Toluamide; ortho-Toluamide; [CAMEO]",
        "links": [],
        "cross_references": [
          {
            "type": "name_match",
            "text": "benzamide",
            "confidence": 1.0,
            "uuid": "8900c544-7f26-477e-a4c1-ff24fcc01b2c",
            "name": "Benzamide",
            "url": "https://haz-map.com/Agents/3828",
            "category": "agents"
          },
          {
            "type": "name_match",
            "text": "o-toluamide",
            "confidence": 1.0,
            "uuid": "33a553ef-e354-4da5-8f70-db1d81f12317",
            "name": "o-Toluamide",
            "url": "https://haz-map.com/Agents/16295",
            "category": "agents"
          }
        ]
      },
      "category": {
        "original_name": "Category",
        "value": "Other Aromatics (Nitrogen)",
        "links": [],
        "cross_references": [
          {
            "type": "name_match",
            "text": "nitrogen",
            "confidence": 1.0,
            "uuid": "db5e90a9-06d2-45b9-8b81-f345a89b0bc0",
            "name": "Nitrogen",
            "url": "https://haz-map.com/Agents/1072",
            "category": "agents"
          }
        ]
      },
      "description": {
        "original_name": "Description",
        "value": "Solid; [Merck Index] Off-white powder; [Sigma-Aldrich MSDS]",
        "links": [],
        "cross_references": []
      },
      "comments": {
        "original_name": "Comments",
        "value": "Explosive; [Merck Index] May cause irritation; Harmful by ingestion; [Sigma-Aldrich MSDS] See \"alpha-Phenylacetamide.\"",
        "links": [],
        "cross_references": [
          {
            "type": "name_match",
            "text": "acetamide",
            "confidence": 1.0,
            "uuid": "dd8ffc77-2f5f-4c87-8995-3206d6c9affc",
            "name": "Acetamide",
            "url": "https://haz-map.com/Agents/3385",
            "category": "agents"
          },
          {
            "type": "name_match",
            "text": "alpha-phenylacetamide",
            "confidence": 1.0,
            "uuid": "47a13b61-2d8f-4f4f-ab71-8bd665ec0214",
            "name": "alpha-Phenylacetamide",
            "url": "https://haz-map.com/Agents/10436",
            "category": "agents"
          }
        ]
      },
      "biomedical_references": {
        "original_name": "Biomedical References",
        "value": "Search PubMed",
        "links": [
          {
            "text": "Search PubMed",
            "url": "https://www.ncbi.nlm.nih.gov/pubmed?term=o-Toluamide%20AND%20human%5Bmh%5D%20AND%20%28Occupational%20Diseases%20%5Bmh%5D%20OR%20Occupational%20Exposure%20%5Bmh%5D%29%20%20AND%20%28tox%5Bsb%5D%29&cmd=search"
          }
        ],
        "cross_references": []
      }
    },
    "exposure_assessment": {
      "vapor_pressure": {
        "original_name": "Vapor Pressure",
        "value": "0.000319 mm Hg",
        "links": [],
        "cross_references": []
      }
    },
    "diseases_processes_and_activities_linked_to_this_agent": {
      "other_information": {
        "original_name": "Other Information",
        "value": "No other related information on this agent was found.",
        "links": [],
        "cross_references": []
      }
    }
  },
  "cross_references": [
    {
      "type": "name_match",
      "text": "nitrogen",
      "confidence": 1.0,
      "uuid": "db5e90a9-06d2-45b9-8b81-f345a89b0bc0",
      "name": "Nitrogen",
      "url": "https://haz-map.com/Agents/1072",
      "category": "agents"
    },
    {
      "type": "name_match",
      "text": "acetamide",
      "confidence": 1.0,
      "uuid": "dd8ffc77-2f5f-4c87-8995-3206d6c9affc",
      "name": "Acetamide",
      "url": "https://haz-map.com/Agents/3385",
      "category": "agents"
    },
    {
      "type": "name_match",
      "text": "benzamide",
      "confidence": 1.0,
      "uuid": "8900c544-7f26-477e-a4c1-ff24fcc01b2c",
      "name": "Benzamide",
      "url": "https://haz-map.com/Agents/3828",
      "category": "agents"
    },
    {
      "type": "name_match",
      "text": "alpha-phenylacetamide",
      "confidence": 1.0,
      "uuid": "47a13b61-2d8f-4f4f-ab71-8bd665ec0214",
      "name": "alpha-Phenylacetamide",
      "url": "https://haz-map.com/Agents/10436",
      "category": "agents"
    },
    {
      "type": "name_match",
      "text": "o-toluamide",
      "confidence": 1.0,
      "uuid": "33a553ef-e354-4da5-8f70-db1d81f12317",
      "name": "o-Toluamide",
      "url": "https://haz-map.com/Agents/16295",
      "category": "agents"
    }
  ],
  "all_links": [
    {
      "text": "Search PubMed",
      "url": "https://www.ncbi.nlm.nih.gov/pubmed?term=o-Toluamide%20AND%20human%5Bmh%5D%20AND%20%28Occupational%20Diseases%20%5Bmh%5D%20OR%20Occupational%20Exposure%20%5Bmh%5D%29%20%20AND%20%28tox%5Bsb%5D%29&cmd=search"
    }
  ]
}