{
  "metadata": {
    "scraped_from": "https://haz-map.com/Agents/13221",
    "entity_name": "Dihexylamine",
    "category": "agents",
    "uuid": "33d29604-70ea-4fd9-b4e8-12b67163d3de",
    "scraped_at": "2025-07-23T21:12:55.711714"
  },
  "parsed_at": "2025-07-24T00:53:16.882828",
  "title": "Dihexylamine",
  "sections": {
    "general": {
      "agent_name": {
        "original_name": "Agent Name",
        "value": "Dihexylamine",
        "links": [],
        "cross_references": [
          {
            "type": "name_match",
            "text": "dihexylamine",
            "confidence": 1.0,
            "uuid": "33d29604-70ea-4fd9-b4e8-12b67163d3de",
            "name": "Dihexylamine",
            "url": "https://haz-map.com/Agents/13221",
            "category": "agents"
          },
          {
            "type": "name_match",
            "text": "hexylamine",
            "confidence": 1.0,
            "uuid": "d6024dfe-8865-49e0-9086-0d2662bb2ea8",
            "name": "Hexylamine",
            "url": "https://haz-map.com/Agents/19320",
            "category": "agents"
          }
        ]
      },
      "cas_number": {
        "original_name": "CAS Number",
        "value": "143-16-8",
        "links": [],
        "cross_references": []
      },
      "formula": {
        "original_name": "Formula",
        "value": "C12-H27-N",
        "links": [],
        "cross_references": []
      },
      "major_category": {
        "original_name": "Major Category",
        "value": "Nitrogen Compounds",
        "links": [],
        "cross_references": [
          {
            "type": "name_match",
            "text": "nitrogen",
            "confidence": 1.0,
            "uuid": "db5e90a9-06d2-45b9-8b81-f345a89b0bc0",
            "name": "Nitrogen",
            "url": "https://haz-map.com/Agents/1072",
            "category": "agents"
          }
        ]
      },
      "synonyms": {
        "original_name": "Synonyms",
        "value": "1-Hexanamine, N-hexyl-; Di-N-hexylamine; Di-n-hexylamine; N,N-Dihexylamine; N-Hexylhexanamine; [ChemIDplus] Bis(1-hexyl)amine; N-Hexyl-1-hexanamine; [CAMEO]",
        "links": [],
        "cross_references": [
          {
            "type": "name_match",
            "text": "dihexylamine",
            "confidence": 1.0,
            "uuid": "33d29604-70ea-4fd9-b4e8-12b67163d3de",
            "name": "Dihexylamine",
            "url": "https://haz-map.com/Agents/13221",
            "category": "agents"
          },
          {
            "type": "name_match",
            "text": "hexylamine",
            "confidence": 1.0,
            "uuid": "d6024dfe-8865-49e0-9086-0d2662bb2ea8",
            "name": "Hexylamine",
            "url": "https://haz-map.com/Agents/19320",
            "category": "agents"
          }
        ]
      },
      "category": {
        "original_name": "Category",
        "value": "Amines, Aliphatic",
        "links": [],
        "cross_references": []
      },
      "description": {
        "original_name": "Description",
        "value": "Colorless liquid; [CAMEO] Clear light yellow liquid; [Sigma-Aldrich MSDS]",
        "links": [],
        "cross_references": [
          {
            "type": "name_match",
            "text": "ht",
            "confidence": 1.0,
            "uuid": "764df367-8d53-4a11-81a2-31ccfe122a8d",
            "name": "HT",
            "url": "https://haz-map.com/Agents/2168",
            "category": "agents"
          }
        ]
      },
      "sourcesuses": {
        "original_name": "Sources/Uses",
        "value": "Used in organic synthesis; [NTP]",
        "links": [],
        "cross_references": []
      },
      "comments": {
        "original_name": "Comments",
        "value": "A severe eye and mild skin irritant; [RTECS] Readily absorbed through skin; [NTP] Causes burns; Inhalation may cause corrosive injuries to upper respiratory tract and lungs; Toxic by ingestion; Highly toxic by skin absorption; [Sigma-Aldrich MSDS] See \"2-Ethylhexylamine.\"",
        "links": [],
        "cross_references": [
          {
            "type": "name_match",
            "text": "burn",
            "confidence": 1.0,
            "uuid": "63665de5-6376-4918-8dbf-4c10c4d63837",
            "name": "burn",
            "url": "https://haz-map.com/Findings/204",
            "category": "findings"
          },
          {
            "type": "name_match",
            "text": "2-ethylhexylamine",
            "confidence": 1.0,
            "uuid": "6ce0d5b8-3c39-4388-9e1b-8ee9d36bc433",
            "name": "2-Ethylhexylamine",
            "url": "https://haz-map.com/Agents/10847",
            "category": "agents"
          },
          {
            "type": "name_match",
            "text": "hexylamine",
            "confidence": 1.0,
            "uuid": "d6024dfe-8865-49e0-9086-0d2662bb2ea8",
            "name": "Hexylamine",
            "url": "https://haz-map.com/Agents/19320",
            "category": "agents"
          }
        ]
      },
      "biomedical_references": {
        "original_name": "Biomedical References",
        "value": "Search PubMed",
        "links": [
          {
            "text": "Search PubMed",
            "url": "https://www.ncbi.nlm.nih.gov/pubmed?term=Dihexylamine%20AND%20human%5Bmh%5D%20AND%20%28Occupational%20Diseases%20%5Bmh%5D%20OR%20Occupational%20Exposure%20%5Bmh%5D%29%20%20AND%20%28tox%5Bsb%5D%29&cmd=search"
          }
        ],
        "cross_references": []
      }
    },
    "exposure_assessment": {
      "explanatory_notes": {
        "original_name": "Explanatory Notes",
        "value": "Vapor pressure < 0.1 mm Hg at 20 deg C; [NTP]",
        "links": [],
        "cross_references": []
      }
    },
    "adverse_effects": {
      "toxic_pneumonitis": {
        "original_name": "Toxic Pneumonitis",
        "value": "Yes",
        "links": [],
        "cross_references": []
      },
      "dermatotoxin": {
        "original_name": "Dermatotoxin",
        "value": "Skin burns",
        "links": [],
        "cross_references": [
          {
            "type": "name_match",
            "text": "burn",
            "confidence": 1.0,
            "uuid": "63665de5-6376-4918-8dbf-4c10c4d63837",
            "name": "burn",
            "url": "https://haz-map.com/Findings/204",
            "category": "findings"
          }
        ]
      }
    },
    "diseases_processes_and_activities_linked_to_this_agent": {
      "other_information": {
        "original_name": "Other Information",
        "value": "No other related information on this agent was found.",
        "links": [],
        "cross_references": []
      }
    }
  },
  "cross_references": [
    {
      "type": "name_match",
      "text": "burn",
      "confidence": 1.0,
      "uuid": "63665de5-6376-4918-8dbf-4c10c4d63837",
      "name": "burn",
      "url": "https://haz-map.com/Findings/204",
      "category": "findings"
    },
    {
      "type": "name_match",
      "text": "nitrogen",
      "confidence": 1.0,
      "uuid": "db5e90a9-06d2-45b9-8b81-f345a89b0bc0",
      "name": "Nitrogen",
      "url": "https://haz-map.com/Agents/1072",
      "category": "agents"
    },
    {
      "type": "name_match",
      "text": "ht",
      "confidence": 1.0,
      "uuid": "764df367-8d53-4a11-81a2-31ccfe122a8d",
      "name": "HT",
      "url": "https://haz-map.com/Agents/2168",
      "category": "agents"
    },
    {
      "type": "name_match",
      "text": "2-ethylhexylamine",
      "confidence": 1.0,
      "uuid": "6ce0d5b8-3c39-4388-9e1b-8ee9d36bc433",
      "name": "2-Ethylhexylamine",
      "url": "https://haz-map.com/Agents/10847",
      "category": "agents"
    },
    {
      "type": "name_match",
      "text": "dihexylamine",
      "confidence": 1.0,
      "uuid": "33d29604-70ea-4fd9-b4e8-12b67163d3de",
      "name": "Dihexylamine",
      "url": "https://haz-map.com/Agents/13221",
      "category": "agents"
    },
    {
      "type": "name_match",
      "text": "hexylamine",
      "confidence": 1.0,
      "uuid": "d6024dfe-8865-49e0-9086-0d2662bb2ea8",
      "name": "Hexylamine",
      "url": "https://haz-map.com/Agents/19320",
      "category": "agents"
    }
  ],
  "all_links": [
    {
      "text": "Search PubMed",
      "url": "https://www.ncbi.nlm.nih.gov/pubmed?term=Dihexylamine%20AND%20human%5Bmh%5D%20AND%20%28Occupational%20Diseases%20%5Bmh%5D%20OR%20Occupational%20Exposure%20%5Bmh%5D%29%20%20AND%20%28tox%5Bsb%5D%29&cmd=search"
    }
  ]
}