{
  "metadata": {
    "scraped_from": "https://haz-map.com/Agents/3112",
    "entity_name": "2-Hexoxyethanol",
    "category": "agents",
    "uuid": "346b99dc-2936-4759-aad4-560b751fca3c",
    "scraped_at": "2025-07-23T19:24:12.699161"
  },
  "parsed_at": "2025-07-24T01:09:41.677606",
  "title": "2-Hexoxyethanol",
  "sections": {
    "general": {
      "agent_name": {
        "original_name": "Agent Name",
        "value": "2-Hexoxyethanol",
        "links": [],
        "cross_references": [
          {
            "type": "name_match",
            "text": "2-hexoxyethanol",
            "confidence": 1.0,
            "uuid": "346b99dc-2936-4759-aad4-560b751fca3c",
            "name": "2-Hexoxyethanol",
            "url": "https://haz-map.com/Agents/3112",
            "category": "agents"
          }
        ]
      },
      "alternative_name": {
        "original_name": "Alternative Name",
        "value": "EGHE",
        "links": [],
        "cross_references": []
      },
      "cas_number": {
        "original_name": "CAS Number",
        "value": "112-25-4",
        "links": [],
        "cross_references": []
      },
      "formula": {
        "original_name": "Formula",
        "value": "C8-H18-O2",
        "links": [],
        "cross_references": []
      },
      "major_category": {
        "original_name": "Major Category",
        "value": "Solvents",
        "links": [],
        "cross_references": []
      },
      "synonyms": {
        "original_name": "Synonyms",
        "value": "2-(Hexyloxy)ethanol; Cellosolve, n-hexyl-; Ethanol, 2-hexyloxy-; Ethylene glycol monohexyl ether; Ethylene glycol n-hexyl ether; Ethylene glycol-n-monohexyl ether; Glycol monohexyl ether; Hexyl cellosolve; n-Hexyl cellosolve; [ChemIDplus]",
        "links": [],
        "cross_references": [
          {
            "type": "name_match",
            "text": "ethylene glycol",
            "confidence": 1.0,
            "uuid": "99589035-d71c-415a-914c-81c7a166be11",
            "name": "Ethylene glycol",
            "url": "https://haz-map.com/Agents/488",
            "category": "agents"
          },
          {
            "type": "name_match",
            "text": "ethylene",
            "confidence": 1.0,
            "uuid": "958eacc0-5135-4b62-bb93-6df972bf552f",
            "name": "Ethylene",
            "url": "https://haz-map.com/Agents/1076",
            "category": "agents"
          },
          {
            "type": "name_match",
            "text": "hexyl ether",
            "confidence": 1.0,
            "uuid": "62894cd0-7a8e-4617-8c8b-66e075af6f5b",
            "name": "Hexyl ether",
            "url": "https://haz-map.com/Agents/14643",
            "category": "agents"
          }
        ]
      },
      "category": {
        "original_name": "Category",
        "value": "Glycol Ethers (E Series)",
        "links": [],
        "cross_references": [
          {
            "type": "name_match",
            "text": "glycol ethers",
            "confidence": 1.0,
            "uuid": "753cf9f5-dc59-44ba-9fd6-38aca4a3cdac",
            "name": "GLYCOL ETHERS",
            "url": "https://haz-map.com/Agents/688",
            "category": "agents"
          }
        ]
      },
      "description": {
        "original_name": "Description",
        "value": "Colorless hygroscopic liquid; [CHEMINFO]",
        "links": [],
        "cross_references": []
      },
      "sourcesuses": {
        "original_name": "Sources/Uses",
        "value": "Used as a high-boiling solvent; as a chemical intermediate for hexyloxyethyl phosphate and neopentanoate; [HSDB] Used as a coalescing agent in latex paints and cleaners; [eChemPortal: SIDSUNEP]",
        "links": [],
        "cross_references": [
          {
            "type": "name_match",
            "text": "mica",
            "confidence": 1.0,
            "uuid": "433f26f1-c399-4596-b179-ce3843cfd465",
            "name": "Mica",
            "url": "https://haz-map.com/Agents/621",
            "category": "agents"
          }
        ]
      },
      "comments": {
        "original_name": "Comments",
        "value": "May cause CNS depression and kidney injury; [HSDB] A severe skin, eye, and respiratory tract irritant; \"The substance may have effects on the blood.\" [ICSC] An irritant; May be absorbed through skin; [MSDSonline] See \"GLYCOL ETHERS.\"",
        "links": [],
        "cross_references": [
          {
            "type": "name_match",
            "text": "glycol ethers",
            "confidence": 1.0,
            "uuid": "753cf9f5-dc59-44ba-9fd6-38aca4a3cdac",
            "name": "GLYCOL ETHERS",
            "url": "https://haz-map.com/Agents/688",
            "category": "agents"
          }
        ]
      },
      "biomedical_references": {
        "original_name": "Biomedical References",
        "value": "Search PubMed",
        "links": [
          {
            "text": "Search PubMed",
            "url": "https://www.ncbi.nlm.nih.gov/pubmed?term=2-Hexoxyethanol%20AND%20human%5Bmh%5D%20AND%20%28Occupational%20Diseases%20%5Bmh%5D%20OR%20Occupational%20Exposure%20%5Bmh%5D%29%20%20AND%20%28tox%5Bsb%5D%29&cmd=search"
          }
        ],
        "cross_references": []
      }
    },
    "exposure_assessment": {
      "vapor_pressure": {
        "original_name": "Vapor Pressure",
        "value": "0.051 mm Hg",
        "links": [],
        "cross_references": []
      },
      "lethal_concentration": {
        "original_name": "Lethal Concentration",
        "value": "LC (rat) > 83 ppm/4h",
        "links": [],
        "cross_references": []
      },
      "explanatory_notes": {
        "original_name": "Explanatory Notes",
        "value": "VP from ChemIDplus;",
        "links": [],
        "cross_references": []
      }
    },
    "adverse_effects": {
      "neurotoxin": {
        "original_name": "Neurotoxin",
        "value": "Acute solvent syndrome",
        "links": [],
        "cross_references": []
      },
      "hepatotoxin": {
        "original_name": "Hepatotoxin",
        "value": "Hepatoxic (a) from occupational exposure (secondary effect) or (b) in animal studies or in humans after ingestion",
        "links": [],
        "cross_references": []
      },
      "nephrotoxin": {
        "original_name": "Nephrotoxin",
        "value": "Yes",
        "links": [],
        "cross_references": []
      },
      "reproductive_toxin": {
        "original_name": "Reproductive Toxin",
        "value": "Yes",
        "links": [],
        "cross_references": []
      }
    },
    "diseases_processes_and_activities_linked_to_this_agent": {
      "diseases": {
        "original_name": "Diseases",
        "value": "Occupational diseases associated with exposure to this agent: Encephalopathy, chronic solvent Solvents, acute toxic effect",
        "links": [
          {
            "text": "Encephalopathy, chronic solvent",
            "url": "https://haz-map.com/Diseases/325"
          },
          {
            "text": "Solvents, acute toxic effect",
            "url": "https://haz-map.com/Diseases/326"
          }
        ],
        "cross_references": [
          {
            "type": "url_match",
            "text": "Encephalopathy, chronic solvent",
            "url": "https://haz-map.com/Diseases/325",
            "confidence": 1.0,
            "uuid": "589ad578-4636-444e-8823-bf2dd0c7aeab",
            "name": "Encephalopathy, chronic solvent",
            "category": "diseases"
          },
          {
            "type": "url_match",
            "text": "Solvents, acute toxic effect",
            "url": "https://haz-map.com/Diseases/326",
            "confidence": 1.0,
            "uuid": "581e90e3-9d0c-45f0-aa6c-3468c28da129",
            "name": "Solvents, acute toxic effect",
            "category": "diseases"
          }
        ]
      },
      "processes": {
        "original_name": "Processes",
        "value": "Industrial Processes with risk of exposure: Painting (Solvents)",
        "links": [
          {
            "text": "Painting (Solvents)",
            "url": "https://haz-map.com/Processes/142"
          }
        ],
        "cross_references": [
          {
            "type": "url_match",
            "text": "Painting (Solvents)",
            "url": "https://haz-map.com/Processes/142",
            "confidence": 1.0,
            "uuid": "ca747481-4da1-4550-a546-f0d43a41b46c",
            "name": "Painting (Solvents)",
            "category": "processes"
          },
          {
            "type": "name_match",
            "text": "painting",
            "confidence": 1.0,
            "uuid": "19816ce9-9edf-4a86-8e64-b0cbf7dcf520",
            "name": "Painting",
            "url": "https://haz-map.com/Activities/9",
            "category": "activities"
          }
        ]
      }
    }
  },
  "cross_references": [
    {
      "type": "url_match",
      "text": "Encephalopathy, chronic solvent",
      "url": "https://haz-map.com/Diseases/325",
      "confidence": 1.0,
      "uuid": "589ad578-4636-444e-8823-bf2dd0c7aeab",
      "name": "Encephalopathy, chronic solvent",
      "category": "diseases"
    },
    {
      "type": "url_match",
      "text": "Solvents, acute toxic effect",
      "url": "https://haz-map.com/Diseases/326",
      "confidence": 1.0,
      "uuid": "581e90e3-9d0c-45f0-aa6c-3468c28da129",
      "name": "Solvents, acute toxic effect",
      "category": "diseases"
    },
    {
      "type": "url_match",
      "text": "Painting (Solvents)",
      "url": "https://haz-map.com/Processes/142",
      "confidence": 1.0,
      "uuid": "ca747481-4da1-4550-a546-f0d43a41b46c",
      "name": "Painting (Solvents)",
      "category": "processes"
    },
    {
      "type": "name_match",
      "text": "painting",
      "confidence": 1.0,
      "uuid": "19816ce9-9edf-4a86-8e64-b0cbf7dcf520",
      "name": "Painting",
      "url": "https://haz-map.com/Activities/9",
      "category": "activities"
    },
    {
      "type": "name_match",
      "text": "ethylene glycol",
      "confidence": 1.0,
      "uuid": "99589035-d71c-415a-914c-81c7a166be11",
      "name": "Ethylene glycol",
      "url": "https://haz-map.com/Agents/488",
      "category": "agents"
    },
    {
      "type": "name_match",
      "text": "mica",
      "confidence": 1.0,
      "uuid": "433f26f1-c399-4596-b179-ce3843cfd465",
      "name": "Mica",
      "url": "https://haz-map.com/Agents/621",
      "category": "agents"
    },
    {
      "type": "name_match",
      "text": "glycol ethers",
      "confidence": 1.0,
      "uuid": "753cf9f5-dc59-44ba-9fd6-38aca4a3cdac",
      "name": "GLYCOL ETHERS",
      "url": "https://haz-map.com/Agents/688",
      "category": "agents"
    },
    {
      "type": "name_match",
      "text": "ethylene",
      "confidence": 1.0,
      "uuid": "958eacc0-5135-4b62-bb93-6df972bf552f",
      "name": "Ethylene",
      "url": "https://haz-map.com/Agents/1076",
      "category": "agents"
    },
    {
      "type": "name_match",
      "text": "2-hexoxyethanol",
      "confidence": 1.0,
      "uuid": "346b99dc-2936-4759-aad4-560b751fca3c",
      "name": "2-Hexoxyethanol",
      "url": "https://haz-map.com/Agents/3112",
      "category": "agents"
    },
    {
      "type": "name_match",
      "text": "hexyl ether",
      "confidence": 1.0,
      "uuid": "62894cd0-7a8e-4617-8c8b-66e075af6f5b",
      "name": "Hexyl ether",
      "url": "https://haz-map.com/Agents/14643",
      "category": "agents"
    }
  ],
  "all_links": [
    {
      "text": "Search PubMed",
      "url": "https://www.ncbi.nlm.nih.gov/pubmed?term=2-Hexoxyethanol%20AND%20human%5Bmh%5D%20AND%20%28Occupational%20Diseases%20%5Bmh%5D%20OR%20Occupational%20Exposure%20%5Bmh%5D%29%20%20AND%20%28tox%5Bsb%5D%29&cmd=search"
    },
    {
      "text": "Encephalopathy, chronic solvent",
      "url": "https://haz-map.com/Diseases/325"
    },
    {
      "text": "Solvents, acute toxic effect",
      "url": "https://haz-map.com/Diseases/326"
    },
    {
      "text": "Painting (Solvents)",
      "url": "https://haz-map.com/Processes/142"
    }
  ]
}