{
  "metadata": {
    "scraped_from": "https://haz-map.com/Agents/17057",
    "entity_name": "Pyruvic acid",
    "category": "agents",
    "uuid": "34ca7435-2bfe-4acd-9c35-696cad825b86",
    "scraped_at": "2025-07-23T21:43:09.239160"
  },
  "parsed_at": "2025-07-24T01:08:44.520173",
  "title": "Pyruvic acid",
  "sections": {
    "general": {
      "agent_name": {
        "original_name": "Agent Name",
        "value": "Pyruvic acid",
        "links": [],
        "cross_references": [
          {
            "type": "name_match",
            "text": "pyruvic acid",
            "confidence": 1.0,
            "uuid": "34ca7435-2bfe-4acd-9c35-696cad825b86",
            "name": "Pyruvic acid",
            "url": "https://haz-map.com/Agents/17057",
            "category": "agents"
          }
        ]
      },
      "cas_number": {
        "original_name": "CAS Number",
        "value": "127-17-3",
        "links": [],
        "cross_references": []
      },
      "formula": {
        "original_name": "Formula",
        "value": "C3-H4-O3",
        "links": [],
        "cross_references": []
      },
      "major_category": {
        "original_name": "Major Category",
        "value": "Biological Agents",
        "links": [],
        "cross_references": []
      },
      "synonyms": {
        "original_name": "Synonyms",
        "value": "2-Ketopropionic acid; 2-Oxopropanoic acid; 2-Oxopropansaeure; 2-Oxopropionic acid; 2-Oxopropionsaeure; Acetylformic acid; BTS; Propanoic acid, 2-oxo-; Pyroracemic acid; Pyruvic acid (natural); alpha-Ketopropionic acid; alpha-Oxopropionsaeure; [ChemIDplus] UN3265",
        "links": [],
        "cross_references": [
          {
            "type": "name_match",
            "text": "formic acid",
            "confidence": 1.0,
            "uuid": "5de50e8b-f1d4-40c0-a85a-79ed7fd08ea8",
            "name": "Formic acid",
            "url": "https://haz-map.com/Agents/497",
            "category": "agents"
          },
          {
            "type": "name_match",
            "text": "propionic acid",
            "confidence": 1.0,
            "uuid": "519c4d0a-ac6f-4f79-a08f-47ebc278e0b4",
            "name": "Propionic acid",
            "url": "https://haz-map.com/Agents/609",
            "category": "agents"
          },
          {
            "type": "name_match",
            "text": "pyruvic acid",
            "confidence": 1.0,
            "uuid": "34ca7435-2bfe-4acd-9c35-696cad825b86",
            "name": "Pyruvic acid",
            "url": "https://haz-map.com/Agents/17057",
            "category": "agents"
          }
        ]
      },
      "category": {
        "original_name": "Category",
        "value": "Other Biomolecules",
        "links": [],
        "cross_references": []
      },
      "description": {
        "original_name": "Description",
        "value": "Liquid with an odor like acetic acid; mp = 11.8 deg C; [Merck Index]",
        "links": [],
        "cross_references": [
          {
            "type": "name_match",
            "text": "acetic acid",
            "confidence": 1.0,
            "uuid": "0905c6e4-df84-4895-a92d-658819239bbd",
            "name": "Acetic acid",
            "url": "https://haz-map.com/Agents/207",
            "category": "agents"
          }
        ]
      },
      "sourcesuses": {
        "original_name": "Sources/Uses",
        "value": "Intermediate in sugar metabolism and alcoholic fermentation; [Merck Index] Used as flavoring agent or adjuvant; [FDA] \"Pyruvic acid supplies energy to living cells through the citric acid cycle (also known as the Krebs cycle) when oxygen is present (aerobic respiration), and alternatively ferments to produce lactic acid when oxygen is lacking (fermentation).\" [Wikipedia]",
        "links": [],
        "cross_references": [
          {
            "type": "name_match",
            "text": "lactic acid",
            "confidence": 1.0,
            "uuid": "6a34838d-06cd-4af9-9313-208a12a6819b",
            "name": "Lactic acid",
            "url": "https://haz-map.com/Agents/1416",
            "category": "agents"
          },
          {
            "type": "name_match",
            "text": "oxygen",
            "confidence": 1.0,
            "uuid": "daf61849-c843-41a6-bdfb-880e4ee71d7f",
            "name": "Oxygen",
            "url": "https://haz-map.com/Agents/1564",
            "category": "agents"
          },
          {
            "type": "name_match",
            "text": "citric acid",
            "confidence": 1.0,
            "uuid": "13f2d590-365a-4d84-9496-41fb4b91c714",
            "name": "Citric acid",
            "url": "https://haz-map.com/Agents/2025",
            "category": "agents"
          },
          {
            "type": "name_match",
            "text": "pyruvic acid",
            "confidence": 1.0,
            "uuid": "34ca7435-2bfe-4acd-9c35-696cad825b86",
            "name": "Pyruvic acid",
            "url": "https://haz-map.com/Agents/17057",
            "category": "agents"
          }
        ]
      },
      "comments": {
        "original_name": "Comments",
        "value": "Causes degenerative changes to brain in acute cerebral studies of rats; [RTECS] Polymerizes and decomposes on standing unless pure and stored in airtight container; [Merck Index] Safe when used as a flavoring agent in food; [JECFA] Causes burns; Inhalation may cause corrosive injuries to upper respiratory tract and lungs; [Sigma-Aldrich MSDS]",
        "links": [],
        "cross_references": [
          {
            "type": "name_match",
            "text": "burn",
            "confidence": 1.0,
            "uuid": "63665de5-6376-4918-8dbf-4c10c4d63837",
            "name": "burn",
            "url": "https://haz-map.com/Findings/204",
            "category": "findings"
          },
          {
            "type": "name_match",
            "text": "ht",
            "confidence": 1.0,
            "uuid": "764df367-8d53-4a11-81a2-31ccfe122a8d",
            "name": "HT",
            "url": "https://haz-map.com/Agents/2168",
            "category": "agents"
          }
        ]
      },
      "biomedical_references": {
        "original_name": "Biomedical References",
        "value": "Search PubMed",
        "links": [
          {
            "text": "Search PubMed",
            "url": "https://www.ncbi.nlm.nih.gov/pubmed?term=Pyruvic+acid%20AND%20human%5Bmh%5D%20AND%20%28Occupational%20Diseases%20%5Bmh%5D%20OR%20Occupational%20Exposure%20%5Bmh%5D%29%20%20AND%20%28tox%5Bsb%5D%29&cmd=search"
          }
        ],
        "cross_references": []
      }
    },
    "exposure_assessment": {
      "vapor_pressure": {
        "original_name": "Vapor Pressure",
        "value": "1.29 mm Hg",
        "links": [],
        "cross_references": []
      },
      "explanatory_notes": {
        "original_name": "Explanatory Notes",
        "value": "The Guide in the Emergency Response Guidebook is for \"Corrosive liquid, acidic, organic, n.o.s.\"",
        "links": [],
        "cross_references": []
      }
    },
    "adverse_effects": {
      "toxic_pneumonitis": {
        "original_name": "Toxic Pneumonitis",
        "value": "Yes",
        "links": [],
        "cross_references": []
      },
      "dermatotoxin": {
        "original_name": "Dermatotoxin",
        "value": "Skin burns",
        "links": [],
        "cross_references": [
          {
            "type": "name_match",
            "text": "burn",
            "confidence": 1.0,
            "uuid": "63665de5-6376-4918-8dbf-4c10c4d63837",
            "name": "burn",
            "url": "https://haz-map.com/Findings/204",
            "category": "findings"
          }
        ]
      }
    },
    "diseases_processes_and_activities_linked_to_this_agent": {
      "other_information": {
        "original_name": "Other Information",
        "value": "No other related information on this agent was found.",
        "links": [],
        "cross_references": []
      }
    }
  },
  "cross_references": [
    {
      "type": "name_match",
      "text": "burn",
      "confidence": 1.0,
      "uuid": "63665de5-6376-4918-8dbf-4c10c4d63837",
      "name": "burn",
      "url": "https://haz-map.com/Findings/204",
      "category": "findings"
    },
    {
      "type": "name_match",
      "text": "acetic acid",
      "confidence": 1.0,
      "uuid": "0905c6e4-df84-4895-a92d-658819239bbd",
      "name": "Acetic acid",
      "url": "https://haz-map.com/Agents/207",
      "category": "agents"
    },
    {
      "type": "name_match",
      "text": "formic acid",
      "confidence": 1.0,
      "uuid": "5de50e8b-f1d4-40c0-a85a-79ed7fd08ea8",
      "name": "Formic acid",
      "url": "https://haz-map.com/Agents/497",
      "category": "agents"
    },
    {
      "type": "name_match",
      "text": "propionic acid",
      "confidence": 1.0,
      "uuid": "519c4d0a-ac6f-4f79-a08f-47ebc278e0b4",
      "name": "Propionic acid",
      "url": "https://haz-map.com/Agents/609",
      "category": "agents"
    },
    {
      "type": "name_match",
      "text": "lactic acid",
      "confidence": 1.0,
      "uuid": "6a34838d-06cd-4af9-9313-208a12a6819b",
      "name": "Lactic acid",
      "url": "https://haz-map.com/Agents/1416",
      "category": "agents"
    },
    {
      "type": "name_match",
      "text": "oxygen",
      "confidence": 1.0,
      "uuid": "daf61849-c843-41a6-bdfb-880e4ee71d7f",
      "name": "Oxygen",
      "url": "https://haz-map.com/Agents/1564",
      "category": "agents"
    },
    {
      "type": "name_match",
      "text": "citric acid",
      "confidence": 1.0,
      "uuid": "13f2d590-365a-4d84-9496-41fb4b91c714",
      "name": "Citric acid",
      "url": "https://haz-map.com/Agents/2025",
      "category": "agents"
    },
    {
      "type": "name_match",
      "text": "ht",
      "confidence": 1.0,
      "uuid": "764df367-8d53-4a11-81a2-31ccfe122a8d",
      "name": "HT",
      "url": "https://haz-map.com/Agents/2168",
      "category": "agents"
    },
    {
      "type": "name_match",
      "text": "pyruvic acid",
      "confidence": 1.0,
      "uuid": "34ca7435-2bfe-4acd-9c35-696cad825b86",
      "name": "Pyruvic acid",
      "url": "https://haz-map.com/Agents/17057",
      "category": "agents"
    }
  ],
  "all_links": [
    {
      "text": "Search PubMed",
      "url": "https://www.ncbi.nlm.nih.gov/pubmed?term=Pyruvic+acid%20AND%20human%5Bmh%5D%20AND%20%28Occupational%20Diseases%20%5Bmh%5D%20OR%20Occupational%20Exposure%20%5Bmh%5D%29%20%20AND%20%28tox%5Bsb%5D%29&cmd=search"
    }
  ]
}