{
  "metadata": {
    "scraped_from": "https://haz-map.com/Agents/20250",
    "entity_name": "Anthrarufin",
    "category": "agents",
    "uuid": "34f3d3b4-8b3d-4cac-b23b-f81e2dc2d790",
    "scraped_at": "2025-07-23T22:21:55.272461"
  },
  "parsed_at": "2025-07-24T01:04:05.610143",
  "title": "Anthrarufin",
  "sections": {
    "general": {
      "agent_name": {
        "original_name": "Agent Name",
        "value": "Anthrarufin",
        "links": [],
        "cross_references": [
          {
            "type": "name_match",
            "text": "anthrarufin",
            "confidence": 1.0,
            "uuid": "34f3d3b4-8b3d-4cac-b23b-f81e2dc2d790",
            "name": "Anthrarufin",
            "url": "https://haz-map.com/Agents/20250",
            "category": "agents"
          }
        ]
      },
      "cas_number": {
        "original_name": "CAS Number",
        "value": "117-12-4",
        "links": [],
        "cross_references": []
      },
      "formula": {
        "original_name": "Formula",
        "value": "C14-H8-O4",
        "links": [],
        "cross_references": []
      },
      "major_category": {
        "original_name": "Major Category",
        "value": "Dyes",
        "links": [],
        "cross_references": []
      },
      "synonyms": {
        "original_name": "Synonyms",
        "value": "1,5-Dihydroxy-9,10-anthraquinone; 1,5-Dihydroxyanthrachinon [Czech]; 1,5-Dihydroxyanthraquinone; 9,10-Anthracenedione, 1,5-dihydroxy-; Anthraquinone, 1,5-dihydroxy-; [ChemIDplus] 1,5-Dihydroxy-9,10-anthracenedione; [Merck Index]",
        "links": [],
        "cross_references": [
          {
            "type": "name_match",
            "text": "quinone",
            "confidence": 1.0,
            "uuid": "d01e66c3-ad06-4707-8d42-3c6655001c1a",
            "name": "Quinone",
            "url": "https://haz-map.com/Agents/303",
            "category": "agents"
          },
          {
            "type": "name_match",
            "text": "anthraquinone",
            "confidence": 1.0,
            "uuid": "953f43e3-2275-41f0-9f8e-f5764f83b717",
            "name": "Anthraquinone",
            "url": "https://haz-map.com/Agents/3713",
            "category": "agents"
          },
          {
            "type": "name_match",
            "text": "anthracene",
            "confidence": 1.0,
            "uuid": "f11a62e4-1e69-4f6d-a8b7-240c9de086ff",
            "name": "Anthracene",
            "url": "https://haz-map.com/Agents/7821",
            "category": "agents"
          }
        ]
      },
      "category": {
        "original_name": "Category",
        "value": "Anthraquinone Dyes",
        "links": [],
        "cross_references": [
          {
            "type": "name_match",
            "text": "quinone",
            "confidence": 1.0,
            "uuid": "d01e66c3-ad06-4707-8d42-3c6655001c1a",
            "name": "Quinone",
            "url": "https://haz-map.com/Agents/303",
            "category": "agents"
          },
          {
            "type": "name_match",
            "text": "anthraquinone",
            "confidence": 1.0,
            "uuid": "953f43e3-2275-41f0-9f8e-f5764f83b717",
            "name": "Anthraquinone",
            "url": "https://haz-map.com/Agents/3713",
            "category": "agents"
          }
        ]
      },
      "description": {
        "original_name": "Description",
        "value": "Green to yellow solid; [Merck Index] Yellow powder; [Alfa Aesar MSDS]",
        "links": [],
        "cross_references": []
      },
      "sourcesuses": {
        "original_name": "Sources/Uses",
        "value": "Used to make alizarin and indanthrene dyes; Forms insoluble barium and calcium lakes; [Merck Index]",
        "links": [],
        "cross_references": [
          {
            "type": "name_match",
            "text": "barium",
            "confidence": 1.0,
            "uuid": "d7a1238c-4270-4036-a0c3-45a5192a51ba",
            "name": "Barium",
            "url": "https://haz-map.com/Agents/300",
            "category": "agents"
          },
          {
            "type": "name_match",
            "text": "alizarin",
            "confidence": 1.0,
            "uuid": "39ef3865-0065-4bcb-b826-5d0ca8fc731f",
            "name": "Alizarin",
            "url": "https://haz-map.com/Agents/1958",
            "category": "agents"
          },
          {
            "type": "name_match",
            "text": "calcium",
            "confidence": 1.0,
            "uuid": "1e5baf77-7a7a-476b-84c6-5b1ea504c5fc",
            "name": "Calcium",
            "url": "https://haz-map.com/Agents/1994",
            "category": "agents"
          },
          {
            "type": "name_match",
            "text": "indanthrene",
            "confidence": 1.0,
            "uuid": "34003ee3-3426-4042-b1e4-9a921e2bebec",
            "name": "Indanthrene",
            "url": "https://haz-map.com/Agents/4098",
            "category": "agents"
          },
          {
            "type": "name_match",
            "text": "indan",
            "confidence": 1.0,
            "uuid": "ebba867b-a993-436a-85fb-f7d1183da941",
            "name": "Indan",
            "url": "https://haz-map.com/Agents/19450",
            "category": "agents"
          }
        ]
      },
      "comments": {
        "original_name": "Comments",
        "value": "A mild eye irritant; [RTECS] May cause irritation; [Alfa Aesar MSDS] See \"Alizarin.\"",
        "links": [],
        "cross_references": [
          {
            "type": "name_match",
            "text": "alizarin",
            "confidence": 1.0,
            "uuid": "39ef3865-0065-4bcb-b826-5d0ca8fc731f",
            "name": "Alizarin",
            "url": "https://haz-map.com/Agents/1958",
            "category": "agents"
          }
        ]
      },
      "biomedical_references": {
        "original_name": "Biomedical References",
        "value": "Search PubMed",
        "links": [
          {
            "text": "Search PubMed",
            "url": "https://www.ncbi.nlm.nih.gov/pubmed?term=Anthrarufin%20AND%20human%5Bmh%5D%20AND%20%28Occupational%20Diseases%20%5Bmh%5D%20OR%20Occupational%20Exposure%20%5Bmh%5D%29%20%20AND%20%28tox%5Bsb%5D%29&cmd=search"
          }
        ],
        "cross_references": []
      }
    },
    "exposure_assessment": {
      "vapor_pressure": {
        "original_name": "Vapor Pressure",
        "value": "1.17E-09 mm Hg",
        "links": [],
        "cross_references": []
      }
    },
    "diseases_processes_and_activities_linked_to_this_agent": {
      "other_information": {
        "original_name": "Other Information",
        "value": "No other related information on this agent was found.",
        "links": [],
        "cross_references": []
      }
    }
  },
  "cross_references": [
    {
      "type": "name_match",
      "text": "barium",
      "confidence": 1.0,
      "uuid": "d7a1238c-4270-4036-a0c3-45a5192a51ba",
      "name": "Barium",
      "url": "https://haz-map.com/Agents/300",
      "category": "agents"
    },
    {
      "type": "name_match",
      "text": "quinone",
      "confidence": 1.0,
      "uuid": "d01e66c3-ad06-4707-8d42-3c6655001c1a",
      "name": "Quinone",
      "url": "https://haz-map.com/Agents/303",
      "category": "agents"
    },
    {
      "type": "name_match",
      "text": "alizarin",
      "confidence": 1.0,
      "uuid": "39ef3865-0065-4bcb-b826-5d0ca8fc731f",
      "name": "Alizarin",
      "url": "https://haz-map.com/Agents/1958",
      "category": "agents"
    },
    {
      "type": "name_match",
      "text": "calcium",
      "confidence": 1.0,
      "uuid": "1e5baf77-7a7a-476b-84c6-5b1ea504c5fc",
      "name": "Calcium",
      "url": "https://haz-map.com/Agents/1994",
      "category": "agents"
    },
    {
      "type": "name_match",
      "text": "anthraquinone",
      "confidence": 1.0,
      "uuid": "953f43e3-2275-41f0-9f8e-f5764f83b717",
      "name": "Anthraquinone",
      "url": "https://haz-map.com/Agents/3713",
      "category": "agents"
    },
    {
      "type": "name_match",
      "text": "indanthrene",
      "confidence": 1.0,
      "uuid": "34003ee3-3426-4042-b1e4-9a921e2bebec",
      "name": "Indanthrene",
      "url": "https://haz-map.com/Agents/4098",
      "category": "agents"
    },
    {
      "type": "name_match",
      "text": "anthracene",
      "confidence": 1.0,
      "uuid": "f11a62e4-1e69-4f6d-a8b7-240c9de086ff",
      "name": "Anthracene",
      "url": "https://haz-map.com/Agents/7821",
      "category": "agents"
    },
    {
      "type": "name_match",
      "text": "indan",
      "confidence": 1.0,
      "uuid": "ebba867b-a993-436a-85fb-f7d1183da941",
      "name": "Indan",
      "url": "https://haz-map.com/Agents/19450",
      "category": "agents"
    },
    {
      "type": "name_match",
      "text": "anthrarufin",
      "confidence": 1.0,
      "uuid": "34f3d3b4-8b3d-4cac-b23b-f81e2dc2d790",
      "name": "Anthrarufin",
      "url": "https://haz-map.com/Agents/20250",
      "category": "agents"
    }
  ],
  "all_links": [
    {
      "text": "Search PubMed",
      "url": "https://www.ncbi.nlm.nih.gov/pubmed?term=Anthrarufin%20AND%20human%5Bmh%5D%20AND%20%28Occupational%20Diseases%20%5Bmh%5D%20OR%20Occupational%20Exposure%20%5Bmh%5D%29%20%20AND%20%28tox%5Bsb%5D%29&cmd=search"
    }
  ]
}