{
  "metadata": {
    "scraped_from": "https://haz-map.com/Agents/3129",
    "entity_name": "2-Methyl-1-pentanol",
    "category": "agents",
    "uuid": "35195b43-075e-4d18-a826-b02d18936375",
    "scraped_at": "2025-07-23T19:24:32.098926"
  },
  "parsed_at": "2025-07-24T00:57:58.539446",
  "title": "2-Methyl-1-pentanol",
  "sections": {
    "general": {
      "agent_name": {
        "original_name": "Agent Name",
        "value": "2-Methyl-1-pentanol",
        "links": [],
        "cross_references": [
          {
            "type": "name_match",
            "text": "2-methyl-1-pentanol",
            "confidence": 1.0,
            "uuid": "35195b43-075e-4d18-a826-b02d18936375",
            "name": "2-Methyl-1-pentanol",
            "url": "https://haz-map.com/Agents/3129",
            "category": "agents"
          },
          {
            "type": "name_match",
            "text": "1-pentanol",
            "confidence": 1.0,
            "uuid": "74c9beda-4812-46af-930c-b4b8c6b2cee3",
            "name": "1-Pentanol",
            "url": "https://haz-map.com/Agents/3547",
            "category": "agents"
          }
        ]
      },
      "cas_number": {
        "original_name": "CAS Number",
        "value": "105-30-6",
        "links": [],
        "cross_references": []
      },
      "formula": {
        "original_name": "Formula",
        "value": "C6-H14-O",
        "links": [],
        "cross_references": []
      },
      "major_category": {
        "original_name": "Major Category",
        "value": "Solvents",
        "links": [],
        "cross_references": []
      },
      "synonyms": {
        "original_name": "Synonyms",
        "value": "(+-)-2-Methyl-1-pentanol; (+-)-2-Methylpentanol; 2-MPOH; 2-Methylpentanol-1; Isohexyl alcohol; sec-Amyl carbinol; [ChemIDplus] Amyl methyl alcohol; Methylamyl alcohol; 2-Methyl-2-propylethanol; MIBC; [HSDB] UN2053",
        "links": [],
        "cross_references": [
          {
            "type": "name_match",
            "text": "methyl alcohol",
            "confidence": 1.0,
            "uuid": "6b4db7bf-710a-48ac-9b97-40e0376a68f3",
            "name": "Methyl alcohol",
            "url": "https://haz-map.com/Agents/13",
            "category": "agents"
          },
          {
            "type": "name_match",
            "text": "ethyl alcohol",
            "confidence": 1.0,
            "uuid": "9e039165-5b7c-44a7-afb2-dcf3c15e7a99",
            "name": "Ethyl alcohol",
            "url": "https://haz-map.com/Agents/481",
            "category": "agents"
          },
          {
            "type": "name_match",
            "text": "2-methyl-1-pentanol",
            "confidence": 1.0,
            "uuid": "35195b43-075e-4d18-a826-b02d18936375",
            "name": "2-Methyl-1-pentanol",
            "url": "https://haz-map.com/Agents/3129",
            "category": "agents"
          },
          {
            "type": "name_match",
            "text": "1-pentanol",
            "confidence": 1.0,
            "uuid": "74c9beda-4812-46af-930c-b4b8c6b2cee3",
            "name": "1-Pentanol",
            "url": "https://haz-map.com/Agents/3547",
            "category": "agents"
          }
        ]
      },
      "category": {
        "original_name": "Category",
        "value": "Alcohols (<C12)",
        "links": [],
        "cross_references": []
      },
      "description": {
        "original_name": "Description",
        "value": "Colorless liquid; [HSDB]",
        "links": [],
        "cross_references": []
      },
      "sourcesuses": {
        "original_name": "Sources/Uses",
        "value": "Used as a solvent; as a solvent extender and solution viscosity reducer; [HSDB] Used as a chemical intermediate for plastics and other organic compounds; [CHEMINFO]",
        "links": [],
        "cross_references": [
          {
            "type": "name_match",
            "text": "mica",
            "confidence": 1.0,
            "uuid": "433f26f1-c399-4596-b179-ce3843cfd465",
            "name": "Mica",
            "url": "https://haz-map.com/Agents/621",
            "category": "agents"
          },
          {
            "type": "fuzzy_match",
            "text": "organic compounds",
            "matched_name": "Tin, organic compounds",
            "confidence": 0.8196969696969697,
            "uuid": "e027d413-8869-4308-9eb2-27d768b011ea",
            "category": "agents",
            "url": "https://haz-map.com/Agents/656"
          }
        ]
      },
      "comments": {
        "original_name": "Comments",
        "value": "A skin, eye, nose, and throat irritant; [CHEMINFO] An irritant; May cause serious injury to eyes; [MSDSonline]",
        "links": [],
        "cross_references": []
      },
      "biomedical_references": {
        "original_name": "Biomedical References",
        "value": "Search PubMed",
        "links": [
          {
            "text": "Search PubMed",
            "url": "https://www.ncbi.nlm.nih.gov/pubmed?term=2-Methyl-1-pentanol%20AND%20human%5Bmh%5D%20AND%20%28Occupational%20Diseases%20%5Bmh%5D%20OR%20Occupational%20Exposure%20%5Bmh%5D%29%20%20AND%20%28tox%5Bsb%5D%29&cmd=search"
          }
        ],
        "cross_references": []
      }
    },
    "exposure_assessment": {
      "vapor_pressure": {
        "original_name": "Vapor Pressure",
        "value": "1.92 mm Hg",
        "links": [],
        "cross_references": []
      },
      "lethal_concentration": {
        "original_name": "Lethal Concentration",
        "value": "LC (rat) > 5,000 ppm/6h",
        "links": [],
        "cross_references": []
      },
      "explanatory_notes": {
        "original_name": "Explanatory Notes",
        "value": "Flash point = 54 deg C; [HSDB] VP from ChemIDplus;",
        "links": [],
        "cross_references": [
          {
            "type": "name_match",
            "text": "ash",
            "confidence": 1.0,
            "uuid": "68b360f1-5ad0-4337-bea0-d7adca2961b5",
            "name": "Ash",
            "url": "https://haz-map.com/Agents/965",
            "category": "agents"
          }
        ]
      },
      "nfpa": {
        "original_name": "NFPA",
        "value": "high ambient temp required",
        "links": [],
        "cross_references": []
      }
    },
    "adverse_effects": {
      "neurotoxin": {
        "original_name": "Neurotoxin",
        "value": "Acute solvent syndrome",
        "links": [],
        "cross_references": []
      }
    },
    "diseases_processes_and_activities_linked_to_this_agent": {
      "diseases": {
        "original_name": "Diseases",
        "value": "Occupational diseases associated with exposure to this agent: Solvents, acute toxic effect",
        "links": [
          {
            "text": "Solvents, acute toxic effect",
            "url": "https://haz-map.com/Diseases/326"
          }
        ],
        "cross_references": [
          {
            "type": "url_match",
            "text": "Solvents, acute toxic effect",
            "url": "https://haz-map.com/Diseases/326",
            "confidence": 1.0,
            "uuid": "581e90e3-9d0c-45f0-aa6c-3468c28da129",
            "name": "Solvents, acute toxic effect",
            "category": "diseases"
          }
        ]
      }
    }
  },
  "cross_references": [
    {
      "type": "url_match",
      "text": "Solvents, acute toxic effect",
      "url": "https://haz-map.com/Diseases/326",
      "confidence": 1.0,
      "uuid": "581e90e3-9d0c-45f0-aa6c-3468c28da129",
      "name": "Solvents, acute toxic effect",
      "category": "diseases"
    },
    {
      "type": "name_match",
      "text": "methyl alcohol",
      "confidence": 1.0,
      "uuid": "6b4db7bf-710a-48ac-9b97-40e0376a68f3",
      "name": "Methyl alcohol",
      "url": "https://haz-map.com/Agents/13",
      "category": "agents"
    },
    {
      "type": "name_match",
      "text": "ethyl alcohol",
      "confidence": 1.0,
      "uuid": "9e039165-5b7c-44a7-afb2-dcf3c15e7a99",
      "name": "Ethyl alcohol",
      "url": "https://haz-map.com/Agents/481",
      "category": "agents"
    },
    {
      "type": "name_match",
      "text": "mica",
      "confidence": 1.0,
      "uuid": "433f26f1-c399-4596-b179-ce3843cfd465",
      "name": "Mica",
      "url": "https://haz-map.com/Agents/621",
      "category": "agents"
    },
    {
      "type": "name_match",
      "text": "ash",
      "confidence": 1.0,
      "uuid": "68b360f1-5ad0-4337-bea0-d7adca2961b5",
      "name": "Ash",
      "url": "https://haz-map.com/Agents/965",
      "category": "agents"
    },
    {
      "type": "name_match",
      "text": "2-methyl-1-pentanol",
      "confidence": 1.0,
      "uuid": "35195b43-075e-4d18-a826-b02d18936375",
      "name": "2-Methyl-1-pentanol",
      "url": "https://haz-map.com/Agents/3129",
      "category": "agents"
    },
    {
      "type": "name_match",
      "text": "1-pentanol",
      "confidence": 1.0,
      "uuid": "74c9beda-4812-46af-930c-b4b8c6b2cee3",
      "name": "1-Pentanol",
      "url": "https://haz-map.com/Agents/3547",
      "category": "agents"
    },
    {
      "type": "fuzzy_match",
      "text": "organic compounds",
      "matched_name": "Tin, organic compounds",
      "confidence": 0.8196969696969697,
      "uuid": "e027d413-8869-4308-9eb2-27d768b011ea",
      "category": "agents",
      "url": "https://haz-map.com/Agents/656"
    }
  ],
  "all_links": [
    {
      "text": "Search PubMed",
      "url": "https://www.ncbi.nlm.nih.gov/pubmed?term=2-Methyl-1-pentanol%20AND%20human%5Bmh%5D%20AND%20%28Occupational%20Diseases%20%5Bmh%5D%20OR%20Occupational%20Exposure%20%5Bmh%5D%29%20%20AND%20%28tox%5Bsb%5D%29&cmd=search"
    },
    {
      "text": "Solvents, acute toxic effect",
      "url": "https://haz-map.com/Diseases/326"
    }
  ]
}