{
  "metadata": {
    "scraped_from": "https://haz-map.com/Agents/4578",
    "entity_name": "Cyclododecalactam",
    "category": "agents",
    "uuid": "353ebfef-b073-4d64-8a13-9f66778267d6",
    "scraped_at": "2025-07-23T19:42:22.145518"
  },
  "parsed_at": "2025-07-24T01:15:07.486361",
  "title": "Cyclododecalactam",
  "sections": {
    "general": {
      "agent_name": {
        "original_name": "Agent Name",
        "value": "Cyclododecalactam",
        "links": [],
        "cross_references": [
          {
            "type": "name_match",
            "text": "cyclododecalactam",
            "confidence": 1.0,
            "uuid": "353ebfef-b073-4d64-8a13-9f66778267d6",
            "name": "Cyclododecalactam",
            "url": "https://haz-map.com/Agents/4578",
            "category": "agents"
          }
        ]
      },
      "cas_number": {
        "original_name": "CAS Number",
        "value": "947-04-6",
        "links": [],
        "cross_references": []
      },
      "formula": {
        "original_name": "Formula",
        "value": "C12-H23-N-O",
        "links": [],
        "cross_references": []
      },
      "major_category": {
        "original_name": "Major Category",
        "value": "Plastics & Rubber",
        "links": [],
        "cross_references": []
      },
      "synonyms": {
        "original_name": "Synonyms",
        "value": "1-Aza-2-cyclotridecanone; 2-Azacyclotridecanone; 2-Oxo-dodecamethylenimine; Dodecanoic acid, 12-amino-, lactam; Dodecyllactam; Laurin lactam; Laurinolactam; Lauryl lactam; omega-Dodecalactam; omega-Dodecanolactam; omega-Laurolactam; [ChemIDplus]",
        "links": [],
        "cross_references": [
          {
            "type": "name_match",
            "text": "dodecanol",
            "confidence": 1.0,
            "uuid": "b19cf65b-9315-49e2-86ca-26e6a262da05",
            "name": "Dodecanol",
            "url": "https://haz-map.com/Agents/5047",
            "category": "agents"
          },
          {
            "type": "name_match",
            "text": "aurin",
            "confidence": 1.0,
            "uuid": "d84a3e17-c22e-49c8-a819-c0f493df6b46",
            "name": "Aurin",
            "url": "https://haz-map.com/Agents/12002",
            "category": "agents"
          }
        ]
      },
      "category": {
        "original_name": "Category",
        "value": "Other Monomers",
        "links": [],
        "cross_references": []
      },
      "description": {
        "original_name": "Description",
        "value": "Solid; [eChemPortal: SIDSUNEP] Very faintly beige crystalline lumps; [MSDSonline]",
        "links": [],
        "cross_references": [
          {
            "type": "fuzzy_match",
            "text": "crystalline",
            "matched_name": "Silica, crystalline",
            "confidence": 0.7061403508771931,
            "uuid": "f920e8a2-46df-41b7-af8d-0368a777251e",
            "category": "agents",
            "url": "https://haz-map.com/Agents/427"
          }
        ]
      },
      "sourcesuses": {
        "original_name": "Sources/Uses",
        "value": "Used as a monomer for the polymerization of polyamide; [eChemPortal: SIDSUNEP]",
        "links": [],
        "cross_references": []
      },
      "comments": {
        "original_name": "Comments",
        "value": "May cause irritation; [MSDSonline] See \"Caprolactam.\"",
        "links": [],
        "cross_references": [
          {
            "type": "name_match",
            "text": "caprolactam",
            "confidence": 1.0,
            "uuid": "ab7d90df-81b2-494b-ba93-0d963bbc64a8",
            "name": "Caprolactam",
            "url": "https://haz-map.com/Agents/339",
            "category": "agents"
          }
        ]
      },
      "biomedical_references": {
        "original_name": "Biomedical References",
        "value": "Search PubMed",
        "links": [
          {
            "text": "Search PubMed",
            "url": "https://www.ncbi.nlm.nih.gov/pubmed?term=Cyclododecalactam%20AND%20human%5Bmh%5D%20AND%20%28Occupational%20Diseases%20%5Bmh%5D%20OR%20Occupational%20Exposure%20%5Bmh%5D%29%20%20AND%20%28tox%5Bsb%5D%29&cmd=search"
          }
        ],
        "cross_references": []
      }
    },
    "exposure_assessment": {
      "vapor_pressure": {
        "original_name": "Vapor Pressure",
        "value": "7.31E-06 mm Hg",
        "links": [],
        "cross_references": []
      }
    },
    "diseases_processes_and_activities_linked_to_this_agent": {
      "other_information": {
        "original_name": "Other Information",
        "value": "No other related information on this agent was found.",
        "links": [],
        "cross_references": []
      }
    }
  },
  "cross_references": [
    {
      "type": "name_match",
      "text": "caprolactam",
      "confidence": 1.0,
      "uuid": "ab7d90df-81b2-494b-ba93-0d963bbc64a8",
      "name": "Caprolactam",
      "url": "https://haz-map.com/Agents/339",
      "category": "agents"
    },
    {
      "type": "name_match",
      "text": "cyclododecalactam",
      "confidence": 1.0,
      "uuid": "353ebfef-b073-4d64-8a13-9f66778267d6",
      "name": "Cyclododecalactam",
      "url": "https://haz-map.com/Agents/4578",
      "category": "agents"
    },
    {
      "type": "name_match",
      "text": "dodecanol",
      "confidence": 1.0,
      "uuid": "b19cf65b-9315-49e2-86ca-26e6a262da05",
      "name": "Dodecanol",
      "url": "https://haz-map.com/Agents/5047",
      "category": "agents"
    },
    {
      "type": "name_match",
      "text": "aurin",
      "confidence": 1.0,
      "uuid": "d84a3e17-c22e-49c8-a819-c0f493df6b46",
      "name": "Aurin",
      "url": "https://haz-map.com/Agents/12002",
      "category": "agents"
    },
    {
      "type": "fuzzy_match",
      "text": "crystalline",
      "matched_name": "Silica, crystalline",
      "confidence": 0.7061403508771931,
      "uuid": "f920e8a2-46df-41b7-af8d-0368a777251e",
      "category": "agents",
      "url": "https://haz-map.com/Agents/427"
    }
  ],
  "all_links": [
    {
      "text": "Search PubMed",
      "url": "https://www.ncbi.nlm.nih.gov/pubmed?term=Cyclododecalactam%20AND%20human%5Bmh%5D%20AND%20%28Occupational%20Diseases%20%5Bmh%5D%20OR%20Occupational%20Exposure%20%5Bmh%5D%29%20%20AND%20%28tox%5Bsb%5D%29&cmd=search"
    }
  ]
}