{
  "metadata": {
    "scraped_from": "https://haz-map.com/Agents/15529",
    "entity_name": "Methyl nonafluoroisobutyl ether",
    "category": "agents",
    "uuid": "358d766d-2980-4c58-b74e-89181aed46a3",
    "scraped_at": "2025-07-23T21:30:35.447077"
  },
  "parsed_at": "2025-07-24T00:57:32.352852",
  "title": "Methyl nonafluoroisobutyl ether",
  "sections": {
    "general": {
      "agent_name": {
        "original_name": "Agent Name",
        "value": "Methyl nonafluoroisobutyl ether",
        "links": [],
        "cross_references": [
          {
            "type": "name_match",
            "text": "methyl nonafluoroisobutyl ether",
            "confidence": 1.0,
            "uuid": "358d766d-2980-4c58-b74e-89181aed46a3",
            "name": "Methyl nonafluoroisobutyl ether",
            "url": "https://haz-map.com/Agents/15529",
            "category": "agents"
          }
        ]
      },
      "cas_number": {
        "original_name": "CAS Number",
        "value": "163702-08-7",
        "links": [],
        "cross_references": []
      },
      "formula": {
        "original_name": "Formula",
        "value": "C5-H3-F9-O",
        "links": [],
        "cross_references": []
      },
      "major_category": {
        "original_name": "Major Category",
        "value": "Other Classes",
        "links": [],
        "cross_references": []
      },
      "synonyms": {
        "original_name": "Synonyms",
        "value": "Propane, 2-(difluoromethoxymethyl)-1,1,1,2,3,3,3-heptafluoro-; [ChemIDplus] VF-45 (TM) HFE-Based Cleaning Fluid, VOL-0570A; [3M MSDS]",
        "links": [],
        "cross_references": [
          {
            "type": "name_match",
            "text": "propane",
            "confidence": 1.0,
            "uuid": "563a611b-46ea-4bdc-b77b-17d8f7646283",
            "name": "Propane",
            "url": "https://haz-map.com/Agents/607",
            "category": "agents"
          }
        ]
      },
      "category": {
        "original_name": "Category",
        "value": "Halogenated Ethers",
        "links": [],
        "cross_references": []
      },
      "description": {
        "original_name": "Description",
        "value": "Clear colorless liquid with a mild ethereal odor; [3M MSDS]",
        "links": [],
        "cross_references": []
      },
      "sourcesuses": {
        "original_name": "Sources/Uses",
        "value": "Used as a cleaning solvent; [3M MSDS]",
        "links": [],
        "cross_references": []
      },
      "comments": {
        "original_name": "Comments",
        "value": "Perfluorobutyl methyl ether (Mixed Isomers), also known as Hydrofluoroether-7100 (HFE-7100), is a mixture of approximately 40% methyl nonafluorobutyl ether (CAS# 163702-07-6) and 60% methyl nonafluoroisobutyl ether (CAS# 163702-08-7); Causes eye irritation; [OSHA] A mixture of 20-80% methyl nonafluoroisobutyl ether (CAS# 163702-08-7) and methyl nonafluorobutyl ether (CAS# 163702-07-6); Not expected to cause significant skin or eye irritation; [3M MSDS]",
        "links": [],
        "cross_references": [
          {
            "type": "name_match",
            "text": "ethyl ether",
            "confidence": 1.0,
            "uuid": "c95edddc-9ad3-44f8-bafa-78e0bd19db3a",
            "name": "Ethyl ether",
            "url": "https://haz-map.com/Agents/455",
            "category": "agents"
          },
          {
            "type": "name_match",
            "text": "methyl nonafluorobutyl ether",
            "confidence": 1.0,
            "uuid": "af5a4b6e-d8e3-4515-8d28-2dd1f9511952",
            "name": "Methyl nonafluorobutyl ether",
            "url": "https://haz-map.com/Agents/15528",
            "category": "agents"
          },
          {
            "type": "name_match",
            "text": "methyl nonafluoroisobutyl ether",
            "confidence": 1.0,
            "uuid": "358d766d-2980-4c58-b74e-89181aed46a3",
            "name": "Methyl nonafluoroisobutyl ether",
            "url": "https://haz-map.com/Agents/15529",
            "category": "agents"
          }
        ]
      },
      "biomedical_references": {
        "original_name": "Biomedical References",
        "value": "Search PubMed",
        "links": [
          {
            "text": "Search PubMed",
            "url": "https://www.ncbi.nlm.nih.gov/pubmed?term=Methyl+nonafluoroisobutyl+ether%20AND%20human%5Bmh%5D%20AND%20%28Occupational%20Diseases%20%5Bmh%5D%20OR%20Occupational%20Exposure%20%5Bmh%5D%29%20%20AND%20%28tox%5Bsb%5D%29&cmd=search"
          }
        ],
        "cross_references": []
      }
    },
    "exposure_assessment": {
      "vapor_pressure": {
        "original_name": "Vapor Pressure",
        "value": "202 mm Hg",
        "links": [],
        "cross_references": []
      },
      "weel": {
        "original_name": "WEEL",
        "value": "750 ppm",
        "links": [],
        "cross_references": []
      }
    },
    "adverse_effects": {
      "neurotoxin": {
        "original_name": "Neurotoxin",
        "value": "Acute solvent syndrome",
        "links": [],
        "cross_references": []
      }
    },
    "diseases_processes_and_activities_linked_to_this_agent": {
      "diseases": {
        "original_name": "Diseases",
        "value": "Occupational diseases associated with exposure to this agent: Solvents, acute toxic effect",
        "links": [
          {
            "text": "Solvents, acute toxic effect",
            "url": "https://haz-map.com/Diseases/326"
          }
        ],
        "cross_references": [
          {
            "type": "url_match",
            "text": "Solvents, acute toxic effect",
            "url": "https://haz-map.com/Diseases/326",
            "confidence": 1.0,
            "uuid": "581e90e3-9d0c-45f0-aa6c-3468c28da129",
            "name": "Solvents, acute toxic effect",
            "category": "diseases"
          }
        ]
      },
      "processes": {
        "original_name": "Processes",
        "value": "Industrial Processes with risk of exposure: Metal Degreasing",
        "links": [
          {
            "text": "Metal Degreasing",
            "url": "https://haz-map.com/Processes/9"
          }
        ],
        "cross_references": [
          {
            "type": "url_match",
            "text": "Metal Degreasing",
            "url": "https://haz-map.com/Processes/9",
            "confidence": 1.0,
            "uuid": "7f7d1988-b456-403f-a356-245ce5458f96",
            "name": "Metal Degreasing",
            "category": "processes"
          }
        ]
      }
    }
  },
  "cross_references": [
    {
      "type": "url_match",
      "text": "Solvents, acute toxic effect",
      "url": "https://haz-map.com/Diseases/326",
      "confidence": 1.0,
      "uuid": "581e90e3-9d0c-45f0-aa6c-3468c28da129",
      "name": "Solvents, acute toxic effect",
      "category": "diseases"
    },
    {
      "type": "url_match",
      "text": "Metal Degreasing",
      "url": "https://haz-map.com/Processes/9",
      "confidence": 1.0,
      "uuid": "7f7d1988-b456-403f-a356-245ce5458f96",
      "name": "Metal Degreasing",
      "category": "processes"
    },
    {
      "type": "name_match",
      "text": "ethyl ether",
      "confidence": 1.0,
      "uuid": "c95edddc-9ad3-44f8-bafa-78e0bd19db3a",
      "name": "Ethyl ether",
      "url": "https://haz-map.com/Agents/455",
      "category": "agents"
    },
    {
      "type": "name_match",
      "text": "propane",
      "confidence": 1.0,
      "uuid": "563a611b-46ea-4bdc-b77b-17d8f7646283",
      "name": "Propane",
      "url": "https://haz-map.com/Agents/607",
      "category": "agents"
    },
    {
      "type": "name_match",
      "text": "methyl nonafluorobutyl ether",
      "confidence": 1.0,
      "uuid": "af5a4b6e-d8e3-4515-8d28-2dd1f9511952",
      "name": "Methyl nonafluorobutyl ether",
      "url": "https://haz-map.com/Agents/15528",
      "category": "agents"
    },
    {
      "type": "name_match",
      "text": "methyl nonafluoroisobutyl ether",
      "confidence": 1.0,
      "uuid": "358d766d-2980-4c58-b74e-89181aed46a3",
      "name": "Methyl nonafluoroisobutyl ether",
      "url": "https://haz-map.com/Agents/15529",
      "category": "agents"
    }
  ],
  "all_links": [
    {
      "text": "Search PubMed",
      "url": "https://www.ncbi.nlm.nih.gov/pubmed?term=Methyl+nonafluoroisobutyl+ether%20AND%20human%5Bmh%5D%20AND%20%28Occupational%20Diseases%20%5Bmh%5D%20OR%20Occupational%20Exposure%20%5Bmh%5D%29%20%20AND%20%28tox%5Bsb%5D%29&cmd=search"
    },
    {
      "text": "Solvents, acute toxic effect",
      "url": "https://haz-map.com/Diseases/326"
    },
    {
      "text": "Metal Degreasing",
      "url": "https://haz-map.com/Processes/9"
    }
  ]
}