{
  "metadata": {
    "scraped_from": "https://haz-map.com/Agents/18767",
    "entity_name": "Octamethyltrisiloxane",
    "category": "agents",
    "uuid": "36653e63-b39d-46de-9306-0146ba30c90c",
    "scraped_at": "2025-07-23T21:57:27.139971"
  },
  "parsed_at": "2025-07-24T01:02:13.080646",
  "title": "Octamethyltrisiloxane",
  "sections": {
    "general": {
      "agent_name": {
        "original_name": "Agent Name",
        "value": "Octamethyltrisiloxane",
        "links": [],
        "cross_references": [
          {
            "type": "name_match",
            "text": "octamethyltrisiloxane",
            "confidence": 1.0,
            "uuid": "36653e63-b39d-46de-9306-0146ba30c90c",
            "name": "Octamethyltrisiloxane",
            "url": "https://haz-map.com/Agents/18767",
            "category": "agents"
          }
        ]
      },
      "cas_number": {
        "original_name": "CAS Number",
        "value": "107-51-7",
        "links": [],
        "cross_references": []
      },
      "formula": {
        "original_name": "Formula",
        "value": "C8-H24-O2-Si3",
        "links": [],
        "cross_references": []
      },
      "major_category": {
        "original_name": "Major Category",
        "value": "Metals",
        "links": [],
        "cross_references": []
      },
      "synonyms": {
        "original_name": "Synonyms",
        "value": "Trisiloxane, 1,1,1,3,3,5,5,5-octamethyl-; Trisiloxane, octamethyl-; [ChemIDplus] 1,1,1,3,3,5,5,5-Octamethyltrisiloxane; [Merck Index] MDM; Dimethylbis(trimethylsiloxy)silane; Pentamethyl(trimethylsiloxy)disiloxane; Pentamethyl(trimethylsilyloxy)disiloxane; L3; Trisiloxan; [Government of Canada - Chemicals Management Plan] UN1993",
        "links": [],
        "cross_references": [
          {
            "type": "name_match",
            "text": "mica",
            "confidence": 1.0,
            "uuid": "433f26f1-c399-4596-b179-ce3843cfd465",
            "name": "Mica",
            "url": "https://haz-map.com/Agents/621",
            "category": "agents"
          },
          {
            "type": "name_match",
            "text": "octamethyltrisiloxane",
            "confidence": 1.0,
            "uuid": "36653e63-b39d-46de-9306-0146ba30c90c",
            "name": "Octamethyltrisiloxane",
            "url": "https://haz-map.com/Agents/18767",
            "category": "agents"
          }
        ]
      },
      "category": {
        "original_name": "Category",
        "value": "Metalloid Compounds (Silicon)",
        "links": [],
        "cross_references": [
          {
            "type": "name_match",
            "text": "silicon",
            "confidence": 1.0,
            "uuid": "443f4405-7a1f-47db-bf43-809557f77483",
            "name": "Silicon",
            "url": "https://haz-map.com/Agents/623",
            "category": "agents"
          }
        ]
      },
      "description": {
        "original_name": "Description",
        "value": "Liquid; [Merck Index] Colorless odorless liquid; [Acros Organics MSDS]",
        "links": [],
        "cross_references": []
      },
      "sourcesuses": {
        "original_name": "Sources/Uses",
        "value": "Used as a base for extreme temperature silicone oils/fluids and as a foam suppressant in petroleum lubricating oils; [Merck Index] Used mainly to make polydimethylsiloxane (PDMS) polymers, oligomers, and mixtures; Also used to make basic chemicals, paints, coatings, adhesives, soaps, cleaning compounds, toiletries, plastics, semiconductors, and other electronic components, and in building construction, lubricants, diluents, solvents, and cosmetics; [Government of Canada - Chemicals Management Plan]",
        "links": [],
        "cross_references": [
          {
            "type": "name_match",
            "text": "mica",
            "confidence": 1.0,
            "uuid": "433f26f1-c399-4596-b179-ce3843cfd465",
            "name": "Mica",
            "url": "https://haz-map.com/Agents/621",
            "category": "agents"
          },
          {
            "type": "name_match",
            "text": "silicon",
            "confidence": 1.0,
            "uuid": "443f4405-7a1f-47db-bf43-809557f77483",
            "name": "Silicon",
            "url": "https://haz-map.com/Agents/623",
            "category": "agents"
          },
          {
            "type": "name_match",
            "text": "oleum",
            "confidence": 1.0,
            "uuid": "12af84ee-bcf0-416d-9220-7c4c6dc330f1",
            "name": "Oleum",
            "url": "https://haz-map.com/Agents/2227",
            "category": "agents"
          },
          {
            "type": "name_match",
            "text": "polydimethylsiloxane",
            "confidence": 1.0,
            "uuid": "2b82ea0e-aab1-48d9-9b36-26941a1c0909",
            "name": "Polydimethylsiloxane",
            "url": "https://haz-map.com/Agents/6750",
            "category": "agents"
          }
        ]
      },
      "comments": {
        "original_name": "Comments",
        "value": "Causes histopathological liver changes at 1,000 mg/kg/day in 28-day oral study of rats; [EPA - TSCATS] No evidence of skin sensitization in human patch test studies; [ToxPlanet: Government of Canada - Chemicals Management Plan] May cause temporary redness and discomfort on eye contact; May cause CNS depression; [Acros Organics MSDS] See \"Tetrakis(trimethylsiloxy)silane.\" See \"Dimethoxydimethylsilane.\"",
        "links": [],
        "cross_references": [
          {
            "type": "name_match",
            "text": "mica",
            "confidence": 1.0,
            "uuid": "433f26f1-c399-4596-b179-ce3843cfd465",
            "name": "Mica",
            "url": "https://haz-map.com/Agents/621",
            "category": "agents"
          },
          {
            "type": "name_match",
            "text": "methylsilane",
            "confidence": 1.0,
            "uuid": "477dc5db-fed0-4dc8-8ece-f7392790a3b0",
            "name": "Methylsilane",
            "url": "https://haz-map.com/Agents/8380",
            "category": "agents"
          },
          {
            "type": "name_match",
            "text": "tetrakis(trimethylsiloxy)silane",
            "confidence": 1.0,
            "uuid": "739053ca-1722-4391-a91a-f041031b19e8",
            "name": "Tetrakis(trimethylsiloxy)silane",
            "url": "https://haz-map.com/Agents/9817",
            "category": "agents"
          },
          {
            "type": "name_match",
            "text": "dimethylsilane",
            "confidence": 1.0,
            "uuid": "74897abd-ecfb-41f7-a881-8b3b57e397cf",
            "name": "Dimethylsilane",
            "url": "https://haz-map.com/Agents/13216",
            "category": "agents"
          },
          {
            "type": "name_match",
            "text": "dimethoxydimethylsilane",
            "confidence": 1.0,
            "uuid": "a22d071a-ff07-4849-a827-8618500d8aba",
            "name": "Dimethoxydimethylsilane",
            "url": "https://haz-map.com/Agents/17264",
            "category": "agents"
          },
          {
            "type": "name_match",
            "text": "tempo",
            "confidence": 1.0,
            "uuid": "55930a45-7786-4f0a-a7e8-bd4064508b68",
            "name": "TEMPO",
            "url": "https://haz-map.com/Agents/17879",
            "category": "agents"
          }
        ]
      },
      "biomedical_references": {
        "original_name": "Biomedical References",
        "value": "Search PubMed",
        "links": [
          {
            "text": "Search PubMed",
            "url": "https://www.ncbi.nlm.nih.gov/pubmed?term=Octamethyltrisiloxane%20AND%20human%5Bmh%5D%20AND%20%28Occupational%20Diseases%20%5Bmh%5D%20OR%20Occupational%20Exposure%20%5Bmh%5D%29%20%20AND%20%28tox%5Bsb%5D%29&cmd=search"
          }
        ],
        "cross_references": []
      }
    },
    "exposure_assessment": {
      "vapor_pressure": {
        "original_name": "Vapor Pressure",
        "value": "3.34 mm Hg",
        "links": [],
        "cross_references": []
      },
      "explanatory_notes": {
        "original_name": "Explanatory Notes",
        "value": "The Guide in the Emergency Response Guidebook is for \"Flammable liquid, n.o.s.\"",
        "links": [],
        "cross_references": []
      }
    },
    "adverse_effects": {
      "hepatotoxin": {
        "original_name": "Hepatotoxin",
        "value": "Hepatoxic (a) from occupational exposure (secondary effect) or (b) in animal studies or in humans after ingestion",
        "links": [],
        "cross_references": []
      }
    },
    "diseases_processes_and_activities_linked_to_this_agent": {
      "processes": {
        "original_name": "Processes",
        "value": "Industrial Processes with risk of exposure: Semiconductor Manufacturing",
        "links": [
          {
            "text": "Semiconductor Manufacturing",
            "url": "https://haz-map.com/Processes/97"
          }
        ],
        "cross_references": [
          {
            "type": "url_match",
            "text": "Semiconductor Manufacturing",
            "url": "https://haz-map.com/Processes/97",
            "confidence": 1.0,
            "uuid": "a1adedb7-a724-4539-9aff-c43b42706b89",
            "name": "Semiconductor Manufacturing",
            "category": "processes"
          }
        ]
      }
    }
  },
  "cross_references": [
    {
      "type": "url_match",
      "text": "Semiconductor Manufacturing",
      "url": "https://haz-map.com/Processes/97",
      "confidence": 1.0,
      "uuid": "a1adedb7-a724-4539-9aff-c43b42706b89",
      "name": "Semiconductor Manufacturing",
      "category": "processes"
    },
    {
      "type": "name_match",
      "text": "mica",
      "confidence": 1.0,
      "uuid": "433f26f1-c399-4596-b179-ce3843cfd465",
      "name": "Mica",
      "url": "https://haz-map.com/Agents/621",
      "category": "agents"
    },
    {
      "type": "name_match",
      "text": "silicon",
      "confidence": 1.0,
      "uuid": "443f4405-7a1f-47db-bf43-809557f77483",
      "name": "Silicon",
      "url": "https://haz-map.com/Agents/623",
      "category": "agents"
    },
    {
      "type": "name_match",
      "text": "oleum",
      "confidence": 1.0,
      "uuid": "12af84ee-bcf0-416d-9220-7c4c6dc330f1",
      "name": "Oleum",
      "url": "https://haz-map.com/Agents/2227",
      "category": "agents"
    },
    {
      "type": "name_match",
      "text": "polydimethylsiloxane",
      "confidence": 1.0,
      "uuid": "2b82ea0e-aab1-48d9-9b36-26941a1c0909",
      "name": "Polydimethylsiloxane",
      "url": "https://haz-map.com/Agents/6750",
      "category": "agents"
    },
    {
      "type": "name_match",
      "text": "methylsilane",
      "confidence": 1.0,
      "uuid": "477dc5db-fed0-4dc8-8ece-f7392790a3b0",
      "name": "Methylsilane",
      "url": "https://haz-map.com/Agents/8380",
      "category": "agents"
    },
    {
      "type": "name_match",
      "text": "tetrakis(trimethylsiloxy)silane",
      "confidence": 1.0,
      "uuid": "739053ca-1722-4391-a91a-f041031b19e8",
      "name": "Tetrakis(trimethylsiloxy)silane",
      "url": "https://haz-map.com/Agents/9817",
      "category": "agents"
    },
    {
      "type": "name_match",
      "text": "dimethylsilane",
      "confidence": 1.0,
      "uuid": "74897abd-ecfb-41f7-a881-8b3b57e397cf",
      "name": "Dimethylsilane",
      "url": "https://haz-map.com/Agents/13216",
      "category": "agents"
    },
    {
      "type": "name_match",
      "text": "dimethoxydimethylsilane",
      "confidence": 1.0,
      "uuid": "a22d071a-ff07-4849-a827-8618500d8aba",
      "name": "Dimethoxydimethylsilane",
      "url": "https://haz-map.com/Agents/17264",
      "category": "agents"
    },
    {
      "type": "name_match",
      "text": "tempo",
      "confidence": 1.0,
      "uuid": "55930a45-7786-4f0a-a7e8-bd4064508b68",
      "name": "TEMPO",
      "url": "https://haz-map.com/Agents/17879",
      "category": "agents"
    },
    {
      "type": "name_match",
      "text": "octamethyltrisiloxane",
      "confidence": 1.0,
      "uuid": "36653e63-b39d-46de-9306-0146ba30c90c",
      "name": "Octamethyltrisiloxane",
      "url": "https://haz-map.com/Agents/18767",
      "category": "agents"
    }
  ],
  "all_links": [
    {
      "text": "Search PubMed",
      "url": "https://www.ncbi.nlm.nih.gov/pubmed?term=Octamethyltrisiloxane%20AND%20human%5Bmh%5D%20AND%20%28Occupational%20Diseases%20%5Bmh%5D%20OR%20Occupational%20Exposure%20%5Bmh%5D%29%20%20AND%20%28tox%5Bsb%5D%29&cmd=search"
    },
    {
      "text": "Semiconductor Manufacturing",
      "url": "https://haz-map.com/Processes/97"
    }
  ]
}