{
  "metadata": {
    "scraped_from": "https://haz-map.com/Agents/7678",
    "entity_name": "Undecene",
    "category": "agents",
    "uuid": "373172c6-1f68-444e-8cad-2bc3323cb085",
    "scraped_at": "2025-07-23T20:15:41.216180"
  },
  "parsed_at": "2025-07-24T01:09:40.184028",
  "title": "Undecene",
  "sections": {
    "general": {
      "agent_name": {
        "original_name": "Agent Name",
        "value": "Undecene",
        "links": [],
        "cross_references": [
          {
            "type": "name_match",
            "text": "decene",
            "confidence": 1.0,
            "uuid": "31094271-051d-41ab-9d14-1e1d404f5a06",
            "name": "Decene",
            "url": "https://haz-map.com/Agents/4666",
            "category": "agents"
          },
          {
            "type": "name_match",
            "text": "undecene",
            "confidence": 1.0,
            "uuid": "373172c6-1f68-444e-8cad-2bc3323cb085",
            "name": "Undecene",
            "url": "https://haz-map.com/Agents/7678",
            "category": "agents"
          }
        ]
      },
      "cas_number": {
        "original_name": "CAS Number",
        "value": "28761-27-5",
        "links": [],
        "cross_references": []
      },
      "formula": {
        "original_name": "Formula",
        "value": "C11-H22",
        "links": [],
        "cross_references": []
      },
      "major_category": {
        "original_name": "Major Category",
        "value": "Other Classes",
        "links": [],
        "cross_references": []
      },
      "category": {
        "original_name": "Category",
        "value": "Aliphatics, Unsaturated",
        "links": [],
        "cross_references": []
      },
      "sourcesuses": {
        "original_name": "Sources/Uses",
        "value": "Used in polymer, surfactant, and detergent industries; Not commercially isolated from linear alpha-olefin or internal olefin mixtures; [HSDB]",
        "links": [],
        "cross_references": []
      },
      "comments": {
        "original_name": "Comments",
        "value": "Animals exposed to higher olefins are drowsy/lethargic during high-dose inhalation studies; [EPA HPV: Robust Summaries and Test Plans: Higher Olefins]",
        "links": [],
        "cross_references": []
      },
      "biomedical_references": {
        "original_name": "Biomedical References",
        "value": "Search PubMed",
        "links": [
          {
            "text": "Search PubMed",
            "url": "https://www.ncbi.nlm.nih.gov/pubmed?term=Undecene%20AND%20human%5Bmh%5D%20AND%20%28Occupational%20Diseases%20%5Bmh%5D%20OR%20Occupational%20Exposure%20%5Bmh%5D%29%20%20AND%20%28tox%5Bsb%5D%29&cmd=search"
          }
        ],
        "cross_references": []
      }
    },
    "exposure_assessment": {
      "vapor_pressure": {
        "original_name": "Vapor Pressure",
        "value": "5.24 mm Hg",
        "links": [],
        "cross_references": []
      },
      "explanatory_notes": {
        "original_name": "Explanatory Notes",
        "value": "VP from ChemIDplus;",
        "links": [],
        "cross_references": []
      }
    },
    "adverse_effects": {
      "neurotoxin": {
        "original_name": "Neurotoxin",
        "value": "Acute solvent syndrome",
        "links": [],
        "cross_references": []
      }
    },
    "diseases_processes_and_activities_linked_to_this_agent": {
      "diseases": {
        "original_name": "Diseases",
        "value": "Occupational diseases associated with exposure to this agent: Solvents, acute toxic effect",
        "links": [
          {
            "text": "Solvents, acute toxic effect",
            "url": "https://haz-map.com/Diseases/326"
          }
        ],
        "cross_references": [
          {
            "type": "url_match",
            "text": "Solvents, acute toxic effect",
            "url": "https://haz-map.com/Diseases/326",
            "confidence": 1.0,
            "uuid": "581e90e3-9d0c-45f0-aa6c-3468c28da129",
            "name": "Solvents, acute toxic effect",
            "category": "diseases"
          }
        ]
      }
    }
  },
  "cross_references": [
    {
      "type": "url_match",
      "text": "Solvents, acute toxic effect",
      "url": "https://haz-map.com/Diseases/326",
      "confidence": 1.0,
      "uuid": "581e90e3-9d0c-45f0-aa6c-3468c28da129",
      "name": "Solvents, acute toxic effect",
      "category": "diseases"
    },
    {
      "type": "name_match",
      "text": "decene",
      "confidence": 1.0,
      "uuid": "31094271-051d-41ab-9d14-1e1d404f5a06",
      "name": "Decene",
      "url": "https://haz-map.com/Agents/4666",
      "category": "agents"
    },
    {
      "type": "name_match",
      "text": "undecene",
      "confidence": 1.0,
      "uuid": "373172c6-1f68-444e-8cad-2bc3323cb085",
      "name": "Undecene",
      "url": "https://haz-map.com/Agents/7678",
      "category": "agents"
    }
  ],
  "all_links": [
    {
      "text": "Search PubMed",
      "url": "https://www.ncbi.nlm.nih.gov/pubmed?term=Undecene%20AND%20human%5Bmh%5D%20AND%20%28Occupational%20Diseases%20%5Bmh%5D%20OR%20Occupational%20Exposure%20%5Bmh%5D%29%20%20AND%20%28tox%5Bsb%5D%29&cmd=search"
    },
    {
      "text": "Solvents, acute toxic effect",
      "url": "https://haz-map.com/Diseases/326"
    }
  ]
}