{
  "metadata": {
    "scraped_from": "https://haz-map.com/Agents/20294",
    "entity_name": "Benzilic acid",
    "category": "agents",
    "uuid": "3757aa8c-8465-4c0b-a163-305432412096",
    "scraped_at": "2025-07-23T22:22:36.260748"
  },
  "parsed_at": "2025-07-24T00:59:43.484594",
  "title": "Benzilic acid",
  "sections": {
    "general": {
      "agent_name": {
        "original_name": "Agent Name",
        "value": "Benzilic acid",
        "links": [],
        "cross_references": [
          {
            "type": "name_match",
            "text": "benzil",
            "confidence": 1.0,
            "uuid": "09aecf89-f193-4e35-b1cb-48004196e00d",
            "name": "Benzil",
            "url": "https://haz-map.com/Agents/12189",
            "category": "agents"
          },
          {
            "type": "name_match",
            "text": "benzilic acid",
            "confidence": 1.0,
            "uuid": "3757aa8c-8465-4c0b-a163-305432412096",
            "name": "Benzilic acid",
            "url": "https://haz-map.com/Agents/20294",
            "category": "agents"
          }
        ]
      },
      "cas_number": {
        "original_name": "CAS Number",
        "value": "76-93-7",
        "links": [],
        "cross_references": []
      },
      "formula": {
        "original_name": "Formula",
        "value": "C14-H12-O3",
        "links": [],
        "cross_references": []
      },
      "major_category": {
        "original_name": "Major Category",
        "value": "Other Classes",
        "links": [],
        "cross_references": []
      },
      "synonyms": {
        "original_name": "Synonyms",
        "value": "Acide diphenylhydroxyacetique [French]; alpha-Hydroxy-2,2-diphenylacetic acid; alpha-Hydroxy-alpha-phenylbenzeneacetic acid; Benzylic acid; Diphenylglycolic acid; Diphenylhydroxyacetic acid; Glycolic acid, diphenyl-; Hydroxydiphenylacetic acid; Mandelic acid, alpha-phenyl-; Benzeneacetic acid, alpha-hydroxy-alpha-phenyl-; [ChemIDplus] alpha-Hydroxy-alpha-phenyl benzeneacetic acid; alpha-alpha- Diphenylglycolic acid; Hydroxydiphenyl acetic acid; 2,2-Diphenyl-2-hydroxyacetic acid; [HSDB]",
        "links": [],
        "cross_references": [
          {
            "type": "name_match",
            "text": "benzene",
            "confidence": 1.0,
            "uuid": "b05124de-5f34-4c14-8f04-ccb20c3780d9",
            "name": "Benzene",
            "url": "https://haz-map.com/Agents/5",
            "category": "agents"
          },
          {
            "type": "name_match",
            "text": "acetic acid",
            "confidence": 1.0,
            "uuid": "0905c6e4-df84-4895-a92d-658819239bbd",
            "name": "Acetic acid",
            "url": "https://haz-map.com/Agents/207",
            "category": "agents"
          },
          {
            "type": "name_match",
            "text": "glycolic acid",
            "confidence": 1.0,
            "uuid": "1584a0fe-5d54-4768-85ea-815563bd0798",
            "name": "Glycolic acid",
            "url": "https://haz-map.com/Agents/1410",
            "category": "agents"
          },
          {
            "type": "name_match",
            "text": "phenylacetic acid",
            "confidence": 1.0,
            "uuid": "9fd56a07-b965-4725-89f1-49d42ccba118",
            "name": "Phenylacetic acid",
            "url": "https://haz-map.com/Agents/6638",
            "category": "agents"
          },
          {
            "type": "name_match",
            "text": "mandelic acid",
            "confidence": 1.0,
            "uuid": "6a609068-a8fe-43c9-9c06-75ec9bd40540",
            "name": "Mandelic acid",
            "url": "https://haz-map.com/Agents/15358",
            "category": "agents"
          },
          {
            "type": "name_match",
            "text": "diphenylacetic acid",
            "confidence": 1.0,
            "uuid": "7325a6a5-617b-4a35-8a39-6119fcc92e79",
            "name": "Diphenylacetic acid",
            "url": "https://haz-map.com/Agents/20639",
            "category": "agents"
          }
        ]
      },
      "category": {
        "original_name": "Category",
        "value": "Organic Acids",
        "links": [],
        "cross_references": []
      },
      "description": {
        "original_name": "Description",
        "value": "Solid; [Merck Index] White to tan solid; [HSDB] White powder; [Sigma-Aldrich MSDS]",
        "links": [],
        "cross_references": []
      },
      "sourcesuses": {
        "original_name": "Sources/Uses",
        "value": "Used to make 3-quinuclidinyl benzilate (chemical warfare agent) and clidinium bromide (anticholinergic drug); [HSDB]",
        "links": [],
        "cross_references": [
          {
            "type": "name_match",
            "text": "mica",
            "confidence": 1.0,
            "uuid": "433f26f1-c399-4596-b179-ce3843cfd465",
            "name": "Mica",
            "url": "https://haz-map.com/Agents/621",
            "category": "agents"
          },
          {
            "type": "name_match",
            "text": "quinuclidinyl benzilate",
            "confidence": 1.0,
            "uuid": "1cacd16a-c164-42af-add8-e07b8686f431",
            "name": "Quinuclidinyl benzilate",
            "url": "https://haz-map.com/Agents/2061",
            "category": "agents"
          },
          {
            "type": "name_match",
            "text": "benzil",
            "confidence": 1.0,
            "uuid": "09aecf89-f193-4e35-b1cb-48004196e00d",
            "name": "Benzil",
            "url": "https://haz-map.com/Agents/12189",
            "category": "agents"
          },
          {
            "type": "name_match",
            "text": "choline",
            "confidence": 1.0,
            "uuid": "a21a71e9-9d67-4563-9da2-98c4dcb1b766",
            "name": "Choline",
            "url": "https://haz-map.com/Agents/12978",
            "category": "agents"
          }
        ]
      },
      "comments": {
        "original_name": "Comments",
        "value": "May cause irritation; Harmful by ingestion; [Sigma-Aldrich MSDS]",
        "links": [],
        "cross_references": []
      },
      "biomedical_references": {
        "original_name": "Biomedical References",
        "value": "Search PubMed",
        "links": [
          {
            "text": "Search PubMed",
            "url": "https://www.ncbi.nlm.nih.gov/pubmed?term=Benzilic+acid%20AND%20human%5Bmh%5D%20AND%20%28Occupational%20Diseases%20%5Bmh%5D%20OR%20Occupational%20Exposure%20%5Bmh%5D%29%20%20AND%20%28tox%5Bsb%5D%29&cmd=search"
          }
        ],
        "cross_references": []
      }
    },
    "exposure_assessment": {
      "vapor_pressure": {
        "original_name": "Vapor Pressure",
        "value": "2.32E-08 mm Hg",
        "links": [],
        "cross_references": []
      }
    },
    "diseases_processes_and_activities_linked_to_this_agent": {
      "other_information": {
        "original_name": "Other Information",
        "value": "No other related information on this agent was found.",
        "links": [],
        "cross_references": []
      }
    }
  },
  "cross_references": [
    {
      "type": "name_match",
      "text": "benzene",
      "confidence": 1.0,
      "uuid": "b05124de-5f34-4c14-8f04-ccb20c3780d9",
      "name": "Benzene",
      "url": "https://haz-map.com/Agents/5",
      "category": "agents"
    },
    {
      "type": "name_match",
      "text": "acetic acid",
      "confidence": 1.0,
      "uuid": "0905c6e4-df84-4895-a92d-658819239bbd",
      "name": "Acetic acid",
      "url": "https://haz-map.com/Agents/207",
      "category": "agents"
    },
    {
      "type": "name_match",
      "text": "mica",
      "confidence": 1.0,
      "uuid": "433f26f1-c399-4596-b179-ce3843cfd465",
      "name": "Mica",
      "url": "https://haz-map.com/Agents/621",
      "category": "agents"
    },
    {
      "type": "name_match",
      "text": "glycolic acid",
      "confidence": 1.0,
      "uuid": "1584a0fe-5d54-4768-85ea-815563bd0798",
      "name": "Glycolic acid",
      "url": "https://haz-map.com/Agents/1410",
      "category": "agents"
    },
    {
      "type": "name_match",
      "text": "quinuclidinyl benzilate",
      "confidence": 1.0,
      "uuid": "1cacd16a-c164-42af-add8-e07b8686f431",
      "name": "Quinuclidinyl benzilate",
      "url": "https://haz-map.com/Agents/2061",
      "category": "agents"
    },
    {
      "type": "name_match",
      "text": "phenylacetic acid",
      "confidence": 1.0,
      "uuid": "9fd56a07-b965-4725-89f1-49d42ccba118",
      "name": "Phenylacetic acid",
      "url": "https://haz-map.com/Agents/6638",
      "category": "agents"
    },
    {
      "type": "name_match",
      "text": "benzil",
      "confidence": 1.0,
      "uuid": "09aecf89-f193-4e35-b1cb-48004196e00d",
      "name": "Benzil",
      "url": "https://haz-map.com/Agents/12189",
      "category": "agents"
    },
    {
      "type": "name_match",
      "text": "choline",
      "confidence": 1.0,
      "uuid": "a21a71e9-9d67-4563-9da2-98c4dcb1b766",
      "name": "Choline",
      "url": "https://haz-map.com/Agents/12978",
      "category": "agents"
    },
    {
      "type": "name_match",
      "text": "mandelic acid",
      "confidence": 1.0,
      "uuid": "6a609068-a8fe-43c9-9c06-75ec9bd40540",
      "name": "Mandelic acid",
      "url": "https://haz-map.com/Agents/15358",
      "category": "agents"
    },
    {
      "type": "name_match",
      "text": "benzilic acid",
      "confidence": 1.0,
      "uuid": "3757aa8c-8465-4c0b-a163-305432412096",
      "name": "Benzilic acid",
      "url": "https://haz-map.com/Agents/20294",
      "category": "agents"
    },
    {
      "type": "name_match",
      "text": "diphenylacetic acid",
      "confidence": 1.0,
      "uuid": "7325a6a5-617b-4a35-8a39-6119fcc92e79",
      "name": "Diphenylacetic acid",
      "url": "https://haz-map.com/Agents/20639",
      "category": "agents"
    }
  ],
  "all_links": [
    {
      "text": "Search PubMed",
      "url": "https://www.ncbi.nlm.nih.gov/pubmed?term=Benzilic+acid%20AND%20human%5Bmh%5D%20AND%20%28Occupational%20Diseases%20%5Bmh%5D%20OR%20Occupational%20Exposure%20%5Bmh%5D%29%20%20AND%20%28tox%5Bsb%5D%29&cmd=search"
    }
  ]
}