{
  "metadata": {
    "scraped_from": "https://haz-map.com/Agents/17962",
    "entity_name": "Tetratetracontane",
    "category": "agents",
    "uuid": "3761a89f-1ff2-431c-972e-8ed9aa819760",
    "scraped_at": "2025-07-23T21:51:23.784620"
  },
  "parsed_at": "2025-07-24T01:13:51.716818",
  "title": "Tetratetracontane",
  "sections": {
    "general": {
      "agent_name": {
        "original_name": "Agent Name",
        "value": "Tetratetracontane",
        "links": [],
        "cross_references": [
          {
            "type": "name_match",
            "text": "tetracontane",
            "confidence": 1.0,
            "uuid": "c3541f30-07de-4d5e-86c2-7602de96d3cb",
            "name": "Tetracontane",
            "url": "https://haz-map.com/Agents/17392",
            "category": "agents"
          },
          {
            "type": "name_match",
            "text": "tetratetracontane",
            "confidence": 1.0,
            "uuid": "3761a89f-1ff2-431c-972e-8ed9aa819760",
            "name": "Tetratetracontane",
            "url": "https://haz-map.com/Agents/17962",
            "category": "agents"
          }
        ]
      },
      "cas_number": {
        "original_name": "CAS Number",
        "value": "7098-22-8",
        "links": [],
        "cross_references": []
      },
      "formula": {
        "original_name": "Formula",
        "value": "C44-H90",
        "links": [],
        "cross_references": []
      },
      "major_category": {
        "original_name": "Major Category",
        "value": "Other Classes",
        "links": [],
        "cross_references": []
      },
      "synonyms": {
        "original_name": "Synonyms",
        "value": "n-Tetratetracontane; [ChemIDplus]",
        "links": [],
        "cross_references": [
          {
            "type": "name_match",
            "text": "tetracontane",
            "confidence": 1.0,
            "uuid": "c3541f30-07de-4d5e-86c2-7602de96d3cb",
            "name": "Tetracontane",
            "url": "https://haz-map.com/Agents/17392",
            "category": "agents"
          },
          {
            "type": "name_match",
            "text": "tetratetracontane",
            "confidence": 1.0,
            "uuid": "3761a89f-1ff2-431c-972e-8ed9aa819760",
            "name": "Tetratetracontane",
            "url": "https://haz-map.com/Agents/17962",
            "category": "agents"
          }
        ]
      },
      "category": {
        "original_name": "Category",
        "value": "Aliphatics, Saturated (>C11)",
        "links": [],
        "cross_references": []
      },
      "description": {
        "original_name": "Description",
        "value": "Light yellow powder; [Sigma-Aldrich MSDS]",
        "links": [],
        "cross_references": [
          {
            "type": "name_match",
            "text": "ht",
            "confidence": 1.0,
            "uuid": "764df367-8d53-4a11-81a2-31ccfe122a8d",
            "name": "HT",
            "url": "https://haz-map.com/Agents/2168",
            "category": "agents"
          }
        ]
      },
      "comments": {
        "original_name": "Comments",
        "value": "May cause irritation; [Sigma-Aldrich MSDS]",
        "links": [],
        "cross_references": []
      },
      "biomedical_references": {
        "original_name": "Biomedical References",
        "value": "Search PubMed",
        "links": [
          {
            "text": "Search PubMed",
            "url": "https://www.ncbi.nlm.nih.gov/pubmed?term=Tetratetracontane%20AND%20human%5Bmh%5D%20AND%20%28Occupational%20Diseases%20%5Bmh%5D%20OR%20Occupational%20Exposure%20%5Bmh%5D%29%20%20AND%20%28tox%5Bsb%5D%29&cmd=search"
          }
        ],
        "cross_references": []
      }
    },
    "exposure_assessment": {
      "vapor_pressure": {
        "original_name": "Vapor Pressure",
        "value": "1.48E-09 mm Hg",
        "links": [],
        "cross_references": []
      }
    },
    "diseases_processes_and_activities_linked_to_this_agent": {
      "other_information": {
        "original_name": "Other Information",
        "value": "No other related information on this agent was found.",
        "links": [],
        "cross_references": []
      }
    }
  },
  "cross_references": [
    {
      "type": "name_match",
      "text": "ht",
      "confidence": 1.0,
      "uuid": "764df367-8d53-4a11-81a2-31ccfe122a8d",
      "name": "HT",
      "url": "https://haz-map.com/Agents/2168",
      "category": "agents"
    },
    {
      "type": "name_match",
      "text": "tetracontane",
      "confidence": 1.0,
      "uuid": "c3541f30-07de-4d5e-86c2-7602de96d3cb",
      "name": "Tetracontane",
      "url": "https://haz-map.com/Agents/17392",
      "category": "agents"
    },
    {
      "type": "name_match",
      "text": "tetratetracontane",
      "confidence": 1.0,
      "uuid": "3761a89f-1ff2-431c-972e-8ed9aa819760",
      "name": "Tetratetracontane",
      "url": "https://haz-map.com/Agents/17962",
      "category": "agents"
    }
  ],
  "all_links": [
    {
      "text": "Search PubMed",
      "url": "https://www.ncbi.nlm.nih.gov/pubmed?term=Tetratetracontane%20AND%20human%5Bmh%5D%20AND%20%28Occupational%20Diseases%20%5Bmh%5D%20OR%20Occupational%20Exposure%20%5Bmh%5D%29%20%20AND%20%28tox%5Bsb%5D%29&cmd=search"
    }
  ]
}