{
  "metadata": {
    "scraped_from": "https://haz-map.com/Agents/1916",
    "entity_name": "Sodium hypophosphite",
    "category": "agents",
    "uuid": "377ca479-8b2f-4776-b1d7-f4a42a9a718e",
    "scraped_at": "2025-07-23T19:06:40.440635"
  },
  "parsed_at": "2025-07-24T01:09:47.397952",
  "title": "Sodium hypophosphite",
  "sections": {
    "general": {
      "agent_name": {
        "original_name": "Agent Name",
        "value": "Sodium hypophosphite",
        "links": [],
        "cross_references": [
          {
            "type": "name_match",
            "text": "sodium",
            "confidence": 1.0,
            "uuid": "1adffc42-a4d8-44d5-81d6-7dbd96ef8a6f",
            "name": "Sodium",
            "url": "https://haz-map.com/Agents/1527",
            "category": "agents"
          },
          {
            "type": "name_match",
            "text": "sodium hypophosphite",
            "confidence": 1.0,
            "uuid": "377ca479-8b2f-4776-b1d7-f4a42a9a718e",
            "name": "Sodium hypophosphite",
            "url": "https://haz-map.com/Agents/1916",
            "category": "agents"
          }
        ]
      },
      "cas_number": {
        "original_name": "CAS Number",
        "value": "7681-53-0",
        "links": [],
        "cross_references": []
      },
      "formula": {
        "original_name": "Formula",
        "value": "H2-O2-P.Na",
        "links": [],
        "cross_references": []
      },
      "major_category": {
        "original_name": "Major Category",
        "value": "Other Classes",
        "links": [],
        "cross_references": []
      },
      "synonyms": {
        "original_name": "Synonyms",
        "value": "Hypophosphorous acid monosodium salt; Monosodium hypophosphite; Natriumhypophosphit [German]; Phosphinic acid monosodium salt; Phosphinic acid, sodium salt; Sodium hydrogen phosphite (NaH2PO2); Sodium hydrophosphite; Sodium hypophosphite; Sodium hypophosphite (NaH2PO2); Sodium phosphinate; Sodium phosphinate (NaH2PO2); [ChemIDplus]",
        "links": [],
        "cross_references": [
          {
            "type": "name_match",
            "text": "hydrogen",
            "confidence": 1.0,
            "uuid": "e2d9645f-5559-4d88-b820-fc4710c154f2",
            "name": "Hydrogen",
            "url": "https://haz-map.com/Agents/1070",
            "category": "agents"
          },
          {
            "type": "name_match",
            "text": "sodium",
            "confidence": 1.0,
            "uuid": "1adffc42-a4d8-44d5-81d6-7dbd96ef8a6f",
            "name": "Sodium",
            "url": "https://haz-map.com/Agents/1527",
            "category": "agents"
          },
          {
            "type": "name_match",
            "text": "sodium hypophosphite",
            "confidence": 1.0,
            "uuid": "377ca479-8b2f-4776-b1d7-f4a42a9a718e",
            "name": "Sodium hypophosphite",
            "url": "https://haz-map.com/Agents/1916",
            "category": "agents"
          },
          {
            "type": "name_match",
            "text": "hypophosphorous acid",
            "confidence": 1.0,
            "uuid": "5c9e2011-28bf-4384-8a0b-f2157b8634fc",
            "name": "Hypophosphorous acid",
            "url": "https://haz-map.com/Agents/8659",
            "category": "agents"
          },
          {
            "type": "name_match",
            "text": "phosphorous acid",
            "confidence": 1.0,
            "uuid": "cd85912c-49fc-45b2-b593-6a900b0ec52e",
            "name": "Phosphorous acid",
            "url": "https://haz-map.com/Agents/8662",
            "category": "agents"
          },
          {
            "type": "fuzzy_match",
            "text": "monosodium salt",
            "matched_name": "Zincon, monosodium salt",
            "confidence": 0.718944099378882,
            "uuid": "1b9c7ff2-2993-44ad-99f4-ba1cdcbdad89",
            "category": "agents",
            "url": "https://haz-map.com/Agents/18326"
          }
        ]
      },
      "category": {
        "original_name": "Category",
        "value": "Phosphite Compounds",
        "links": [],
        "cross_references": []
      },
      "description": {
        "original_name": "Description",
        "value": "White granules or crystals; [HSDB]",
        "links": [],
        "cross_references": []
      },
      "sourcesuses": {
        "original_name": "Sources/Uses",
        "value": "Used in pharmaceutical manufacturing, nickel plating, and as a laboratory reagent; [HSDB]",
        "links": [],
        "cross_references": [
          {
            "type": "name_match",
            "text": "nickel",
            "confidence": 1.0,
            "uuid": "02decb28-803c-4ded-89bf-ccadc14bffb2",
            "name": "Nickel",
            "url": "https://haz-map.com/Agents/50",
            "category": "agents"
          }
        ]
      },
      "comments": {
        "original_name": "Comments",
        "value": "In the GRAS (generally recognized as safe) database of the US Food and Drug Administration; [HSDB]",
        "links": [],
        "cross_references": []
      },
      "biomedical_references": {
        "original_name": "Biomedical References",
        "value": "Search PubMed",
        "links": [
          {
            "text": "Search PubMed",
            "url": "https://www.ncbi.nlm.nih.gov/pubmed?term=Sodium+hypophosphite%20AND%20human%5Bmh%5D%20AND%20%28Occupational%20Diseases%20%5Bmh%5D%20OR%20Occupational%20Exposure%20%5Bmh%5D%29%20%20AND%20%28tox%5Bsb%5D%29&cmd=search"
          }
        ],
        "cross_references": []
      }
    },
    "exposure_assessment": {
      "explanatory_notes": {
        "original_name": "Explanatory Notes",
        "value": "Melting point equals 392 degrees F (decomposes into toxic and explosive phosphine gas); [MSDSonline]",
        "links": [],
        "cross_references": [
          {
            "type": "name_match",
            "text": "phosphine",
            "confidence": 1.0,
            "uuid": "b9783685-a2f4-44ef-8b65-6c1ab72fbfde",
            "name": "Phosphine",
            "url": "https://haz-map.com/Agents/74",
            "category": "agents"
          }
        ]
      },
      "nfpa": {
        "original_name": "NFPA",
        "value": "will not burn",
        "links": [],
        "cross_references": [
          {
            "type": "name_match",
            "text": "burn",
            "confidence": 1.0,
            "uuid": "63665de5-6376-4918-8dbf-4c10c4d63837",
            "name": "burn",
            "url": "https://haz-map.com/Findings/204",
            "category": "findings"
          }
        ]
      }
    },
    "diseases_processes_and_activities_linked_to_this_agent": {
      "processes": {
        "original_name": "Processes",
        "value": "Industrial Processes with risk of exposure: Electroplating",
        "links": [
          {
            "text": "Electroplating",
            "url": "https://haz-map.com/Processes/66"
          }
        ],
        "cross_references": [
          {
            "type": "url_match",
            "text": "Electroplating",
            "url": "https://haz-map.com/Processes/66",
            "confidence": 1.0,
            "uuid": "ae1bd2c1-37de-4b26-82b6-47ee206af837",
            "name": "Electroplating",
            "category": "processes"
          }
        ]
      }
    }
  },
  "cross_references": [
    {
      "type": "url_match",
      "text": "Electroplating",
      "url": "https://haz-map.com/Processes/66",
      "confidence": 1.0,
      "uuid": "ae1bd2c1-37de-4b26-82b6-47ee206af837",
      "name": "Electroplating",
      "category": "processes"
    },
    {
      "type": "name_match",
      "text": "burn",
      "confidence": 1.0,
      "uuid": "63665de5-6376-4918-8dbf-4c10c4d63837",
      "name": "burn",
      "url": "https://haz-map.com/Findings/204",
      "category": "findings"
    },
    {
      "type": "name_match",
      "text": "nickel",
      "confidence": 1.0,
      "uuid": "02decb28-803c-4ded-89bf-ccadc14bffb2",
      "name": "Nickel",
      "url": "https://haz-map.com/Agents/50",
      "category": "agents"
    },
    {
      "type": "name_match",
      "text": "phosphine",
      "confidence": 1.0,
      "uuid": "b9783685-a2f4-44ef-8b65-6c1ab72fbfde",
      "name": "Phosphine",
      "url": "https://haz-map.com/Agents/74",
      "category": "agents"
    },
    {
      "type": "name_match",
      "text": "hydrogen",
      "confidence": 1.0,
      "uuid": "e2d9645f-5559-4d88-b820-fc4710c154f2",
      "name": "Hydrogen",
      "url": "https://haz-map.com/Agents/1070",
      "category": "agents"
    },
    {
      "type": "name_match",
      "text": "sodium",
      "confidence": 1.0,
      "uuid": "1adffc42-a4d8-44d5-81d6-7dbd96ef8a6f",
      "name": "Sodium",
      "url": "https://haz-map.com/Agents/1527",
      "category": "agents"
    },
    {
      "type": "name_match",
      "text": "sodium hypophosphite",
      "confidence": 1.0,
      "uuid": "377ca479-8b2f-4776-b1d7-f4a42a9a718e",
      "name": "Sodium hypophosphite",
      "url": "https://haz-map.com/Agents/1916",
      "category": "agents"
    },
    {
      "type": "name_match",
      "text": "hypophosphorous acid",
      "confidence": 1.0,
      "uuid": "5c9e2011-28bf-4384-8a0b-f2157b8634fc",
      "name": "Hypophosphorous acid",
      "url": "https://haz-map.com/Agents/8659",
      "category": "agents"
    },
    {
      "type": "name_match",
      "text": "phosphorous acid",
      "confidence": 1.0,
      "uuid": "cd85912c-49fc-45b2-b593-6a900b0ec52e",
      "name": "Phosphorous acid",
      "url": "https://haz-map.com/Agents/8662",
      "category": "agents"
    },
    {
      "type": "fuzzy_match",
      "text": "monosodium salt",
      "matched_name": "Zincon, monosodium salt",
      "confidence": 0.718944099378882,
      "uuid": "1b9c7ff2-2993-44ad-99f4-ba1cdcbdad89",
      "category": "agents",
      "url": "https://haz-map.com/Agents/18326"
    }
  ],
  "all_links": [
    {
      "text": "Search PubMed",
      "url": "https://www.ncbi.nlm.nih.gov/pubmed?term=Sodium+hypophosphite%20AND%20human%5Bmh%5D%20AND%20%28Occupational%20Diseases%20%5Bmh%5D%20OR%20Occupational%20Exposure%20%5Bmh%5D%29%20%20AND%20%28tox%5Bsb%5D%29&cmd=search"
    },
    {
      "text": "Electroplating",
      "url": "https://haz-map.com/Processes/66"
    }
  ]
}