{
  "metadata": {
    "scraped_from": "https://haz-map.com/Agents/18658",
    "entity_name": "alpha-Tocopherol",
    "category": "agents",
    "uuid": "379109d7-e7db-44c6-aec5-a67c346a4b29",
    "scraped_at": "2025-07-23T21:57:04.294158"
  },
  "parsed_at": "2025-07-24T01:16:45.054896",
  "title": "alpha-Tocopherol",
  "sections": {
    "general": {
      "agent_name": {
        "original_name": "Agent Name",
        "value": "alpha-Tocopherol",
        "links": [],
        "cross_references": [
          {
            "type": "name_match",
            "text": "alpha-tocopherol",
            "confidence": 1.0,
            "uuid": "379109d7-e7db-44c6-aec5-a67c346a4b29",
            "name": "alpha-Tocopherol",
            "url": "https://haz-map.com/Agents/18658",
            "category": "agents"
          }
        ]
      },
      "cas_number": {
        "original_name": "CAS Number",
        "value": "59-02-9",
        "links": [],
        "cross_references": []
      },
      "formula": {
        "original_name": "Formula",
        "value": "C29-H50-O2",
        "links": [],
        "cross_references": []
      },
      "major_category": {
        "original_name": "Major Category",
        "value": "Biological Agents",
        "links": [],
        "cross_references": []
      },
      "synonyms": {
        "original_name": "Synonyms",
        "value": "2H-1-Benzopyran-6-ol, 3,4-dihydro-2,5,7,8-tetramethyl-2-(4,8,12-trimethyltridecyl)-; D-alpha Tocopherol; (+)-alpha-Tocopherol; (2R,4'R,8'R)-alpha-Tocopherol; (R,R,R)-alpha-Tocopherol; (all-R)-alpha-Tocopherol; 2,5,7,8-Tetramethyl-2-(4',8',12'-trimethyltridecyl)-6-chromanol; 2H-1-Benzopyran-6-ol, 3,4-dihydro-2,5,7,8-tetramethyl-2-(4,8,12-trimethyltridecyl)-, (2R-(2R*(4R*,8R*)))-; 3,4-Dihydro-2,5,7,8-tetramethyl-2-(4,8,12-trimethyltridecyl)-2H-1-benzopyran-6-ol; 5,7,8-Trimethyltocol; Almefrol; Antisterility vitamin; Aquasol E; Covi-Ox; Covitol F 1000; D-alpha-Tocopherol; Denamone; E 307; E 307 (tocopherol); E Prolin; E-Oil 1000; E-Vimin; Emipherol; Endo E; Eprolin; Eprolin S; Epsilan; Esorb; Etamican; Etavit; Evion; Evitaminum; Ilitia; Lan-E; Med-E; Phytogermine; Profecundin; Rhenogran Ronotec 50; Spavit E; Syntopherol; Tenox GT 1; Tocopherol alpha; Tokopharm; Vascuals; Verrol; Vi-E; Viprimol; Vita E; Vitamin E alpha; Vitaplex E; Vitayonon; Viteolin; Viterra E; alpha Tocopherol; alpha-Tocopherol acid; alpha-Tocopherol, D-; alpha-Tokoferol; d-alpha-Tocopherol; 2H-1-Benzopyran-6-ol, 3,4-dihydro-2,5,7,8-tetramethyl-2-((4R,8R)-4,8,12-trimethyltridecyl)-, (2R)-; Vitamin E; (2R,4'R,8'R)-2,5,7,8-Tetramethyl-2-(4',8',12'-trimethyltridecyl)-6-chromanol; [ChemIDplus]",
        "links": [],
        "cross_references": [
          {
            "type": "name_match",
            "text": "mica",
            "confidence": 1.0,
            "uuid": "433f26f1-c399-4596-b179-ce3843cfd465",
            "name": "Mica",
            "url": "https://haz-map.com/Agents/621",
            "category": "agents"
          },
          {
            "type": "name_match",
            "text": "alpha-tocopherol",
            "confidence": 1.0,
            "uuid": "379109d7-e7db-44c6-aec5-a67c346a4b29",
            "name": "alpha-Tocopherol",
            "url": "https://haz-map.com/Agents/18658",
            "category": "agents"
          }
        ]
      },
      "category": {
        "original_name": "Category",
        "value": "Vitamins and Derivatives",
        "links": [],
        "cross_references": []
      },
      "description": {
        "original_name": "Description",
        "value": "Transparent solid; mp = 2.5-3.5 deg C; [Merck Index] Pale yellow viscous liquid; [HSDB] Light yellow viscous liquid; [Sigma-Aldrich MSDS]",
        "links": [],
        "cross_references": [
          {
            "type": "name_match",
            "text": "ht",
            "confidence": 1.0,
            "uuid": "764df367-8d53-4a11-81a2-31ccfe122a8d",
            "name": "HT",
            "url": "https://haz-map.com/Agents/2168",
            "category": "agents"
          }
        ]
      },
      "sourcesuses": {
        "original_name": "Sources/Uses",
        "value": "The bioactive natural form of vitamin E found in green vegetables, grains, and oils (especially palm, safflower, and sunflower); Used as an antioxidant in oils and as a vitamin E supplement; [Merck Index] Used as a medication and animal feed additive; [HSDB]",
        "links": [],
        "cross_references": []
      },
      "comments": {
        "original_name": "Comments",
        "value": "Acceptable daily intake (ADI) of 0.15-2 mg/kg; [JECFA] Excessive, chronic ingestion can cause nausea, headaches, and weakness. [Olson, p. 446] May cause irritation; [Sigma-Aldrich MSDS]",
        "links": [],
        "cross_references": [
          {
            "type": "name_match",
            "text": "headache",
            "confidence": 1.0,
            "uuid": "a474a38d-66ac-44da-92de-de1c781a30e7",
            "name": "headache",
            "url": "https://haz-map.com/Findings/17",
            "category": "findings"
          },
          {
            "type": "name_match",
            "text": "weakness",
            "confidence": 1.0,
            "uuid": "44bfccd5-0f7a-48f7-b4eb-de9a6ef23064",
            "name": "weakness",
            "url": "https://haz-map.com/Findings/83",
            "category": "findings"
          }
        ]
      },
      "biomedical_references": {
        "original_name": "Biomedical References",
        "value": "Search PubMed",
        "links": [
          {
            "text": "Search PubMed",
            "url": "https://www.ncbi.nlm.nih.gov/pubmed?term=alpha-Tocopherol%20AND%20human%5Bmh%5D%20AND%20%28Occupational%20Diseases%20%5Bmh%5D%20OR%20Occupational%20Exposure%20%5Bmh%5D%29%20%20AND%20%28tox%5Bsb%5D%29&cmd=search"
          }
        ],
        "cross_references": []
      }
    },
    "exposure_assessment": {
      "vapor_pressure": {
        "original_name": "Vapor Pressure",
        "value": "1.4E-08 mm Hg",
        "links": [],
        "cross_references": []
      }
    },
    "diseases_processes_and_activities_linked_to_this_agent": {
      "processes": {
        "original_name": "Processes",
        "value": "Industrial Processes with risk of exposure: Farming (Feed Additives)",
        "links": [
          {
            "text": "Farming (Feed Additives)",
            "url": "https://haz-map.com/Processes/262"
          }
        ],
        "cross_references": []
      }
    }
  },
  "cross_references": [
    {
      "type": "name_match",
      "text": "headache",
      "confidence": 1.0,
      "uuid": "a474a38d-66ac-44da-92de-de1c781a30e7",
      "name": "headache",
      "url": "https://haz-map.com/Findings/17",
      "category": "findings"
    },
    {
      "type": "name_match",
      "text": "weakness",
      "confidence": 1.0,
      "uuid": "44bfccd5-0f7a-48f7-b4eb-de9a6ef23064",
      "name": "weakness",
      "url": "https://haz-map.com/Findings/83",
      "category": "findings"
    },
    {
      "type": "name_match",
      "text": "mica",
      "confidence": 1.0,
      "uuid": "433f26f1-c399-4596-b179-ce3843cfd465",
      "name": "Mica",
      "url": "https://haz-map.com/Agents/621",
      "category": "agents"
    },
    {
      "type": "name_match",
      "text": "ht",
      "confidence": 1.0,
      "uuid": "764df367-8d53-4a11-81a2-31ccfe122a8d",
      "name": "HT",
      "url": "https://haz-map.com/Agents/2168",
      "category": "agents"
    },
    {
      "type": "name_match",
      "text": "alpha-tocopherol",
      "confidence": 1.0,
      "uuid": "379109d7-e7db-44c6-aec5-a67c346a4b29",
      "name": "alpha-Tocopherol",
      "url": "https://haz-map.com/Agents/18658",
      "category": "agents"
    }
  ],
  "all_links": [
    {
      "text": "Search PubMed",
      "url": "https://www.ncbi.nlm.nih.gov/pubmed?term=alpha-Tocopherol%20AND%20human%5Bmh%5D%20AND%20%28Occupational%20Diseases%20%5Bmh%5D%20OR%20Occupational%20Exposure%20%5Bmh%5D%29%20%20AND%20%28tox%5Bsb%5D%29&cmd=search"
    },
    {
      "text": "Farming (Feed Additives)",
      "url": "https://haz-map.com/Processes/262"
    }
  ]
}