{
  "metadata": {
    "scraped_from": "https://haz-map.com/Agents/12235",
    "entity_name": "BBOT",
    "category": "agents",
    "uuid": "37d91116-24b6-4c50-afdf-2074a0b3fe60",
    "scraped_at": "2025-07-23T21:06:40.337521"
  },
  "parsed_at": "2025-07-24T01:06:05.218702",
  "title": "BBOT",
  "sections": {
    "general": {
      "agent_name": {
        "original_name": "Agent Name",
        "value": "BBOT",
        "links": [],
        "cross_references": [
          {
            "type": "name_match",
            "text": "bbot",
            "confidence": 1.0,
            "uuid": "37d91116-24b6-4c50-afdf-2074a0b3fe60",
            "name": "BBOT",
            "url": "https://haz-map.com/Agents/12235",
            "category": "agents"
          }
        ]
      },
      "cas_number": {
        "original_name": "CAS Number",
        "value": "7128-64-5",
        "links": [],
        "cross_references": []
      },
      "formula": {
        "original_name": "Formula",
        "value": "C26-H26-N2-O2-S",
        "links": [],
        "cross_references": []
      },
      "major_category": {
        "original_name": "Major Category",
        "value": "Dyes",
        "links": [],
        "cross_references": []
      },
      "synonyms": {
        "original_name": "Synonyms",
        "value": "2,2'-(2,5-Thiophenediyl)bis(5-tert-butylbenzoxazole); 2,5-Bis(5-tert-butylbenzoxazol-2-yl)thiophene; BBOT 150; Benzoxazole, 2,2'-(2,5-thiophenediyl)bis(5-tert-butyl-; Uvitex OB; 2,5-Thiophenediylbis(5-tert-butyl-1,3-benzoxazole); Benzoxazole, 2,2'-(2,5-thiophenediyl)bis(5-(1,1-dimethylethyl)-; [ChemIDplus] 2,2'-(2,5-Thiophenediyl)bis(5-(1,1-dimethylethyl)benzoxazole); 2,5-Bis(5-tert-butyl-2-benzoxazol)thiophene; C.I. Fluorescent Brightener 184; [Merck Index]",
        "links": [],
        "cross_references": [
          {
            "type": "name_match",
            "text": "thiophene",
            "confidence": 1.0,
            "uuid": "f7ccd5a0-b31f-419d-b64f-3472ae89f92f",
            "name": "Thiophene",
            "url": "https://haz-map.com/Agents/1479",
            "category": "agents"
          },
          {
            "type": "name_match",
            "text": "ht",
            "confidence": 1.0,
            "uuid": "764df367-8d53-4a11-81a2-31ccfe122a8d",
            "name": "HT",
            "url": "https://haz-map.com/Agents/2168",
            "category": "agents"
          },
          {
            "type": "name_match",
            "text": "benzoxazole",
            "confidence": 1.0,
            "uuid": "bb3b6774-ad17-44a9-b096-679988a078e1",
            "name": "Benzoxazole",
            "url": "https://haz-map.com/Agents/12234",
            "category": "agents"
          },
          {
            "type": "name_match",
            "text": "bbot",
            "confidence": 1.0,
            "uuid": "37d91116-24b6-4c50-afdf-2074a0b3fe60",
            "name": "BBOT",
            "url": "https://haz-map.com/Agents/12235",
            "category": "agents"
          }
        ]
      },
      "category": {
        "original_name": "Category",
        "value": "Other Dyes",
        "links": [],
        "cross_references": []
      },
      "description": {
        "original_name": "Description",
        "value": "Yellow to green solid; [Merck Index] Yellow powder; [Alfa Aesar MSDS]",
        "links": [],
        "cross_references": []
      },
      "sourcesuses": {
        "original_name": "Sources/Uses",
        "value": "Permitted for use as an inert ingredient in non-food pesticide products; [EPA] Used as an optical brightener for polymers, fibers, films, inks, lacquers, paints and liquid scintillators; [Merck Index]",
        "links": [],
        "cross_references": [
          {
            "type": "name_match",
            "text": "ht",
            "confidence": 1.0,
            "uuid": "764df367-8d53-4a11-81a2-31ccfe122a8d",
            "name": "HT",
            "url": "https://haz-map.com/Agents/2168",
            "category": "agents"
          }
        ]
      },
      "comments": {
        "original_name": "Comments",
        "value": "May cause irritation; [Alfa Aesar MSDS] See \"POPOP.\"",
        "links": [],
        "cross_references": [
          {
            "type": "name_match",
            "text": "popop",
            "confidence": 1.0,
            "uuid": "b3e7370b-90f1-4890-af4f-a34be037f752",
            "name": "POPOP",
            "url": "https://haz-map.com/Agents/16376",
            "category": "agents"
          }
        ]
      },
      "biomedical_references": {
        "original_name": "Biomedical References",
        "value": "Search PubMed",
        "links": [
          {
            "text": "Search PubMed",
            "url": "https://www.ncbi.nlm.nih.gov/pubmed?term=BBOT%20AND%20human%5Bmh%5D%20AND%20%28Occupational%20Diseases%20%5Bmh%5D%20OR%20Occupational%20Exposure%20%5Bmh%5D%29%20%20AND%20%28tox%5Bsb%5D%29&cmd=search"
          }
        ],
        "cross_references": []
      }
    },
    "exposure_assessment": {
      "vapor_pressure": {
        "original_name": "Vapor Pressure",
        "value": "1.9E-10 mm Hg",
        "links": [],
        "cross_references": []
      }
    },
    "diseases_processes_and_activities_linked_to_this_agent": {
      "processes": {
        "original_name": "Processes",
        "value": "Industrial Processes with risk of exposure: Painting (Pigments, Binders, and Biocides) Textiles (Printing, Dyeing, or Finishing)",
        "links": [
          {
            "text": "Painting (Pigments, Binders, and Biocides)",
            "url": "https://haz-map.com/Processes/145"
          },
          {
            "text": "Textiles (Printing, Dyeing, or Finishing)",
            "url": "https://haz-map.com/Processes/235"
          }
        ],
        "cross_references": [
          {
            "type": "url_match",
            "text": "Painting (Pigments, Binders, and Biocides)",
            "url": "https://haz-map.com/Processes/145",
            "confidence": 1.0,
            "uuid": "25867878-e178-4c21-906f-d392d86b76de",
            "name": "Painting (Pigments, Binders, and Biocides)",
            "category": "processes"
          },
          {
            "type": "name_match",
            "text": "painting",
            "confidence": 1.0,
            "uuid": "19816ce9-9edf-4a86-8e64-b0cbf7dcf520",
            "name": "Painting",
            "url": "https://haz-map.com/Activities/9",
            "category": "activities"
          }
        ]
      }
    }
  },
  "cross_references": [
    {
      "type": "url_match",
      "text": "Painting (Pigments, Binders, and Biocides)",
      "url": "https://haz-map.com/Processes/145",
      "confidence": 1.0,
      "uuid": "25867878-e178-4c21-906f-d392d86b76de",
      "name": "Painting (Pigments, Binders, and Biocides)",
      "category": "processes"
    },
    {
      "type": "name_match",
      "text": "painting",
      "confidence": 1.0,
      "uuid": "19816ce9-9edf-4a86-8e64-b0cbf7dcf520",
      "name": "Painting",
      "url": "https://haz-map.com/Activities/9",
      "category": "activities"
    },
    {
      "type": "name_match",
      "text": "thiophene",
      "confidence": 1.0,
      "uuid": "f7ccd5a0-b31f-419d-b64f-3472ae89f92f",
      "name": "Thiophene",
      "url": "https://haz-map.com/Agents/1479",
      "category": "agents"
    },
    {
      "type": "name_match",
      "text": "ht",
      "confidence": 1.0,
      "uuid": "764df367-8d53-4a11-81a2-31ccfe122a8d",
      "name": "HT",
      "url": "https://haz-map.com/Agents/2168",
      "category": "agents"
    },
    {
      "type": "name_match",
      "text": "benzoxazole",
      "confidence": 1.0,
      "uuid": "bb3b6774-ad17-44a9-b096-679988a078e1",
      "name": "Benzoxazole",
      "url": "https://haz-map.com/Agents/12234",
      "category": "agents"
    },
    {
      "type": "name_match",
      "text": "bbot",
      "confidence": 1.0,
      "uuid": "37d91116-24b6-4c50-afdf-2074a0b3fe60",
      "name": "BBOT",
      "url": "https://haz-map.com/Agents/12235",
      "category": "agents"
    },
    {
      "type": "name_match",
      "text": "popop",
      "confidence": 1.0,
      "uuid": "b3e7370b-90f1-4890-af4f-a34be037f752",
      "name": "POPOP",
      "url": "https://haz-map.com/Agents/16376",
      "category": "agents"
    }
  ],
  "all_links": [
    {
      "text": "Search PubMed",
      "url": "https://www.ncbi.nlm.nih.gov/pubmed?term=BBOT%20AND%20human%5Bmh%5D%20AND%20%28Occupational%20Diseases%20%5Bmh%5D%20OR%20Occupational%20Exposure%20%5Bmh%5D%29%20%20AND%20%28tox%5Bsb%5D%29&cmd=search"
    },
    {
      "text": "Painting (Pigments, Binders, and Biocides)",
      "url": "https://haz-map.com/Processes/145"
    },
    {
      "text": "Textiles (Printing, Dyeing, or Finishing)",
      "url": "https://haz-map.com/Processes/235"
    }
  ]
}