{
  "metadata": {
    "scraped_from": "https://haz-map.com/Agents/18436",
    "entity_name": "Trisilane",
    "category": "agents",
    "uuid": "37e873be-e744-4a05-aa72-1d366a0dd76b",
    "scraped_at": "2025-07-23T21:55:37.481652"
  },
  "parsed_at": "2025-07-24T01:19:16.226496",
  "title": "Trisilane",
  "sections": {
    "general": {
      "agent_name": {
        "original_name": "Agent Name",
        "value": "Trisilane",
        "links": [],
        "cross_references": [
          {
            "type": "name_match",
            "text": "trisilane",
            "confidence": 1.0,
            "uuid": "37e873be-e744-4a05-aa72-1d366a0dd76b",
            "name": "Trisilane",
            "url": "https://haz-map.com/Agents/18436",
            "category": "agents"
          }
        ]
      },
      "cas_number": {
        "original_name": "CAS Number",
        "value": "7783-26-8",
        "links": [],
        "cross_references": []
      },
      "formula": {
        "original_name": "Formula",
        "value": "H8-Si3",
        "links": [],
        "cross_references": []
      },
      "major_category": {
        "original_name": "Major Category",
        "value": "Toxic Gases & Vapors",
        "links": [],
        "cross_references": []
      },
      "synonyms": {
        "original_name": "Synonyms",
        "value": "Trisilicopropane; Trisilicon octahydride; Silicopropane; Trisilicane; [Merck Index] UN3194",
        "links": [],
        "cross_references": [
          {
            "type": "name_match",
            "text": "propane",
            "confidence": 1.0,
            "uuid": "563a611b-46ea-4bdc-b77b-17d8f7646283",
            "name": "Propane",
            "url": "https://haz-map.com/Agents/607",
            "category": "agents"
          },
          {
            "type": "name_match",
            "text": "silicon",
            "confidence": 1.0,
            "uuid": "443f4405-7a1f-47db-bf43-809557f77483",
            "name": "Silicon",
            "url": "https://haz-map.com/Agents/623",
            "category": "agents"
          }
        ]
      },
      "category": {
        "original_name": "Category",
        "value": "Hydrides",
        "links": [],
        "cross_references": []
      },
      "description": {
        "original_name": "Description",
        "value": "Liquid; [Merck Index] Colorless liquid with an irritating odor; [Matheson Tri-Gas MSDS]",
        "links": [],
        "cross_references": []
      },
      "comments": {
        "original_name": "Comments",
        "value": "Detonates in air; Decomposed by water; [Merck Index] Pyrophoric; An irritant; May cause thermal burns on ignition; [Matheson Tri-Gas MSDS] See \"Silicon tetrahydride.\"",
        "links": [],
        "cross_references": [
          {
            "type": "name_match",
            "text": "burn",
            "confidence": 1.0,
            "uuid": "63665de5-6376-4918-8dbf-4c10c4d63837",
            "name": "burn",
            "url": "https://haz-map.com/Findings/204",
            "category": "findings"
          },
          {
            "type": "name_match",
            "text": "silicon",
            "confidence": 1.0,
            "uuid": "443f4405-7a1f-47db-bf43-809557f77483",
            "name": "Silicon",
            "url": "https://haz-map.com/Agents/623",
            "category": "agents"
          },
          {
            "type": "name_match",
            "text": "silicon tetrahydride",
            "confidence": 1.0,
            "uuid": "9ef4469b-e9fe-49ff-b5a1-c3fd98b523b3",
            "name": "Silicon tetrahydride",
            "url": "https://haz-map.com/Agents/713",
            "category": "agents"
          },
          {
            "type": "name_match",
            "text": "water",
            "confidence": 1.0,
            "uuid": "6f2a7557-dfd2-49bc-9b4b-a93cd8e225d4",
            "name": "Water",
            "url": "https://haz-map.com/Agents/18668",
            "category": "agents"
          }
        ]
      },
      "biomedical_references": {
        "original_name": "Biomedical References",
        "value": "Search PubMed",
        "links": [
          {
            "text": "Search PubMed",
            "url": "https://www.ncbi.nlm.nih.gov/pubmed?term=Trisilane%20AND%20human%5Bmh%5D%20AND%20%28Occupational%20Diseases%20%5Bmh%5D%20OR%20Occupational%20Exposure%20%5Bmh%5D%29%20%20AND%20%28tox%5Bsb%5D%29&cmd=search"
          }
        ],
        "cross_references": []
      }
    },
    "exposure_assessment": {
      "explanatory_notes": {
        "original_name": "Explanatory Notes",
        "value": "Vapor pressure = 95.5 mm Hg at 0 deg C; [Merck Index] The Guide in the Emergency Response Guidebook is for \"Pyrophoric liquid, inorganic, n.o.s.\"",
        "links": [],
        "cross_references": []
      }
    },
    "diseases_processes_and_activities_linked_to_this_agent": {
      "other_information": {
        "original_name": "Other Information",
        "value": "No other related information on this agent was found.",
        "links": [],
        "cross_references": []
      }
    }
  },
  "cross_references": [
    {
      "type": "name_match",
      "text": "burn",
      "confidence": 1.0,
      "uuid": "63665de5-6376-4918-8dbf-4c10c4d63837",
      "name": "burn",
      "url": "https://haz-map.com/Findings/204",
      "category": "findings"
    },
    {
      "type": "name_match",
      "text": "propane",
      "confidence": 1.0,
      "uuid": "563a611b-46ea-4bdc-b77b-17d8f7646283",
      "name": "Propane",
      "url": "https://haz-map.com/Agents/607",
      "category": "agents"
    },
    {
      "type": "name_match",
      "text": "silicon",
      "confidence": 1.0,
      "uuid": "443f4405-7a1f-47db-bf43-809557f77483",
      "name": "Silicon",
      "url": "https://haz-map.com/Agents/623",
      "category": "agents"
    },
    {
      "type": "name_match",
      "text": "silicon tetrahydride",
      "confidence": 1.0,
      "uuid": "9ef4469b-e9fe-49ff-b5a1-c3fd98b523b3",
      "name": "Silicon tetrahydride",
      "url": "https://haz-map.com/Agents/713",
      "category": "agents"
    },
    {
      "type": "name_match",
      "text": "trisilane",
      "confidence": 1.0,
      "uuid": "37e873be-e744-4a05-aa72-1d366a0dd76b",
      "name": "Trisilane",
      "url": "https://haz-map.com/Agents/18436",
      "category": "agents"
    },
    {
      "type": "name_match",
      "text": "water",
      "confidence": 1.0,
      "uuid": "6f2a7557-dfd2-49bc-9b4b-a93cd8e225d4",
      "name": "Water",
      "url": "https://haz-map.com/Agents/18668",
      "category": "agents"
    }
  ],
  "all_links": [
    {
      "text": "Search PubMed",
      "url": "https://www.ncbi.nlm.nih.gov/pubmed?term=Trisilane%20AND%20human%5Bmh%5D%20AND%20%28Occupational%20Diseases%20%5Bmh%5D%20OR%20Occupational%20Exposure%20%5Bmh%5D%29%20%20AND%20%28tox%5Bsb%5D%29&cmd=search"
    }
  ]
}