{
  "metadata": {
    "scraped_from": "https://haz-map.com/Agents/8353",
    "entity_name": "Dodecanal",
    "category": "agents",
    "uuid": "38729c5b-80ee-4248-a835-4eab5c182153",
    "scraped_at": "2025-07-23T20:25:47.611684"
  },
  "parsed_at": "2025-07-24T00:52:16.699198",
  "title": "Dodecanal",
  "sections": {
    "general": {
      "agent_name": {
        "original_name": "Agent Name",
        "value": "Dodecanal",
        "links": [],
        "cross_references": [
          {
            "type": "name_match",
            "text": "dodecanal",
            "confidence": 1.0,
            "uuid": "38729c5b-80ee-4248-a835-4eab5c182153",
            "name": "Dodecanal",
            "url": "https://haz-map.com/Agents/8353",
            "category": "agents"
          }
        ]
      },
      "alternative_name": {
        "original_name": "Alternative Name",
        "value": "Lauryl aldehyde",
        "links": [],
        "cross_references": []
      },
      "cas_number": {
        "original_name": "CAS Number",
        "value": "112-54-9",
        "links": [],
        "cross_references": []
      },
      "formula": {
        "original_name": "Formula",
        "value": "C12-H24-O",
        "links": [],
        "cross_references": []
      },
      "major_category": {
        "original_name": "Major Category",
        "value": "Other Classes",
        "links": [],
        "cross_references": []
      },
      "synonyms": {
        "original_name": "Synonyms",
        "value": "Lauryl aldehyde; 1-Dodecanal; 1-Dodecyl aldehyde; Aldehyde C-12, lauric; C-12 aldehyde, lauric; C12 aldehyde; Dodecanaldehyde; Duodecylic aldehyde; Lauraldehyde; Lauric aldehyde; Lauric aldehyde (natural); n-Dodecanal; n-Dodecyl aldehyde; n-Dodecylic aldehyde; n-Lauraldehyde; [ChemIDplus]",
        "links": [],
        "cross_references": [
          {
            "type": "name_match",
            "text": "dodecanal",
            "confidence": 1.0,
            "uuid": "38729c5b-80ee-4248-a835-4eab5c182153",
            "name": "Dodecanal",
            "url": "https://haz-map.com/Agents/8353",
            "category": "agents"
          }
        ]
      },
      "category": {
        "original_name": "Category",
        "value": "Aldehydes",
        "links": [],
        "cross_references": [
          {
            "type": "name_match",
            "text": "aldehydes",
            "confidence": 1.0,
            "uuid": "60ff52e0-7c53-4dd0-99cf-f775cfcfed59",
            "name": "ALDEHYDES",
            "url": "https://haz-map.com/Agents/719",
            "category": "agents"
          }
        ]
      },
      "description": {
        "original_name": "Description",
        "value": "Colorless solid or liquid with a strong floral odor; [Hawley] Colorless liquid; [MSDSonline]",
        "links": [],
        "cross_references": []
      },
      "sourcesuses": {
        "original_name": "Sources/Uses",
        "value": "Used in perfumes and as a flavoring agent; [Hawley]",
        "links": [],
        "cross_references": []
      },
      "comments": {
        "original_name": "Comments",
        "value": "A skin irritant; [eChemPortal: ERMA] An irritant; [MSDSonline]",
        "links": [],
        "cross_references": []
      },
      "biomedical_references": {
        "original_name": "Biomedical References",
        "value": "Search PubMed",
        "links": [
          {
            "text": "Search PubMed",
            "url": "https://www.ncbi.nlm.nih.gov/pubmed?term=Dodecanal%20AND%20human%5Bmh%5D%20AND%20%28Occupational%20Diseases%20%5Bmh%5D%20OR%20Occupational%20Exposure%20%5Bmh%5D%29%20%20AND%20%28tox%5Bsb%5D%29&cmd=search"
          }
        ],
        "cross_references": []
      }
    },
    "exposure_assessment": {
      "vapor_pressure": {
        "original_name": "Vapor Pressure",
        "value": "0.0153 mm Hg",
        "links": [],
        "cross_references": []
      },
      "explanatory_notes": {
        "original_name": "Explanatory Notes",
        "value": "VP from ChemIDplus;",
        "links": [],
        "cross_references": []
      }
    },
    "diseases_processes_and_activities_linked_to_this_agent": {
      "other_information": {
        "original_name": "Other Information",
        "value": "No other related information on this agent was found.",
        "links": [],
        "cross_references": []
      }
    }
  },
  "cross_references": [
    {
      "type": "name_match",
      "text": "aldehydes",
      "confidence": 1.0,
      "uuid": "60ff52e0-7c53-4dd0-99cf-f775cfcfed59",
      "name": "ALDEHYDES",
      "url": "https://haz-map.com/Agents/719",
      "category": "agents"
    },
    {
      "type": "name_match",
      "text": "dodecanal",
      "confidence": 1.0,
      "uuid": "38729c5b-80ee-4248-a835-4eab5c182153",
      "name": "Dodecanal",
      "url": "https://haz-map.com/Agents/8353",
      "category": "agents"
    }
  ],
  "all_links": [
    {
      "text": "Search PubMed",
      "url": "https://www.ncbi.nlm.nih.gov/pubmed?term=Dodecanal%20AND%20human%5Bmh%5D%20AND%20%28Occupational%20Diseases%20%5Bmh%5D%20OR%20Occupational%20Exposure%20%5Bmh%5D%29%20%20AND%20%28tox%5Bsb%5D%29&cmd=search"
    }
  ]
}