{
  "metadata": {
    "scraped_from": "https://haz-map.com/Agents/5115",
    "entity_name": "Erucamide",
    "category": "agents",
    "uuid": "388cd5a4-5f23-4331-b136-e5ee348aee0d",
    "scraped_at": "2025-07-23T19:49:07.317018"
  },
  "parsed_at": "2025-07-24T00:56:12.615888",
  "title": "Erucamide",
  "sections": {
    "general": {
      "agent_name": {
        "original_name": "Agent Name",
        "value": "Erucamide",
        "links": [],
        "cross_references": [
          {
            "type": "name_match",
            "text": "erucamide",
            "confidence": 1.0,
            "uuid": "388cd5a4-5f23-4331-b136-e5ee348aee0d",
            "name": "Erucamide",
            "url": "https://haz-map.com/Agents/5115",
            "category": "agents"
          }
        ]
      },
      "cas_number": {
        "original_name": "CAS Number",
        "value": "112-84-5",
        "links": [],
        "cross_references": []
      },
      "formula": {
        "original_name": "Formula",
        "value": "C22-H43-N-O",
        "links": [],
        "cross_references": []
      },
      "major_category": {
        "original_name": "Major Category",
        "value": "Other Classes",
        "links": [],
        "cross_references": []
      },
      "synonyms": {
        "original_name": "Synonyms",
        "value": "Erucyl amide; 13-Docosenamide; 13-Docosenamide, (Z)-; Erucic acid amide; Erucylamide; [ChemIDplus]",
        "links": [],
        "cross_references": [
          {
            "type": "name_match",
            "text": "erucic acid",
            "confidence": 1.0,
            "uuid": "1d2bb129-048b-4e88-9dd0-8cb9ce22dd07",
            "name": "Erucic acid",
            "url": "https://haz-map.com/Agents/5116",
            "category": "agents"
          }
        ]
      },
      "category": {
        "original_name": "Category",
        "value": "Amides, Other",
        "links": [],
        "cross_references": []
      },
      "description": {
        "original_name": "Description",
        "value": "Solid; [Hawley] Off-white beads with a fatty odor; [MSDSonline]",
        "links": [],
        "cross_references": []
      },
      "sourcesuses": {
        "original_name": "Sources/Uses",
        "value": "Used as foam stabilizer, adherent, antiblock agent for polyethylenes, and solvent for waxes and resins; [HSDB]",
        "links": [],
        "cross_references": [
          {
            "type": "name_match",
            "text": "polyethylene",
            "confidence": 1.0,
            "uuid": "49cd0ad9-abe0-4650-bb5b-a2e2e68f0cae",
            "name": "Polyethylene",
            "url": "https://haz-map.com/Agents/850",
            "category": "agents"
          },
          {
            "type": "name_match",
            "text": "ethylene",
            "confidence": 1.0,
            "uuid": "958eacc0-5135-4b62-bb93-6df972bf552f",
            "name": "Ethylene",
            "url": "https://haz-map.com/Agents/1076",
            "category": "agents"
          }
        ]
      },
      "comments": {
        "original_name": "Comments",
        "value": "May cause irritation; [MSDSonline]",
        "links": [],
        "cross_references": []
      },
      "biomedical_references": {
        "original_name": "Biomedical References",
        "value": "Search PubMed",
        "links": [
          {
            "text": "Search PubMed",
            "url": "https://www.ncbi.nlm.nih.gov/pubmed?term=Erucamide%20AND%20human%5Bmh%5D%20AND%20%28Occupational%20Diseases%20%5Bmh%5D%20OR%20Occupational%20Exposure%20%5Bmh%5D%29%20%20AND%20%28tox%5Bsb%5D%29&cmd=search"
          }
        ],
        "cross_references": []
      }
    },
    "exposure_assessment": {
      "vapor_pressure": {
        "original_name": "Vapor Pressure",
        "value": "5.82E-09 mm Hg",
        "links": [],
        "cross_references": []
      }
    },
    "diseases_processes_and_activities_linked_to_this_agent": {
      "other_information": {
        "original_name": "Other Information",
        "value": "No other related information on this agent was found.",
        "links": [],
        "cross_references": []
      }
    }
  },
  "cross_references": [
    {
      "type": "name_match",
      "text": "polyethylene",
      "confidence": 1.0,
      "uuid": "49cd0ad9-abe0-4650-bb5b-a2e2e68f0cae",
      "name": "Polyethylene",
      "url": "https://haz-map.com/Agents/850",
      "category": "agents"
    },
    {
      "type": "name_match",
      "text": "ethylene",
      "confidence": 1.0,
      "uuid": "958eacc0-5135-4b62-bb93-6df972bf552f",
      "name": "Ethylene",
      "url": "https://haz-map.com/Agents/1076",
      "category": "agents"
    },
    {
      "type": "name_match",
      "text": "erucamide",
      "confidence": 1.0,
      "uuid": "388cd5a4-5f23-4331-b136-e5ee348aee0d",
      "name": "Erucamide",
      "url": "https://haz-map.com/Agents/5115",
      "category": "agents"
    },
    {
      "type": "name_match",
      "text": "erucic acid",
      "confidence": 1.0,
      "uuid": "1d2bb129-048b-4e88-9dd0-8cb9ce22dd07",
      "name": "Erucic acid",
      "url": "https://haz-map.com/Agents/5116",
      "category": "agents"
    }
  ],
  "all_links": [
    {
      "text": "Search PubMed",
      "url": "https://www.ncbi.nlm.nih.gov/pubmed?term=Erucamide%20AND%20human%5Bmh%5D%20AND%20%28Occupational%20Diseases%20%5Bmh%5D%20OR%20Occupational%20Exposure%20%5Bmh%5D%29%20%20AND%20%28tox%5Bsb%5D%29&cmd=search"
    }
  ]
}