{
  "metadata": {
    "scraped_from": "https://haz-map.com/Agents/6146",
    "entity_name": "Thiazolyl blue",
    "category": "agents",
    "uuid": "38a6111f-5577-4acf-9565-49a948593568",
    "scraped_at": "2025-07-23T19:59:00.646461"
  },
  "parsed_at": "2025-07-24T00:59:13.328610",
  "title": "Thiazolyl blue",
  "sections": {
    "general": {
      "agent_name": {
        "original_name": "Agent Name",
        "value": "Thiazolyl blue",
        "links": [],
        "cross_references": [
          {
            "type": "name_match",
            "text": "thiazolyl blue",
            "confidence": 1.0,
            "uuid": "38a6111f-5577-4acf-9565-49a948593568",
            "name": "Thiazolyl blue",
            "url": "https://haz-map.com/Agents/6146",
            "category": "agents"
          }
        ]
      },
      "cas_number": {
        "original_name": "CAS Number",
        "value": "298-93-1",
        "links": [],
        "cross_references": []
      },
      "formula": {
        "original_name": "Formula",
        "value": "C18-H16-N5-S.Br",
        "links": [],
        "cross_references": []
      },
      "major_category": {
        "original_name": "Major Category",
        "value": "Dyes",
        "links": [],
        "cross_references": []
      },
      "synonyms": {
        "original_name": "Synonyms",
        "value": "3-(4,5-Dimethylthiazolyl)-2,5-diphenyltetrazolium bromide; 3-(4,5-Dimethylthiazolyl-2)-2,5-diphenyltetrazolium bromide; MMT Tetrazolium; MTT (VAN); Methylthiazoletetrazolium; Thiazolyl Blue Monotetrazolium; Thiazolyl Blue Monotetrazolium (VAN); Thiazolyl blue tetrazolium bromide; 2-(4,5-Dimethyl-2-thiazolyl)-3,5-diphenyl-2H-tetrazolium bromide; 2H-Tetrazolium, 2-(4,5-dimethyl-2-thiazolyl)-3,5-diphenyl-, bromide; [ChemIDplus]",
        "links": [],
        "cross_references": [
          {
            "type": "name_match",
            "text": "thiazolyl blue",
            "confidence": 1.0,
            "uuid": "38a6111f-5577-4acf-9565-49a948593568",
            "name": "Thiazolyl blue",
            "url": "https://haz-map.com/Agents/6146",
            "category": "agents"
          },
          {
            "type": "name_match",
            "text": "thiazole",
            "confidence": 1.0,
            "uuid": "239903f2-a226-4a4b-bc83-285f21b9610c",
            "name": "Thiazole",
            "url": "https://haz-map.com/Agents/17380",
            "category": "agents"
          }
        ]
      },
      "category": {
        "original_name": "Category",
        "value": "Azo Dyes",
        "links": [],
        "cross_references": []
      },
      "description": {
        "original_name": "Description",
        "value": "Yellow solid; [HSDB] Yellow crystalline solid; [MSDSonline]",
        "links": [],
        "cross_references": [
          {
            "type": "fuzzy_match",
            "text": "crystalline",
            "matched_name": "Silica, crystalline",
            "confidence": 0.7061403508771931,
            "uuid": "f920e8a2-46df-41b7-af8d-0368a777251e",
            "category": "agents",
            "url": "https://haz-map.com/Agents/427"
          }
        ]
      },
      "sourcesuses": {
        "original_name": "Sources/Uses",
        "value": "Used in biological assays; [HSBD]",
        "links": [],
        "cross_references": []
      },
      "comments": {
        "original_name": "Comments",
        "value": "An irritant; [MSDSonline]",
        "links": [],
        "cross_references": []
      },
      "biomedical_references": {
        "original_name": "Biomedical References",
        "value": "Search PubMed",
        "links": [
          {
            "text": "Search PubMed",
            "url": "https://www.ncbi.nlm.nih.gov/pubmed?term=Thiazolyl+blue%20AND%20human%5Bmh%5D%20AND%20%28Occupational%20Diseases%20%5Bmh%5D%20OR%20Occupational%20Exposure%20%5Bmh%5D%29%20%20AND%20%28tox%5Bsb%5D%29&cmd=search"
          }
        ],
        "cross_references": []
      }
    },
    "exposure_assessment": {
      "vapor_pressure": {
        "original_name": "Vapor Pressure",
        "value": "5.11E-11 mm Hg",
        "links": [],
        "cross_references": []
      }
    },
    "diseases_processes_and_activities_linked_to_this_agent": {
      "other_information": {
        "original_name": "Other Information",
        "value": "No other related information on this agent was found.",
        "links": [],
        "cross_references": []
      }
    }
  },
  "cross_references": [
    {
      "type": "name_match",
      "text": "thiazolyl blue",
      "confidence": 1.0,
      "uuid": "38a6111f-5577-4acf-9565-49a948593568",
      "name": "Thiazolyl blue",
      "url": "https://haz-map.com/Agents/6146",
      "category": "agents"
    },
    {
      "type": "name_match",
      "text": "thiazole",
      "confidence": 1.0,
      "uuid": "239903f2-a226-4a4b-bc83-285f21b9610c",
      "name": "Thiazole",
      "url": "https://haz-map.com/Agents/17380",
      "category": "agents"
    },
    {
      "type": "fuzzy_match",
      "text": "crystalline",
      "matched_name": "Silica, crystalline",
      "confidence": 0.7061403508771931,
      "uuid": "f920e8a2-46df-41b7-af8d-0368a777251e",
      "category": "agents",
      "url": "https://haz-map.com/Agents/427"
    }
  ],
  "all_links": [
    {
      "text": "Search PubMed",
      "url": "https://www.ncbi.nlm.nih.gov/pubmed?term=Thiazolyl+blue%20AND%20human%5Bmh%5D%20AND%20%28Occupational%20Diseases%20%5Bmh%5D%20OR%20Occupational%20Exposure%20%5Bmh%5D%29%20%20AND%20%28tox%5Bsb%5D%29&cmd=search"
    }
  ]
}