{
  "metadata": {
    "scraped_from": "https://haz-map.com/Agents/18087",
    "entity_name": "trans-1,3-Dimethylcyclopentane",
    "category": "agents",
    "uuid": "38ed0623-951d-46bc-b3d5-0e4a94b9cb1f",
    "scraped_at": "2025-07-23T21:52:31.806549"
  },
  "parsed_at": "2025-07-24T00:57:23.210286",
  "title": "trans-1,3-Dimethylcyclopentane",
  "sections": {
    "general": {
      "agent_name": {
        "original_name": "Agent Name",
        "value": "trans-1,3-Dimethylcyclopentane",
        "links": [],
        "cross_references": [
          {
            "type": "name_match",
            "text": "cyclopentane",
            "confidence": 1.0,
            "uuid": "6480e7e3-674a-4296-afdc-a9ce8b2f2850",
            "name": "Cyclopentane",
            "url": "https://haz-map.com/Agents/387",
            "category": "agents"
          },
          {
            "type": "name_match",
            "text": "1,3-dimethylcyclopentane",
            "confidence": 1.0,
            "uuid": "a218f225-08e1-4355-adcc-b1ef31022a6a",
            "name": "1,3-Dimethylcyclopentane",
            "url": "https://haz-map.com/Agents/7911",
            "category": "agents"
          },
          {
            "type": "name_match",
            "text": "methylcyclopentane",
            "confidence": 1.0,
            "uuid": "5ff95a8e-db75-42d1-b99b-2e187bc2553a",
            "name": "Methylcyclopentane",
            "url": "https://haz-map.com/Agents/8262",
            "category": "agents"
          },
          {
            "type": "name_match",
            "text": "ethylcyclopentane",
            "confidence": 1.0,
            "uuid": "358f9ebf-de12-481a-80a5-9cbc12e2d4d5",
            "name": "Ethylcyclopentane",
            "url": "https://haz-map.com/Agents/13510",
            "category": "agents"
          },
          {
            "type": "name_match",
            "text": "trans-1,3-dimethylcyclopentane",
            "confidence": 1.0,
            "uuid": "38ed0623-951d-46bc-b3d5-0e4a94b9cb1f",
            "name": "trans-1,3-Dimethylcyclopentane",
            "url": "https://haz-map.com/Agents/18087",
            "category": "agents"
          },
          {
            "type": "fuzzy_match",
            "text": "3-dimethylcyclopentane",
            "matched_name": "cis-1,3-Dimethylcyclopentane",
            "confidence": 0.8095238095238095,
            "uuid": "dddd6b23-a5c9-416b-b5f8-6a990c4274ee",
            "category": "agents",
            "url": "https://haz-map.com/Agents/13497"
          }
        ]
      },
      "cas_number": {
        "original_name": "CAS Number",
        "value": "1759-58-6",
        "links": [],
        "cross_references": []
      },
      "formula": {
        "original_name": "Formula",
        "value": "C7-H14",
        "links": [],
        "cross_references": []
      },
      "major_category": {
        "original_name": "Major Category",
        "value": "Solvents",
        "links": [],
        "cross_references": []
      },
      "synonyms": {
        "original_name": "Synonyms",
        "value": "1,trans-3-Dimethylcyclopentane; Cyclopentane, 1,3-Dimethyl-, (E)-; Cyclopentane, 1,3-dimethyl-, trans- (8CI)(9CI); [ChemIDplus] UN3295",
        "links": [],
        "cross_references": [
          {
            "type": "name_match",
            "text": "cyclopentane",
            "confidence": 1.0,
            "uuid": "6480e7e3-674a-4296-afdc-a9ce8b2f2850",
            "name": "Cyclopentane",
            "url": "https://haz-map.com/Agents/387",
            "category": "agents"
          },
          {
            "type": "name_match",
            "text": "methylcyclopentane",
            "confidence": 1.0,
            "uuid": "5ff95a8e-db75-42d1-b99b-2e187bc2553a",
            "name": "Methylcyclopentane",
            "url": "https://haz-map.com/Agents/8262",
            "category": "agents"
          },
          {
            "type": "name_match",
            "text": "ethylcyclopentane",
            "confidence": 1.0,
            "uuid": "358f9ebf-de12-481a-80a5-9cbc12e2d4d5",
            "name": "Ethylcyclopentane",
            "url": "https://haz-map.com/Agents/13510",
            "category": "agents"
          },
          {
            "type": "fuzzy_match",
            "text": "3-dimethylcyclopentane",
            "matched_name": "1,3-Dimethylcyclopentane",
            "confidence": 0.8995098039215685,
            "uuid": "a218f225-08e1-4355-adcc-b1ef31022a6a",
            "category": "agents",
            "url": "https://haz-map.com/Agents/7911"
          },
          {
            "type": "fuzzy_match",
            "text": "3-dimethylcyclopentane",
            "matched_name": "cis-1,3-Dimethylcyclopentane",
            "confidence": 0.8095238095238095,
            "uuid": "dddd6b23-a5c9-416b-b5f8-6a990c4274ee",
            "category": "agents",
            "url": "https://haz-map.com/Agents/13497"
          },
          {
            "type": "fuzzy_match",
            "text": "3-dimethylcyclopentane",
            "matched_name": "trans-1,3-Dimethylcyclopentane",
            "confidence": 0.7614035087719297,
            "uuid": "38ed0623-951d-46bc-b3d5-0e4a94b9cb1f",
            "category": "agents",
            "url": "https://haz-map.com/Agents/18087"
          }
        ]
      },
      "category": {
        "original_name": "Category",
        "value": "Aliphatics, Saturated (<C12)",
        "links": [],
        "cross_references": []
      },
      "description": {
        "original_name": "Description",
        "value": "Liquid; [Sigma-Aldrich MSDS]",
        "links": [],
        "cross_references": []
      },
      "comments": {
        "original_name": "Comments",
        "value": "An irritant; Inhalation may cause drowsiness and dizziness; An aspiration hazard by ingestion (may cause lung injury); May cause allergic reactions in sensitive individuals; Harmful by ingestion; [Sigma-Aldrich MSDS] Search for (1759-58-6[EC/RN Number]) AND (allergic OR sensitizer OR sensitization OR dermatitis): no results; [PubMed] See \"cis-1,3-Dimethylcyclopentane.\"",
        "links": [],
        "cross_references": [
          {
            "type": "name_match",
            "text": "dizziness",
            "confidence": 1.0,
            "uuid": "4b0e6043-b228-49de-996c-b42ec8b3780e",
            "name": "dizziness",
            "url": "https://haz-map.com/Findings/16",
            "category": "findings"
          },
          {
            "type": "name_match",
            "text": "dermatitis",
            "confidence": 1.0,
            "uuid": "fe9c05f2-b19f-4ceb-ac7a-ffb7d7a0cae0",
            "name": "dermatitis",
            "url": "https://haz-map.com/Findings/59",
            "category": "findings"
          },
          {
            "type": "name_match",
            "text": "cyclopentane",
            "confidence": 1.0,
            "uuid": "6480e7e3-674a-4296-afdc-a9ce8b2f2850",
            "name": "Cyclopentane",
            "url": "https://haz-map.com/Agents/387",
            "category": "agents"
          },
          {
            "type": "name_match",
            "text": "1,3-dimethylcyclopentane",
            "confidence": 1.0,
            "uuid": "a218f225-08e1-4355-adcc-b1ef31022a6a",
            "name": "1,3-Dimethylcyclopentane",
            "url": "https://haz-map.com/Agents/7911",
            "category": "agents"
          },
          {
            "type": "name_match",
            "text": "methylcyclopentane",
            "confidence": 1.0,
            "uuid": "5ff95a8e-db75-42d1-b99b-2e187bc2553a",
            "name": "Methylcyclopentane",
            "url": "https://haz-map.com/Agents/8262",
            "category": "agents"
          },
          {
            "type": "name_match",
            "text": "cis-1,3-dimethylcyclopentane",
            "confidence": 1.0,
            "uuid": "dddd6b23-a5c9-416b-b5f8-6a990c4274ee",
            "name": "cis-1,3-Dimethylcyclopentane",
            "url": "https://haz-map.com/Agents/13497",
            "category": "agents"
          },
          {
            "type": "name_match",
            "text": "ethylcyclopentane",
            "confidence": 1.0,
            "uuid": "358f9ebf-de12-481a-80a5-9cbc12e2d4d5",
            "name": "Ethylcyclopentane",
            "url": "https://haz-map.com/Agents/13510",
            "category": "agents"
          },
          {
            "type": "fuzzy_match",
            "text": "3-dimethylcyclopentane",
            "matched_name": "trans-1,3-Dimethylcyclopentane",
            "confidence": 0.7614035087719297,
            "uuid": "38ed0623-951d-46bc-b3d5-0e4a94b9cb1f",
            "category": "agents",
            "url": "https://haz-map.com/Agents/18087"
          }
        ]
      },
      "biomedical_references": {
        "original_name": "Biomedical References",
        "value": "Search PubMed",
        "links": [
          {
            "text": "Search PubMed",
            "url": "https://www.ncbi.nlm.nih.gov/pubmed?term=trans-1%2c3-Dimethylcyclopentane%20AND%20human%5Bmh%5D%20AND%20%28Occupational%20Diseases%20%5Bmh%5D%20OR%20Occupational%20Exposure%20%5Bmh%5D%29%20%20AND%20%28tox%5Bsb%5D%29&cmd=search"
          }
        ],
        "cross_references": []
      }
    },
    "exposure_assessment": {
      "vapor_pressure": {
        "original_name": "Vapor Pressure",
        "value": "65.8 mm Hg",
        "links": [],
        "cross_references": []
      },
      "explanatory_notes": {
        "original_name": "Explanatory Notes",
        "value": "The Guide in the Emergency Response Guidebook is for \"Hydrocarbons, liquid, n.o.s.\"",
        "links": [],
        "cross_references": [
          {
            "type": "name_match",
            "text": "carbon",
            "confidence": 1.0,
            "uuid": "b53f8815-ee80-40ef-b4aa-3b000e17dab5",
            "name": "Carbon",
            "url": "https://haz-map.com/Agents/1891",
            "category": "agents"
          },
          {
            "type": "fuzzy_match",
            "text": "hydrocarbons",
            "matched_name": "Hydrocarbons, C>3",
            "confidence": 0.7100840336134454,
            "uuid": "8eaa37ac-3931-44e4-9242-2734127fd661",
            "category": "agents",
            "url": "https://haz-map.com/Agents/14795"
          }
        ]
      }
    },
    "adverse_effects": {
      "neurotoxin": {
        "original_name": "Neurotoxin",
        "value": "Acute solvent syndrome",
        "links": [],
        "cross_references": []
      }
    },
    "diseases_processes_and_activities_linked_to_this_agent": {
      "diseases": {
        "original_name": "Diseases",
        "value": "Occupational diseases associated with exposure to this agent: Solvents, acute toxic effect",
        "links": [
          {
            "text": "Solvents, acute toxic effect",
            "url": "https://haz-map.com/Diseases/326"
          }
        ],
        "cross_references": [
          {
            "type": "url_match",
            "text": "Solvents, acute toxic effect",
            "url": "https://haz-map.com/Diseases/326",
            "confidence": 1.0,
            "uuid": "581e90e3-9d0c-45f0-aa6c-3468c28da129",
            "name": "Solvents, acute toxic effect",
            "category": "diseases"
          }
        ]
      }
    }
  },
  "cross_references": [
    {
      "type": "url_match",
      "text": "Solvents, acute toxic effect",
      "url": "https://haz-map.com/Diseases/326",
      "confidence": 1.0,
      "uuid": "581e90e3-9d0c-45f0-aa6c-3468c28da129",
      "name": "Solvents, acute toxic effect",
      "category": "diseases"
    },
    {
      "type": "name_match",
      "text": "dizziness",
      "confidence": 1.0,
      "uuid": "4b0e6043-b228-49de-996c-b42ec8b3780e",
      "name": "dizziness",
      "url": "https://haz-map.com/Findings/16",
      "category": "findings"
    },
    {
      "type": "name_match",
      "text": "dermatitis",
      "confidence": 1.0,
      "uuid": "fe9c05f2-b19f-4ceb-ac7a-ffb7d7a0cae0",
      "name": "dermatitis",
      "url": "https://haz-map.com/Findings/59",
      "category": "findings"
    },
    {
      "type": "name_match",
      "text": "cyclopentane",
      "confidence": 1.0,
      "uuid": "6480e7e3-674a-4296-afdc-a9ce8b2f2850",
      "name": "Cyclopentane",
      "url": "https://haz-map.com/Agents/387",
      "category": "agents"
    },
    {
      "type": "name_match",
      "text": "carbon",
      "confidence": 1.0,
      "uuid": "b53f8815-ee80-40ef-b4aa-3b000e17dab5",
      "name": "Carbon",
      "url": "https://haz-map.com/Agents/1891",
      "category": "agents"
    },
    {
      "type": "name_match",
      "text": "1,3-dimethylcyclopentane",
      "confidence": 1.0,
      "uuid": "a218f225-08e1-4355-adcc-b1ef31022a6a",
      "name": "1,3-Dimethylcyclopentane",
      "url": "https://haz-map.com/Agents/7911",
      "category": "agents"
    },
    {
      "type": "name_match",
      "text": "methylcyclopentane",
      "confidence": 1.0,
      "uuid": "5ff95a8e-db75-42d1-b99b-2e187bc2553a",
      "name": "Methylcyclopentane",
      "url": "https://haz-map.com/Agents/8262",
      "category": "agents"
    },
    {
      "type": "name_match",
      "text": "cis-1,3-dimethylcyclopentane",
      "confidence": 1.0,
      "uuid": "dddd6b23-a5c9-416b-b5f8-6a990c4274ee",
      "name": "cis-1,3-Dimethylcyclopentane",
      "url": "https://haz-map.com/Agents/13497",
      "category": "agents"
    },
    {
      "type": "name_match",
      "text": "ethylcyclopentane",
      "confidence": 1.0,
      "uuid": "358f9ebf-de12-481a-80a5-9cbc12e2d4d5",
      "name": "Ethylcyclopentane",
      "url": "https://haz-map.com/Agents/13510",
      "category": "agents"
    },
    {
      "type": "name_match",
      "text": "trans-1,3-dimethylcyclopentane",
      "confidence": 1.0,
      "uuid": "38ed0623-951d-46bc-b3d5-0e4a94b9cb1f",
      "name": "trans-1,3-Dimethylcyclopentane",
      "url": "https://haz-map.com/Agents/18087",
      "category": "agents"
    },
    {
      "type": "fuzzy_match",
      "text": "hydrocarbons",
      "matched_name": "Hydrocarbons, C>3",
      "confidence": 0.7100840336134454,
      "uuid": "8eaa37ac-3931-44e4-9242-2734127fd661",
      "category": "agents",
      "url": "https://haz-map.com/Agents/14795"
    }
  ],
  "all_links": [
    {
      "text": "Search PubMed",
      "url": "https://www.ncbi.nlm.nih.gov/pubmed?term=trans-1%2c3-Dimethylcyclopentane%20AND%20human%5Bmh%5D%20AND%20%28Occupational%20Diseases%20%5Bmh%5D%20OR%20Occupational%20Exposure%20%5Bmh%5D%29%20%20AND%20%28tox%5Bsb%5D%29&cmd=search"
    },
    {
      "text": "Solvents, acute toxic effect",
      "url": "https://haz-map.com/Diseases/326"
    }
  ]
}