{
  "metadata": {
    "scraped_from": "https://haz-map.com/Agents/8268",
    "entity_name": "sec-Butylbenzene",
    "category": "agents",
    "uuid": "3960201b-b018-4bda-adcf-d608fbc14068",
    "scraped_at": "2025-07-23T20:24:21.401713"
  },
  "parsed_at": "2025-07-24T01:07:43.068516",
  "title": "sec-Butylbenzene",
  "sections": {
    "general": {
      "agent_name": {
        "original_name": "Agent Name",
        "value": "sec-Butylbenzene",
        "links": [],
        "cross_references": [
          {
            "type": "name_match",
            "text": "benzene",
            "confidence": 1.0,
            "uuid": "b05124de-5f34-4c14-8f04-ccb20c3780d9",
            "name": "Benzene",
            "url": "https://haz-map.com/Agents/5",
            "category": "agents"
          },
          {
            "type": "name_match",
            "text": "sec-butylbenzene",
            "confidence": 1.0,
            "uuid": "3960201b-b018-4bda-adcf-d608fbc14068",
            "name": "sec-Butylbenzene",
            "url": "https://haz-map.com/Agents/8268",
            "category": "agents"
          }
        ]
      },
      "cas_number": {
        "original_name": "CAS Number",
        "value": "135-98-8",
        "links": [],
        "cross_references": []
      },
      "formula": {
        "original_name": "Formula",
        "value": "C10-H14",
        "links": [],
        "cross_references": []
      },
      "major_category": {
        "original_name": "Major Category",
        "value": "Solvents",
        "links": [],
        "cross_references": []
      },
      "synonyms": {
        "original_name": "Synonyms",
        "value": "(1-Methylpropyl)benzene; 2-Phenylbutane; Secondary butylbenzene; Benzene, (1-methylpropyl)-; Benzene, sec-butyl-; [ChemIDplus] UN2709",
        "links": [],
        "cross_references": [
          {
            "type": "name_match",
            "text": "benzene",
            "confidence": 1.0,
            "uuid": "b05124de-5f34-4c14-8f04-ccb20c3780d9",
            "name": "Benzene",
            "url": "https://haz-map.com/Agents/5",
            "category": "agents"
          }
        ]
      },
      "category": {
        "original_name": "Category",
        "value": "Aromatic Solvents",
        "links": [],
        "cross_references": []
      },
      "description": {
        "original_name": "Description",
        "value": "Colorless liquid; [Hawley]",
        "links": [],
        "cross_references": []
      },
      "sourcesuses": {
        "original_name": "Sources/Uses",
        "value": "Used as an intermediate, a plasticizer, and a solvent for coatings; [Hawley]",
        "links": [],
        "cross_references": []
      },
      "comments": {
        "original_name": "Comments",
        "value": "An irritant; [MSDSonline]",
        "links": [],
        "cross_references": []
      },
      "biomedical_references": {
        "original_name": "Biomedical References",
        "value": "Search PubMed",
        "links": [
          {
            "text": "Search PubMed",
            "url": "https://www.ncbi.nlm.nih.gov/pubmed?term=sec-Butylbenzene%20AND%20human%5Bmh%5D%20AND%20%28Occupational%20Diseases%20%5Bmh%5D%20OR%20Occupational%20Exposure%20%5Bmh%5D%29%20%20AND%20%28tox%5Bsb%5D%29&cmd=search"
          }
        ],
        "cross_references": []
      }
    },
    "exposure_assessment": {
      "vapor_pressure": {
        "original_name": "Vapor Pressure",
        "value": "1.75 mm Hg",
        "links": [],
        "cross_references": []
      },
      "explanatory_notes": {
        "original_name": "Explanatory Notes",
        "value": "The Guide in the Emergency Response Guidebook is for \"Butylbenzenes.\" VP from ChemIDplus;",
        "links": [],
        "cross_references": [
          {
            "type": "name_match",
            "text": "benzene",
            "confidence": 1.0,
            "uuid": "b05124de-5f34-4c14-8f04-ccb20c3780d9",
            "name": "Benzene",
            "url": "https://haz-map.com/Agents/5",
            "category": "agents"
          }
        ]
      },
      "nfpa": {
        "original_name": "NFPA",
        "value": "high ambient temp required",
        "links": [],
        "cross_references": []
      }
    },
    "adverse_effects": {
      "neurotoxin": {
        "original_name": "Neurotoxin",
        "value": "Acute solvent syndrome",
        "links": [],
        "cross_references": []
      }
    },
    "diseases_processes_and_activities_linked_to_this_agent": {
      "diseases": {
        "original_name": "Diseases",
        "value": "Occupational diseases associated with exposure to this agent: Encephalopathy, chronic solvent Solvents, acute toxic effect",
        "links": [
          {
            "text": "Encephalopathy, chronic solvent",
            "url": "https://haz-map.com/Diseases/325"
          },
          {
            "text": "Solvents, acute toxic effect",
            "url": "https://haz-map.com/Diseases/326"
          }
        ],
        "cross_references": [
          {
            "type": "url_match",
            "text": "Encephalopathy, chronic solvent",
            "url": "https://haz-map.com/Diseases/325",
            "confidence": 1.0,
            "uuid": "589ad578-4636-444e-8823-bf2dd0c7aeab",
            "name": "Encephalopathy, chronic solvent",
            "category": "diseases"
          },
          {
            "type": "url_match",
            "text": "Solvents, acute toxic effect",
            "url": "https://haz-map.com/Diseases/326",
            "confidence": 1.0,
            "uuid": "581e90e3-9d0c-45f0-aa6c-3468c28da129",
            "name": "Solvents, acute toxic effect",
            "category": "diseases"
          }
        ]
      },
      "processes": {
        "original_name": "Processes",
        "value": "Industrial Processes with risk of exposure: Painting (Solvents)",
        "links": [
          {
            "text": "Painting (Solvents)",
            "url": "https://haz-map.com/Processes/142"
          }
        ],
        "cross_references": [
          {
            "type": "url_match",
            "text": "Painting (Solvents)",
            "url": "https://haz-map.com/Processes/142",
            "confidence": 1.0,
            "uuid": "ca747481-4da1-4550-a546-f0d43a41b46c",
            "name": "Painting (Solvents)",
            "category": "processes"
          },
          {
            "type": "name_match",
            "text": "painting",
            "confidence": 1.0,
            "uuid": "19816ce9-9edf-4a86-8e64-b0cbf7dcf520",
            "name": "Painting",
            "url": "https://haz-map.com/Activities/9",
            "category": "activities"
          }
        ]
      }
    }
  },
  "cross_references": [
    {
      "type": "url_match",
      "text": "Encephalopathy, chronic solvent",
      "url": "https://haz-map.com/Diseases/325",
      "confidence": 1.0,
      "uuid": "589ad578-4636-444e-8823-bf2dd0c7aeab",
      "name": "Encephalopathy, chronic solvent",
      "category": "diseases"
    },
    {
      "type": "url_match",
      "text": "Solvents, acute toxic effect",
      "url": "https://haz-map.com/Diseases/326",
      "confidence": 1.0,
      "uuid": "581e90e3-9d0c-45f0-aa6c-3468c28da129",
      "name": "Solvents, acute toxic effect",
      "category": "diseases"
    },
    {
      "type": "url_match",
      "text": "Painting (Solvents)",
      "url": "https://haz-map.com/Processes/142",
      "confidence": 1.0,
      "uuid": "ca747481-4da1-4550-a546-f0d43a41b46c",
      "name": "Painting (Solvents)",
      "category": "processes"
    },
    {
      "type": "name_match",
      "text": "painting",
      "confidence": 1.0,
      "uuid": "19816ce9-9edf-4a86-8e64-b0cbf7dcf520",
      "name": "Painting",
      "url": "https://haz-map.com/Activities/9",
      "category": "activities"
    },
    {
      "type": "name_match",
      "text": "benzene",
      "confidence": 1.0,
      "uuid": "b05124de-5f34-4c14-8f04-ccb20c3780d9",
      "name": "Benzene",
      "url": "https://haz-map.com/Agents/5",
      "category": "agents"
    },
    {
      "type": "name_match",
      "text": "sec-butylbenzene",
      "confidence": 1.0,
      "uuid": "3960201b-b018-4bda-adcf-d608fbc14068",
      "name": "sec-Butylbenzene",
      "url": "https://haz-map.com/Agents/8268",
      "category": "agents"
    }
  ],
  "all_links": [
    {
      "text": "Search PubMed",
      "url": "https://www.ncbi.nlm.nih.gov/pubmed?term=sec-Butylbenzene%20AND%20human%5Bmh%5D%20AND%20%28Occupational%20Diseases%20%5Bmh%5D%20OR%20Occupational%20Exposure%20%5Bmh%5D%29%20%20AND%20%28tox%5Bsb%5D%29&cmd=search"
    },
    {
      "text": "Encephalopathy, chronic solvent",
      "url": "https://haz-map.com/Diseases/325"
    },
    {
      "text": "Solvents, acute toxic effect",
      "url": "https://haz-map.com/Diseases/326"
    },
    {
      "text": "Painting (Solvents)",
      "url": "https://haz-map.com/Processes/142"
    }
  ]
}