{
  "metadata": {
    "scraped_from": "https://haz-map.com/Agents/3840",
    "entity_name": "Benzenesulfonic acid",
    "category": "agents",
    "uuid": "39630619-7b3f-4266-b4e1-e41deb2f24e6",
    "scraped_at": "2025-07-23T19:33:41.386641"
  },
  "parsed_at": "2025-07-24T01:16:02.013282",
  "title": "Benzenesulfonic acid",
  "sections": {
    "general": {
      "agent_name": {
        "original_name": "Agent Name",
        "value": "Benzenesulfonic acid",
        "links": [],
        "cross_references": [
          {
            "type": "name_match",
            "text": "benzene",
            "confidence": 1.0,
            "uuid": "b05124de-5f34-4c14-8f04-ccb20c3780d9",
            "name": "Benzene",
            "url": "https://haz-map.com/Agents/5",
            "category": "agents"
          },
          {
            "type": "name_match",
            "text": "benzenesulfonic acid",
            "confidence": 1.0,
            "uuid": "39630619-7b3f-4266-b4e1-e41deb2f24e6",
            "name": "Benzenesulfonic acid",
            "url": "https://haz-map.com/Agents/3840",
            "category": "agents"
          }
        ]
      },
      "cas_number": {
        "original_name": "CAS Number",
        "value": "98-11-3",
        "links": [],
        "cross_references": []
      },
      "formula": {
        "original_name": "Formula",
        "value": "C6-H6-O3-S",
        "links": [],
        "cross_references": []
      },
      "major_category": {
        "original_name": "Major Category",
        "value": "Other Classes",
        "links": [],
        "cross_references": []
      },
      "synonyms": {
        "original_name": "Synonyms",
        "value": "17-120A; Benzene sulphonic acid; Benzenemonosulfonic acid; Besylic acid; Kyselina benzensulfonova [Czech]; Phenylsulfonic acid; [ChemIDplus] UN2585",
        "links": [],
        "cross_references": [
          {
            "type": "name_match",
            "text": "benzene",
            "confidence": 1.0,
            "uuid": "b05124de-5f34-4c14-8f04-ccb20c3780d9",
            "name": "Benzene",
            "url": "https://haz-map.com/Agents/5",
            "category": "agents"
          },
          {
            "type": "name_match",
            "text": "bes",
            "confidence": 1.0,
            "uuid": "3074c0ff-c637-46e9-9a00-5b14f02c2d53",
            "name": "BES",
            "url": "https://haz-map.com/Agents/15755",
            "category": "agents"
          }
        ]
      },
      "category": {
        "original_name": "Category",
        "value": "Benzenesulfonic Acid Derivatives",
        "links": [],
        "cross_references": [
          {
            "type": "name_match",
            "text": "benzene",
            "confidence": 1.0,
            "uuid": "b05124de-5f34-4c14-8f04-ccb20c3780d9",
            "name": "Benzene",
            "url": "https://haz-map.com/Agents/5",
            "category": "agents"
          },
          {
            "type": "name_match",
            "text": "benzenesulfonic acid",
            "confidence": 1.0,
            "uuid": "39630619-7b3f-4266-b4e1-e41deb2f24e6",
            "name": "Benzenesulfonic acid",
            "url": "https://haz-map.com/Agents/3840",
            "category": "agents"
          }
        ]
      },
      "description": {
        "original_name": "Description",
        "value": "Soluble in water; [ChemIDplus] Light brown deliquescent solid; [CHEMINFO] Grey to yellow hygroscopic solid; [ICSC]",
        "links": [],
        "cross_references": [
          {
            "type": "name_match",
            "text": "ht",
            "confidence": 1.0,
            "uuid": "764df367-8d53-4a11-81a2-31ccfe122a8d",
            "name": "HT",
            "url": "https://haz-map.com/Agents/2168",
            "category": "agents"
          },
          {
            "type": "name_match",
            "text": "water",
            "confidence": 1.0,
            "uuid": "6f2a7557-dfd2-49bc-9b4b-a93cd8e225d4",
            "name": "Water",
            "url": "https://haz-map.com/Agents/18668",
            "category": "agents"
          }
        ]
      },
      "sourcesuses": {
        "original_name": "Sources/Uses",
        "value": "Used as a chemical intermediate and a catalyst in the manufacturing of alkyd resins, phenol-formaldehyde resins, and in the polymerization of diolefins; [HSDB] Used as an acid catalyst in the foundry industry; [Reference #1]",
        "links": [],
        "cross_references": [
          {
            "type": "name_match",
            "text": "phenol",
            "confidence": 1.0,
            "uuid": "03141a03-a7df-4f51-9a37-adde1a7c4b31",
            "name": "Phenol",
            "url": "https://haz-map.com/Agents/84",
            "category": "agents"
          },
          {
            "type": "name_match",
            "text": "formaldehyde",
            "confidence": 1.0,
            "uuid": "272252b9-c18e-43df-b652-787210f00a3e",
            "name": "Formaldehyde",
            "url": "https://haz-map.com/Agents/271",
            "category": "agents"
          },
          {
            "type": "name_match",
            "text": "mica",
            "confidence": 1.0,
            "uuid": "433f26f1-c399-4596-b179-ce3843cfd465",
            "name": "Mica",
            "url": "https://haz-map.com/Agents/621",
            "category": "agents"
          },
          {
            "type": "name_match",
            "text": "phenol-formaldehyde resin",
            "confidence": 1.0,
            "uuid": "6247cfc9-2186-40b9-b5a3-7e9a54c4addf",
            "name": "Phenol-formaldehyde resin",
            "url": "https://haz-map.com/Agents/1014",
            "category": "agents"
          },
          {
            "type": "fuzzy_match",
            "text": "formaldehyde resin",
            "matched_name": "Melamine/formaldehyde resin",
            "confidence": 0.8,
            "uuid": "21b82aaa-c2e2-46b2-a4fc-46f42d7d6508",
            "category": "agents",
            "url": "https://haz-map.com/Agents/1012"
          }
        ]
      },
      "comments": {
        "original_name": "Comments",
        "value": "A corrosive substance that can cause injury to the skin, eyes, and respiratory tract; [ICSC] Mild irritant effect to human skin after contact with 0.2% solution; [RTECS] See \"p-Toluenesulfonic acid.\"",
        "links": [],
        "cross_references": [
          {
            "type": "name_match",
            "text": "toluene",
            "confidence": 1.0,
            "uuid": "0a34d5de-e924-4c47-aff5-7ae8e48c6772",
            "name": "Toluene",
            "url": "https://haz-map.com/Agents/83",
            "category": "agents"
          },
          {
            "type": "name_match",
            "text": "p-toluenesulfonic acid",
            "confidence": 1.0,
            "uuid": "73910ba5-8b9c-432a-9bf4-c9ecc9b66ee8",
            "name": "p-Toluenesulfonic acid",
            "url": "https://haz-map.com/Agents/1435",
            "category": "agents"
          }
        ]
      },
      "biomedical_references": {
        "original_name": "Biomedical References",
        "value": "Search PubMed",
        "links": [
          {
            "text": "Search PubMed",
            "url": "https://www.ncbi.nlm.nih.gov/pubmed?term=Benzenesulfonic+acid%20AND%20human%5Bmh%5D%20AND%20%28Occupational%20Diseases%20%5Bmh%5D%20OR%20Occupational%20Exposure%20%5Bmh%5D%29%20%20AND%20%28tox%5Bsb%5D%29&cmd=search"
          }
        ],
        "cross_references": []
      }
    },
    "exposure_assessment": {
      "vapor_pressure": {
        "original_name": "Vapor Pressure",
        "value": "2.36E-05 mm Hg",
        "links": [],
        "cross_references": []
      },
      "explanatory_notes": {
        "original_name": "Explanatory Notes",
        "value": "Flash point = 113 deg C; mp = 51 deg C; bp = 190 deg C; [ICSC] mp = 45-50 deg C; [MSDSonline]",
        "links": [],
        "cross_references": [
          {
            "type": "name_match",
            "text": "ash",
            "confidence": 1.0,
            "uuid": "68b360f1-5ad0-4337-bea0-d7adca2961b5",
            "name": "Ash",
            "url": "https://haz-map.com/Agents/965",
            "category": "agents"
          }
        ]
      }
    },
    "adverse_effects": {
      "toxic_pneumonitis": {
        "original_name": "Toxic Pneumonitis",
        "value": "Yes",
        "links": [],
        "cross_references": []
      },
      "dermatotoxin": {
        "original_name": "Dermatotoxin",
        "value": "Skin burns",
        "links": [],
        "cross_references": [
          {
            "type": "name_match",
            "text": "burn",
            "confidence": 1.0,
            "uuid": "63665de5-6376-4918-8dbf-4c10c4d63837",
            "name": "burn",
            "url": "https://haz-map.com/Findings/204",
            "category": "findings"
          }
        ]
      }
    },
    "diseases_processes_and_activities_linked_to_this_agent": {
      "processes": {
        "original_name": "Processes",
        "value": "Industrial Processes with risk of exposure: Molding and Core Making Plastic Composites Manufacturing",
        "links": [
          {
            "text": "Molding and Core Making",
            "url": "https://haz-map.com/Processes/22"
          },
          {
            "text": "Plastic Composites Manufacturing",
            "url": "https://haz-map.com/Processes/222"
          }
        ],
        "cross_references": [
          {
            "type": "url_match",
            "text": "Molding and Core Making",
            "url": "https://haz-map.com/Processes/22",
            "confidence": 1.0,
            "uuid": "bacf6365-dcf3-4976-b887-a3a0e3fd8345",
            "name": "Molding and Core Making",
            "category": "processes"
          },
          {
            "type": "url_match",
            "text": "Plastic Composites Manufacturing",
            "url": "https://haz-map.com/Processes/222",
            "confidence": 1.0,
            "uuid": "d4461b82-dc77-4172-8e3d-0a5e3b213911",
            "name": "Plastic Composites Manufacturing",
            "category": "processes"
          }
        ]
      }
    }
  },
  "cross_references": [
    {
      "type": "url_match",
      "text": "Molding and Core Making",
      "url": "https://haz-map.com/Processes/22",
      "confidence": 1.0,
      "uuid": "bacf6365-dcf3-4976-b887-a3a0e3fd8345",
      "name": "Molding and Core Making",
      "category": "processes"
    },
    {
      "type": "url_match",
      "text": "Plastic Composites Manufacturing",
      "url": "https://haz-map.com/Processes/222",
      "confidence": 1.0,
      "uuid": "d4461b82-dc77-4172-8e3d-0a5e3b213911",
      "name": "Plastic Composites Manufacturing",
      "category": "processes"
    },
    {
      "type": "name_match",
      "text": "burn",
      "confidence": 1.0,
      "uuid": "63665de5-6376-4918-8dbf-4c10c4d63837",
      "name": "burn",
      "url": "https://haz-map.com/Findings/204",
      "category": "findings"
    },
    {
      "type": "name_match",
      "text": "benzene",
      "confidence": 1.0,
      "uuid": "b05124de-5f34-4c14-8f04-ccb20c3780d9",
      "name": "Benzene",
      "url": "https://haz-map.com/Agents/5",
      "category": "agents"
    },
    {
      "type": "name_match",
      "text": "toluene",
      "confidence": 1.0,
      "uuid": "0a34d5de-e924-4c47-aff5-7ae8e48c6772",
      "name": "Toluene",
      "url": "https://haz-map.com/Agents/83",
      "category": "agents"
    },
    {
      "type": "name_match",
      "text": "phenol",
      "confidence": 1.0,
      "uuid": "03141a03-a7df-4f51-9a37-adde1a7c4b31",
      "name": "Phenol",
      "url": "https://haz-map.com/Agents/84",
      "category": "agents"
    },
    {
      "type": "name_match",
      "text": "formaldehyde",
      "confidence": 1.0,
      "uuid": "272252b9-c18e-43df-b652-787210f00a3e",
      "name": "Formaldehyde",
      "url": "https://haz-map.com/Agents/271",
      "category": "agents"
    },
    {
      "type": "name_match",
      "text": "mica",
      "confidence": 1.0,
      "uuid": "433f26f1-c399-4596-b179-ce3843cfd465",
      "name": "Mica",
      "url": "https://haz-map.com/Agents/621",
      "category": "agents"
    },
    {
      "type": "name_match",
      "text": "ash",
      "confidence": 1.0,
      "uuid": "68b360f1-5ad0-4337-bea0-d7adca2961b5",
      "name": "Ash",
      "url": "https://haz-map.com/Agents/965",
      "category": "agents"
    },
    {
      "type": "name_match",
      "text": "phenol-formaldehyde resin",
      "confidence": 1.0,
      "uuid": "6247cfc9-2186-40b9-b5a3-7e9a54c4addf",
      "name": "Phenol-formaldehyde resin",
      "url": "https://haz-map.com/Agents/1014",
      "category": "agents"
    },
    {
      "type": "name_match",
      "text": "p-toluenesulfonic acid",
      "confidence": 1.0,
      "uuid": "73910ba5-8b9c-432a-9bf4-c9ecc9b66ee8",
      "name": "p-Toluenesulfonic acid",
      "url": "https://haz-map.com/Agents/1435",
      "category": "agents"
    },
    {
      "type": "name_match",
      "text": "ht",
      "confidence": 1.0,
      "uuid": "764df367-8d53-4a11-81a2-31ccfe122a8d",
      "name": "HT",
      "url": "https://haz-map.com/Agents/2168",
      "category": "agents"
    },
    {
      "type": "name_match",
      "text": "benzenesulfonic acid",
      "confidence": 1.0,
      "uuid": "39630619-7b3f-4266-b4e1-e41deb2f24e6",
      "name": "Benzenesulfonic acid",
      "url": "https://haz-map.com/Agents/3840",
      "category": "agents"
    },
    {
      "type": "name_match",
      "text": "bes",
      "confidence": 1.0,
      "uuid": "3074c0ff-c637-46e9-9a00-5b14f02c2d53",
      "name": "BES",
      "url": "https://haz-map.com/Agents/15755",
      "category": "agents"
    },
    {
      "type": "name_match",
      "text": "water",
      "confidence": 1.0,
      "uuid": "6f2a7557-dfd2-49bc-9b4b-a93cd8e225d4",
      "name": "Water",
      "url": "https://haz-map.com/Agents/18668",
      "category": "agents"
    },
    {
      "type": "fuzzy_match",
      "text": "formaldehyde resin",
      "matched_name": "Melamine/formaldehyde resin",
      "confidence": 0.8,
      "uuid": "21b82aaa-c2e2-46b2-a4fc-46f42d7d6508",
      "category": "agents",
      "url": "https://haz-map.com/Agents/1012"
    }
  ],
  "all_links": [
    {
      "text": "Search PubMed",
      "url": "https://www.ncbi.nlm.nih.gov/pubmed?term=Benzenesulfonic+acid%20AND%20human%5Bmh%5D%20AND%20%28Occupational%20Diseases%20%5Bmh%5D%20OR%20Occupational%20Exposure%20%5Bmh%5D%29%20%20AND%20%28tox%5Bsb%5D%29&cmd=search"
    },
    {
      "text": "Molding and Core Making",
      "url": "https://haz-map.com/Processes/22"
    },
    {
      "text": "Plastic Composites Manufacturing",
      "url": "https://haz-map.com/Processes/222"
    }
  ]
}