{
  "metadata": {
    "scraped_from": "https://haz-map.com/Agents/5943",
    "entity_name": "Menthol",
    "category": "agents",
    "uuid": "3997b2ab-a5d2-4a7e-a2c6-4a1ad2e57b50",
    "scraped_at": "2025-07-23T19:57:11.123402"
  },
  "parsed_at": "2025-07-24T01:18:56.884451",
  "title": "Menthol",
  "sections": {
    "general": {
      "agent_name": {
        "original_name": "Agent Name",
        "value": "Menthol",
        "links": [],
        "cross_references": [
          {
            "type": "name_match",
            "text": "menthol",
            "confidence": 1.0,
            "uuid": "3997b2ab-a5d2-4a7e-a2c6-4a1ad2e57b50",
            "name": "Menthol",
            "url": "https://haz-map.com/Agents/5943",
            "category": "agents"
          }
        ]
      },
      "cas_number": {
        "original_name": "CAS Number",
        "value": "89-78-1",
        "links": [],
        "cross_references": []
      },
      "formula": {
        "original_name": "Formula",
        "value": "C10-H20-O",
        "links": [],
        "cross_references": []
      },
      "major_category": {
        "original_name": "Major Category",
        "value": "Biological Agents",
        "links": [],
        "cross_references": []
      },
      "synonyms": {
        "original_name": "Synonyms",
        "value": "(1R,2S,5R)-Menthol; 5-Methyl-2-(1-methylethyl)cyclohexanol, (1alpha,2beta,5alpha)-; Headache crystals; Hexahydrothymol; Menthacamphor; Menthol (VAN); Menthol natural; Menthol natural, brazilian; Menthomenthol; Peppermint camphor; Tra-kill tracheal mite killer; p-Menthan-3-ol; [ChemIDplus]",
        "links": [],
        "cross_references": [
          {
            "type": "name_match",
            "text": "headache",
            "confidence": 1.0,
            "uuid": "a474a38d-66ac-44da-92de-de1c781a30e7",
            "name": "headache",
            "url": "https://haz-map.com/Findings/17",
            "category": "findings"
          },
          {
            "type": "name_match",
            "text": "cyclohexanol",
            "confidence": 1.0,
            "uuid": "24ac6370-b064-46ca-bf9a-8fb5eada1573",
            "name": "Cyclohexanol",
            "url": "https://haz-map.com/Agents/772",
            "category": "agents"
          },
          {
            "type": "name_match",
            "text": "menthol",
            "confidence": 1.0,
            "uuid": "3997b2ab-a5d2-4a7e-a2c6-4a1ad2e57b50",
            "name": "Menthol",
            "url": "https://haz-map.com/Agents/5943",
            "category": "agents"
          },
          {
            "type": "name_match",
            "text": "thymol",
            "confidence": 1.0,
            "uuid": "07226c9f-5add-4c34-9f8f-8a313cb1eecf",
            "name": "Thymol",
            "url": "https://haz-map.com/Agents/7436",
            "category": "agents"
          }
        ]
      },
      "category": {
        "original_name": "Category",
        "value": "Plant Oils and Extracts",
        "links": [],
        "cross_references": []
      },
      "description": {
        "original_name": "Description",
        "value": "White solid with a cooling odor; [Hawley] Colorless solid with a peppermint odor; [HSDB] Colorless solid with a sweet odor; [MSDSonline]",
        "links": [],
        "cross_references": []
      },
      "sourcesuses": {
        "original_name": "Sources/Uses",
        "value": "Found in peppermint oil and other mint oils; [Merck Index] Used as flavoring/fragrance agent in toothpastes, mouthwashes, pharmaceuticals, cigarettes, aerosol room fresheners, cosmetics, liqueurs, confectionary, and perfumes; Also used as a topical antipruritic and in cough drops and inhalers; [HSDB] Used in Canada to control mites and in Europe in paints and lacquers, adhesives, metal care products, cleaning products, shoe and leather polishes, disinfectants, solvents, repellents, and animal care products; [eChemPortal: SIDSUNEP] Peppermint oil contains menthol, menthone, and more than 30 other chemicals. It is widely used as a flavoring agent and herbal remedy. [Haddad, p. 1439]",
        "links": [],
        "cross_references": [
          {
            "type": "name_match",
            "text": "cough",
            "confidence": 1.0,
            "uuid": "c18f3d8e-9c2e-4cef-ace6-8008147b34b1",
            "name": "cough",
            "url": "https://haz-map.com/Findings/4",
            "category": "findings"
          },
          {
            "type": "name_match",
            "text": "mica",
            "confidence": 1.0,
            "uuid": "433f26f1-c399-4596-b179-ce3843cfd465",
            "name": "Mica",
            "url": "https://haz-map.com/Agents/621",
            "category": "agents"
          },
          {
            "type": "name_match",
            "text": "ash",
            "confidence": 1.0,
            "uuid": "68b360f1-5ad0-4337-bea0-d7adca2961b5",
            "name": "Ash",
            "url": "https://haz-map.com/Agents/965",
            "category": "agents"
          },
          {
            "type": "name_match",
            "text": "pharmaceuticals",
            "confidence": 1.0,
            "uuid": "713c3c30-b67e-4a2f-a90f-b32f8a306332",
            "name": "PHARMACEUTICALS",
            "url": "https://haz-map.com/Agents/1000",
            "category": "agents"
          },
          {
            "type": "name_match",
            "text": "menthol",
            "confidence": 1.0,
            "uuid": "3997b2ab-a5d2-4a7e-a2c6-4a1ad2e57b50",
            "name": "Menthol",
            "url": "https://haz-map.com/Agents/5943",
            "category": "agents"
          },
          {
            "type": "name_match",
            "text": "menthone",
            "confidence": 1.0,
            "uuid": "4f7f5875-9300-4269-9d39-5474f0993ea0",
            "name": "Menthone",
            "url": "https://haz-map.com/Agents/5944",
            "category": "agents"
          }
        ]
      },
      "comments": {
        "original_name": "Comments",
        "value": "A mucous membrane irritant; [Hawley] Emergency treatment: \"Peppermint oil\"; [HSDB] A skin, eye, mucous membrane, and upper respiratory tract irritant; [CAMEO] A mild to moderate skin and eye irritant; [eChemPortal: SIDSUNEP] Peppermint oil causes CNS depression and hypothermia in rat feeding studies; Menthol causes ataxia, seizures, and respiratory depression in lethal dose studies of rats; It causes kidney damage and cystic lesions of the cerebellum in chronic studies; [Haddad, p. 1439] Included in list of \"established contact allergens in humans\"; [EC: Scientific Committee on Consumer Safety: Fragrance allergens in cosmetic products (2011)] An irritant; May cause serious eye injury; [MSDSonline] See \"l-Menthol\" and \"d-Menthol.\"",
        "links": [],
        "cross_references": [
          {
            "type": "name_match",
            "text": "menthol",
            "confidence": 1.0,
            "uuid": "3997b2ab-a5d2-4a7e-a2c6-4a1ad2e57b50",
            "name": "Menthol",
            "url": "https://haz-map.com/Agents/5943",
            "category": "agents"
          },
          {
            "type": "name_match",
            "text": "d-menthol",
            "confidence": 1.0,
            "uuid": "a452dc9a-04cb-4488-ad49-c2ae1f24b4d3",
            "name": "d-Menthol",
            "url": "https://haz-map.com/Agents/19102",
            "category": "agents"
          },
          {
            "type": "name_match",
            "text": "l-menthol",
            "confidence": 1.0,
            "uuid": "54e86d19-83f8-4489-a6b9-fc1c88c9d6eb",
            "name": "l-Menthol",
            "url": "https://haz-map.com/Agents/21109",
            "category": "agents"
          }
        ]
      },
      "reference_link_1": {
        "original_name": "Reference Link #1",
        "value": "Contact sensitivity to menthol and peppermint in patients with intra-oral symptoms.",
        "links": [
          {
            "text": "Contact sensitivity to menthol and peppermint in patients with intra-oral symptoms.",
            "url": "http://www.ncbi.nlm.nih.gov/pubmed/7634781"
          }
        ],
        "cross_references": [
          {
            "type": "name_match",
            "text": "menthol",
            "confidence": 1.0,
            "uuid": "3997b2ab-a5d2-4a7e-a2c6-4a1ad2e57b50",
            "name": "Menthol",
            "url": "https://haz-map.com/Agents/5943",
            "category": "agents"
          }
        ]
      },
      "biomedical_references": {
        "original_name": "Biomedical References",
        "value": "Search PubMed",
        "links": [
          {
            "text": "Search PubMed",
            "url": "https://www.ncbi.nlm.nih.gov/pubmed?term=Menthol%20AND%20human%5Bmh%5D%20AND%20%28Occupational%20Diseases%20%5Bmh%5D%20OR%20Occupational%20Exposure%20%5Bmh%5D%29%20%20AND%20%28tox%5Bsb%5D%29&cmd=search"
          }
        ],
        "cross_references": []
      }
    },
    "exposure_assessment": {
      "vapor_pressure": {
        "original_name": "Vapor Pressure",
        "value": "0.0637 mm Hg",
        "links": [],
        "cross_references": []
      },
      "weel": {
        "original_name": "WEEL",
        "value": "1 ppm, STEL = 3 ppm (OARS WEEL)",
        "links": [],
        "cross_references": []
      }
    },
    "adverse_effects": {
      "skin_sensitizer": {
        "original_name": "Skin Sensitizer",
        "value": "Yes",
        "links": [],
        "cross_references": []
      },
      "neurotoxin": {
        "original_name": "Neurotoxin",
        "value": "Acute solvent syndrome",
        "links": [],
        "cross_references": []
      }
    },
    "diseases_processes_and_activities_linked_to_this_agent": {
      "diseases": {
        "original_name": "Diseases",
        "value": "Occupational diseases associated with exposure to this agent: Contact dermatitis, allergic Solvents, acute toxic effect",
        "links": [
          {
            "text": "Contact dermatitis, allergic",
            "url": "https://haz-map.com/Diseases/18"
          },
          {
            "text": "Solvents, acute toxic effect",
            "url": "https://haz-map.com/Diseases/326"
          }
        ],
        "cross_references": [
          {
            "type": "url_match",
            "text": "Contact dermatitis, allergic",
            "url": "https://haz-map.com/Diseases/18",
            "confidence": 1.0,
            "uuid": "c9499de0-9aa1-41bf-8753-cd5b28a63e29",
            "name": "Contact dermatitis, allergic",
            "category": "diseases"
          },
          {
            "type": "url_match",
            "text": "Solvents, acute toxic effect",
            "url": "https://haz-map.com/Diseases/326",
            "confidence": 1.0,
            "uuid": "581e90e3-9d0c-45f0-aa6c-3468c28da129",
            "name": "Solvents, acute toxic effect",
            "category": "diseases"
          },
          {
            "type": "name_match",
            "text": "dermatitis",
            "confidence": 1.0,
            "uuid": "fe9c05f2-b19f-4ceb-ac7a-ffb7d7a0cae0",
            "name": "dermatitis",
            "url": "https://haz-map.com/Findings/59",
            "category": "findings"
          }
        ]
      },
      "processes": {
        "original_name": "Processes",
        "value": "Industrial Processes with risk of exposure: Painting (Solvents) Using Disinfectants or Biocides Working with Glues and Adhesives",
        "links": [
          {
            "text": "Painting (Solvents)",
            "url": "https://haz-map.com/Processes/142"
          },
          {
            "text": "Using Disinfectants or Biocides",
            "url": "https://haz-map.com/Processes/167"
          },
          {
            "text": "Working with Glues and Adhesives",
            "url": "https://haz-map.com/Processes/155"
          }
        ],
        "cross_references": [
          {
            "type": "url_match",
            "text": "Painting (Solvents)",
            "url": "https://haz-map.com/Processes/142",
            "confidence": 1.0,
            "uuid": "ca747481-4da1-4550-a546-f0d43a41b46c",
            "name": "Painting (Solvents)",
            "category": "processes"
          },
          {
            "type": "url_match",
            "text": "Using Disinfectants or Biocides",
            "url": "https://haz-map.com/Processes/167",
            "confidence": 1.0,
            "uuid": "7accb745-ad60-4ef8-9039-8ac4febb8fd8",
            "name": "Using Disinfectants or Biocides",
            "category": "processes"
          },
          {
            "type": "url_match",
            "text": "Working with Glues and Adhesives",
            "url": "https://haz-map.com/Processes/155",
            "confidence": 1.0,
            "uuid": "acb9084f-52e8-4687-bd6a-bced94bda834",
            "name": "Working with Glues and Adhesives",
            "category": "processes"
          },
          {
            "type": "name_match",
            "text": "painting",
            "confidence": 1.0,
            "uuid": "19816ce9-9edf-4a86-8e64-b0cbf7dcf520",
            "name": "Painting",
            "url": "https://haz-map.com/Activities/9",
            "category": "activities"
          }
        ]
      }
    }
  },
  "cross_references": [
    {
      "type": "url_match",
      "text": "Contact dermatitis, allergic",
      "url": "https://haz-map.com/Diseases/18",
      "confidence": 1.0,
      "uuid": "c9499de0-9aa1-41bf-8753-cd5b28a63e29",
      "name": "Contact dermatitis, allergic",
      "category": "diseases"
    },
    {
      "type": "url_match",
      "text": "Solvents, acute toxic effect",
      "url": "https://haz-map.com/Diseases/326",
      "confidence": 1.0,
      "uuid": "581e90e3-9d0c-45f0-aa6c-3468c28da129",
      "name": "Solvents, acute toxic effect",
      "category": "diseases"
    },
    {
      "type": "url_match",
      "text": "Painting (Solvents)",
      "url": "https://haz-map.com/Processes/142",
      "confidence": 1.0,
      "uuid": "ca747481-4da1-4550-a546-f0d43a41b46c",
      "name": "Painting (Solvents)",
      "category": "processes"
    },
    {
      "type": "url_match",
      "text": "Using Disinfectants or Biocides",
      "url": "https://haz-map.com/Processes/167",
      "confidence": 1.0,
      "uuid": "7accb745-ad60-4ef8-9039-8ac4febb8fd8",
      "name": "Using Disinfectants or Biocides",
      "category": "processes"
    },
    {
      "type": "url_match",
      "text": "Working with Glues and Adhesives",
      "url": "https://haz-map.com/Processes/155",
      "confidence": 1.0,
      "uuid": "acb9084f-52e8-4687-bd6a-bced94bda834",
      "name": "Working with Glues and Adhesives",
      "category": "processes"
    },
    {
      "type": "name_match",
      "text": "painting",
      "confidence": 1.0,
      "uuid": "19816ce9-9edf-4a86-8e64-b0cbf7dcf520",
      "name": "Painting",
      "url": "https://haz-map.com/Activities/9",
      "category": "activities"
    },
    {
      "type": "name_match",
      "text": "cough",
      "confidence": 1.0,
      "uuid": "c18f3d8e-9c2e-4cef-ace6-8008147b34b1",
      "name": "cough",
      "url": "https://haz-map.com/Findings/4",
      "category": "findings"
    },
    {
      "type": "name_match",
      "text": "headache",
      "confidence": 1.0,
      "uuid": "a474a38d-66ac-44da-92de-de1c781a30e7",
      "name": "headache",
      "url": "https://haz-map.com/Findings/17",
      "category": "findings"
    },
    {
      "type": "name_match",
      "text": "dermatitis",
      "confidence": 1.0,
      "uuid": "fe9c05f2-b19f-4ceb-ac7a-ffb7d7a0cae0",
      "name": "dermatitis",
      "url": "https://haz-map.com/Findings/59",
      "category": "findings"
    },
    {
      "type": "name_match",
      "text": "mica",
      "confidence": 1.0,
      "uuid": "433f26f1-c399-4596-b179-ce3843cfd465",
      "name": "Mica",
      "url": "https://haz-map.com/Agents/621",
      "category": "agents"
    },
    {
      "type": "name_match",
      "text": "cyclohexanol",
      "confidence": 1.0,
      "uuid": "24ac6370-b064-46ca-bf9a-8fb5eada1573",
      "name": "Cyclohexanol",
      "url": "https://haz-map.com/Agents/772",
      "category": "agents"
    },
    {
      "type": "name_match",
      "text": "ash",
      "confidence": 1.0,
      "uuid": "68b360f1-5ad0-4337-bea0-d7adca2961b5",
      "name": "Ash",
      "url": "https://haz-map.com/Agents/965",
      "category": "agents"
    },
    {
      "type": "name_match",
      "text": "pharmaceuticals",
      "confidence": 1.0,
      "uuid": "713c3c30-b67e-4a2f-a90f-b32f8a306332",
      "name": "PHARMACEUTICALS",
      "url": "https://haz-map.com/Agents/1000",
      "category": "agents"
    },
    {
      "type": "name_match",
      "text": "menthol",
      "confidence": 1.0,
      "uuid": "3997b2ab-a5d2-4a7e-a2c6-4a1ad2e57b50",
      "name": "Menthol",
      "url": "https://haz-map.com/Agents/5943",
      "category": "agents"
    },
    {
      "type": "name_match",
      "text": "menthone",
      "confidence": 1.0,
      "uuid": "4f7f5875-9300-4269-9d39-5474f0993ea0",
      "name": "Menthone",
      "url": "https://haz-map.com/Agents/5944",
      "category": "agents"
    },
    {
      "type": "name_match",
      "text": "thymol",
      "confidence": 1.0,
      "uuid": "07226c9f-5add-4c34-9f8f-8a313cb1eecf",
      "name": "Thymol",
      "url": "https://haz-map.com/Agents/7436",
      "category": "agents"
    },
    {
      "type": "name_match",
      "text": "d-menthol",
      "confidence": 1.0,
      "uuid": "a452dc9a-04cb-4488-ad49-c2ae1f24b4d3",
      "name": "d-Menthol",
      "url": "https://haz-map.com/Agents/19102",
      "category": "agents"
    },
    {
      "type": "name_match",
      "text": "l-menthol",
      "confidence": 1.0,
      "uuid": "54e86d19-83f8-4489-a6b9-fc1c88c9d6eb",
      "name": "l-Menthol",
      "url": "https://haz-map.com/Agents/21109",
      "category": "agents"
    }
  ],
  "all_links": [
    {
      "text": "Contact sensitivity to menthol and peppermint in patients with intra-oral symptoms.",
      "url": "http://www.ncbi.nlm.nih.gov/pubmed/7634781"
    },
    {
      "text": "Search PubMed",
      "url": "https://www.ncbi.nlm.nih.gov/pubmed?term=Menthol%20AND%20human%5Bmh%5D%20AND%20%28Occupational%20Diseases%20%5Bmh%5D%20OR%20Occupational%20Exposure%20%5Bmh%5D%29%20%20AND%20%28tox%5Bsb%5D%29&cmd=search"
    },
    {
      "text": "Contact dermatitis, allergic",
      "url": "https://haz-map.com/Diseases/18"
    },
    {
      "text": "Solvents, acute toxic effect",
      "url": "https://haz-map.com/Diseases/326"
    },
    {
      "text": "Painting (Solvents)",
      "url": "https://haz-map.com/Processes/142"
    },
    {
      "text": "Using Disinfectants or Biocides",
      "url": "https://haz-map.com/Processes/167"
    },
    {
      "text": "Working with Glues and Adhesives",
      "url": "https://haz-map.com/Processes/155"
    }
  ]
}