{
  "metadata": {
    "scraped_from": "https://haz-map.com/Agents/20240",
    "entity_name": "Amyl stearate",
    "category": "agents",
    "uuid": "399ac8ce-9c73-4965-8011-a6507c66929c",
    "scraped_at": "2025-07-23T22:21:43.541043"
  },
  "parsed_at": "2025-07-24T01:11:55.146210",
  "title": "Amyl stearate",
  "sections": {
    "general": {
      "agent_name": {
        "original_name": "Agent Name",
        "value": "Amyl stearate",
        "links": [],
        "cross_references": [
          {
            "type": "name_match",
            "text": "tea",
            "confidence": 1.0,
            "uuid": "773409e5-ac1a-4c9e-9470-9667ca82091c",
            "name": "Tea",
            "url": "https://haz-map.com/Agents/878",
            "category": "agents"
          },
          {
            "type": "name_match",
            "text": "amyl stearate",
            "confidence": 1.0,
            "uuid": "399ac8ce-9c73-4965-8011-a6507c66929c",
            "name": "Amyl stearate",
            "url": "https://haz-map.com/Agents/20240",
            "category": "agents"
          }
        ]
      },
      "cas_number": {
        "original_name": "CAS Number",
        "value": "6382-13-4",
        "links": [],
        "cross_references": []
      },
      "formula": {
        "original_name": "Formula",
        "value": "C23-H46-O2",
        "links": [],
        "cross_references": []
      },
      "major_category": {
        "original_name": "Major Category",
        "value": "Other Classes",
        "links": [],
        "cross_references": []
      },
      "synonyms": {
        "original_name": "Synonyms",
        "value": "Octadecanoic acid, pentyl ester; Pentyl stearate; [ChemIDplus]",
        "links": [],
        "cross_references": [
          {
            "type": "name_match",
            "text": "tea",
            "confidence": 1.0,
            "uuid": "773409e5-ac1a-4c9e-9470-9667ca82091c",
            "name": "Tea",
            "url": "https://haz-map.com/Agents/878",
            "category": "agents"
          }
        ]
      },
      "category": {
        "original_name": "Category",
        "value": "Stearates",
        "links": [],
        "cross_references": [
          {
            "type": "name_match",
            "text": "tea",
            "confidence": 1.0,
            "uuid": "773409e5-ac1a-4c9e-9470-9667ca82091c",
            "name": "Tea",
            "url": "https://haz-map.com/Agents/878",
            "category": "agents"
          },
          {
            "type": "name_match",
            "text": "stearates",
            "confidence": 1.0,
            "uuid": "045c9fd5-f3b6-4b87-bd04-15b7f96495b6",
            "name": "STEARATES",
            "url": "https://haz-map.com/Agents/1690",
            "category": "agents"
          }
        ]
      },
      "description": {
        "original_name": "Description",
        "value": "Melting point = 30 deg C; [ChemIDplus]",
        "links": [],
        "cross_references": []
      },
      "biomedical_references": {
        "original_name": "Biomedical References",
        "value": "Search PubMed",
        "links": [
          {
            "text": "Search PubMed",
            "url": "https://www.ncbi.nlm.nih.gov/pubmed?term=Amyl+stearate%20AND%20human%5Bmh%5D%20AND%20%28Occupational%20Diseases%20%5Bmh%5D%20OR%20Occupational%20Exposure%20%5Bmh%5D%29%20%20AND%20%28tox%5Bsb%5D%29&cmd=search"
          }
        ],
        "cross_references": []
      }
    },
    "diseases_processes_and_activities_linked_to_this_agent": {
      "other_information": {
        "original_name": "Other Information",
        "value": "No other related information on this agent was found.",
        "links": [],
        "cross_references": []
      }
    }
  },
  "cross_references": [
    {
      "type": "name_match",
      "text": "tea",
      "confidence": 1.0,
      "uuid": "773409e5-ac1a-4c9e-9470-9667ca82091c",
      "name": "Tea",
      "url": "https://haz-map.com/Agents/878",
      "category": "agents"
    },
    {
      "type": "name_match",
      "text": "stearates",
      "confidence": 1.0,
      "uuid": "045c9fd5-f3b6-4b87-bd04-15b7f96495b6",
      "name": "STEARATES",
      "url": "https://haz-map.com/Agents/1690",
      "category": "agents"
    },
    {
      "type": "name_match",
      "text": "amyl stearate",
      "confidence": 1.0,
      "uuid": "399ac8ce-9c73-4965-8011-a6507c66929c",
      "name": "Amyl stearate",
      "url": "https://haz-map.com/Agents/20240",
      "category": "agents"
    }
  ],
  "all_links": [
    {
      "text": "Search PubMed",
      "url": "https://www.ncbi.nlm.nih.gov/pubmed?term=Amyl+stearate%20AND%20human%5Bmh%5D%20AND%20%28Occupational%20Diseases%20%5Bmh%5D%20OR%20Occupational%20Exposure%20%5Bmh%5D%29%20%20AND%20%28tox%5Bsb%5D%29&cmd=search"
    }
  ]
}