{
  "metadata": {
    "scraped_from": "https://haz-map.com/Agents/19449",
    "entity_name": "2,3-Dichlorobutane",
    "category": "agents",
    "uuid": "39b37814-1e42-4fad-a0ca-a052bca3f93a",
    "scraped_at": "2025-07-23T22:06:20.092936"
  },
  "parsed_at": "2025-07-24T01:03:48.970997",
  "title": "2,3-Dichlorobutane",
  "sections": {
    "general": {
      "agent_name": {
        "original_name": "Agent Name",
        "value": "2,3-Dichlorobutane",
        "links": [],
        "cross_references": [
          {
            "type": "name_match",
            "text": "2,3-dichlorobutane",
            "confidence": 1.0,
            "uuid": "39b37814-1e42-4fad-a0ca-a052bca3f93a",
            "name": "2,3-Dichlorobutane",
            "url": "https://haz-map.com/Agents/19449",
            "category": "agents"
          },
          {
            "type": "fuzzy_match",
            "text": "3-dichlorobutane",
            "matched_name": "1,3-Dichlorobutane",
            "confidence": 0.8856209150326797,
            "uuid": "d34411b4-3052-4880-ae1c-20617e40c0e6",
            "category": "agents",
            "url": "https://haz-map.com/Agents/19248"
          }
        ]
      },
      "cas_number": {
        "original_name": "CAS Number",
        "value": "7581-97-7",
        "links": [],
        "cross_references": []
      },
      "formula": {
        "original_name": "Formula",
        "value": "C4-H8-Cl2",
        "links": [],
        "cross_references": []
      },
      "major_category": {
        "original_name": "Major Category",
        "value": "Other Classes",
        "links": [],
        "cross_references": []
      },
      "synonyms": {
        "original_name": "Synonyms",
        "value": "Butane, 2,3-dichloro-; [ChemIDplus] UN1993",
        "links": [],
        "cross_references": []
      },
      "category": {
        "original_name": "Category",
        "value": "Halogenated Aliphatics, Saturated",
        "links": [],
        "cross_references": []
      },
      "description": {
        "original_name": "Description",
        "value": "Colorless liquid with an odor like chloroform; [Alfa Aesar MSDS]",
        "links": [],
        "cross_references": [
          {
            "type": "name_match",
            "text": "chloroform",
            "confidence": 1.0,
            "uuid": "c05794fb-7374-465e-8219-dc071fdda4a7",
            "name": "Chloroform",
            "url": "https://haz-map.com/Agents/53",
            "category": "agents"
          }
        ]
      },
      "comments": {
        "original_name": "Comments",
        "value": "May cause irritation; [Alfa Aesar MSDS] See \"1,2-Dichlorobutane.\"",
        "links": [],
        "cross_references": [
          {
            "type": "name_match",
            "text": "1,2-dichlorobutane",
            "confidence": 1.0,
            "uuid": "f07b4649-a95b-417c-98a2-f10adf1f0821",
            "name": "1,2-Dichlorobutane",
            "url": "https://haz-map.com/Agents/2751",
            "category": "agents"
          }
        ]
      },
      "biomedical_references": {
        "original_name": "Biomedical References",
        "value": "Search PubMed",
        "links": [
          {
            "text": "Search PubMed",
            "url": "https://www.ncbi.nlm.nih.gov/pubmed?term=2%2c3-Dichlorobutane%20AND%20human%5Bmh%5D%20AND%20%28Occupational%20Diseases%20%5Bmh%5D%20OR%20Occupational%20Exposure%20%5Bmh%5D%29%20%20AND%20%28tox%5Bsb%5D%29&cmd=search"
          }
        ],
        "cross_references": []
      }
    },
    "exposure_assessment": {
      "vapor_pressure": {
        "original_name": "Vapor Pressure",
        "value": "24.4 mm Hg",
        "links": [],
        "cross_references": []
      },
      "explanatory_notes": {
        "original_name": "Explanatory Notes",
        "value": "The Guide in the Emergency Response Guidebook is for \"Flammable liquid, n.o.s.\"",
        "links": [],
        "cross_references": []
      }
    },
    "adverse_effects": {
      "neurotoxin": {
        "original_name": "Neurotoxin",
        "value": "Acute solvent syndrome",
        "links": [],
        "cross_references": []
      }
    },
    "diseases_processes_and_activities_linked_to_this_agent": {
      "diseases": {
        "original_name": "Diseases",
        "value": "Occupational diseases associated with exposure to this agent: Solvents, acute toxic effect",
        "links": [
          {
            "text": "Solvents, acute toxic effect",
            "url": "https://haz-map.com/Diseases/326"
          }
        ],
        "cross_references": [
          {
            "type": "url_match",
            "text": "Solvents, acute toxic effect",
            "url": "https://haz-map.com/Diseases/326",
            "confidence": 1.0,
            "uuid": "581e90e3-9d0c-45f0-aa6c-3468c28da129",
            "name": "Solvents, acute toxic effect",
            "category": "diseases"
          }
        ]
      }
    }
  },
  "cross_references": [
    {
      "type": "url_match",
      "text": "Solvents, acute toxic effect",
      "url": "https://haz-map.com/Diseases/326",
      "confidence": 1.0,
      "uuid": "581e90e3-9d0c-45f0-aa6c-3468c28da129",
      "name": "Solvents, acute toxic effect",
      "category": "diseases"
    },
    {
      "type": "name_match",
      "text": "chloroform",
      "confidence": 1.0,
      "uuid": "c05794fb-7374-465e-8219-dc071fdda4a7",
      "name": "Chloroform",
      "url": "https://haz-map.com/Agents/53",
      "category": "agents"
    },
    {
      "type": "name_match",
      "text": "1,2-dichlorobutane",
      "confidence": 1.0,
      "uuid": "f07b4649-a95b-417c-98a2-f10adf1f0821",
      "name": "1,2-Dichlorobutane",
      "url": "https://haz-map.com/Agents/2751",
      "category": "agents"
    },
    {
      "type": "name_match",
      "text": "2,3-dichlorobutane",
      "confidence": 1.0,
      "uuid": "39b37814-1e42-4fad-a0ca-a052bca3f93a",
      "name": "2,3-Dichlorobutane",
      "url": "https://haz-map.com/Agents/19449",
      "category": "agents"
    },
    {
      "type": "fuzzy_match",
      "text": "3-dichlorobutane",
      "matched_name": "1,3-Dichlorobutane",
      "confidence": 0.8856209150326797,
      "uuid": "d34411b4-3052-4880-ae1c-20617e40c0e6",
      "category": "agents",
      "url": "https://haz-map.com/Agents/19248"
    }
  ],
  "all_links": [
    {
      "text": "Search PubMed",
      "url": "https://www.ncbi.nlm.nih.gov/pubmed?term=2%2c3-Dichlorobutane%20AND%20human%5Bmh%5D%20AND%20%28Occupational%20Diseases%20%5Bmh%5D%20OR%20Occupational%20Exposure%20%5Bmh%5D%29%20%20AND%20%28tox%5Bsb%5D%29&cmd=search"
    },
    {
      "text": "Solvents, acute toxic effect",
      "url": "https://haz-map.com/Diseases/326"
    }
  ]
}