{
  "metadata": {
    "scraped_from": "https://haz-map.com/Agents/18232",
    "entity_name": "Trifluoro(methanol)boron",
    "category": "agents",
    "uuid": "3a18e62a-08dc-49f2-b728-773485489885",
    "scraped_at": "2025-07-23T21:54:12.310648"
  },
  "parsed_at": "2025-07-24T00:57:00.368963",
  "title": "Trifluoro(methanol)boron",
  "sections": {
    "general": {
      "agent_name": {
        "original_name": "Agent Name",
        "value": "Trifluoro(methanol)boron",
        "links": [],
        "cross_references": [
          {
            "type": "name_match",
            "text": "boron",
            "confidence": 1.0,
            "uuid": "539de4b5-2187-4144-ac60-98c577b00bca",
            "name": "Boron",
            "url": "https://haz-map.com/Agents/2001",
            "category": "agents"
          },
          {
            "type": "name_match",
            "text": "trifluoro(methanol)boron",
            "confidence": 1.0,
            "uuid": "3a18e62a-08dc-49f2-b728-773485489885",
            "name": "Trifluoro(methanol)boron",
            "url": "https://haz-map.com/Agents/18232",
            "category": "agents"
          }
        ]
      },
      "cas_number": {
        "original_name": "CAS Number",
        "value": "373-57-9",
        "links": [],
        "cross_references": []
      },
      "formula": {
        "original_name": "Formula",
        "value": "C-H4-B-F3-O",
        "links": [],
        "cross_references": []
      },
      "major_category": {
        "original_name": "Major Category",
        "value": "Metals",
        "links": [],
        "cross_references": []
      },
      "synonyms": {
        "original_name": "Synonyms",
        "value": "Boron, trifluoro(methanol)-, (T-4)-; [ChemIDplus] Boron trifluoride-methanol; [Sigma-Aldrich MSDS] UN2924",
        "links": [],
        "cross_references": [
          {
            "type": "name_match",
            "text": "boron trifluoride",
            "confidence": 1.0,
            "uuid": "c55f73da-b5a4-492a-81d6-66cc6d2edaea",
            "name": "Boron trifluoride",
            "url": "https://haz-map.com/Agents/313",
            "category": "agents"
          },
          {
            "type": "name_match",
            "text": "boron",
            "confidence": 1.0,
            "uuid": "539de4b5-2187-4144-ac60-98c577b00bca",
            "name": "Boron",
            "url": "https://haz-map.com/Agents/2001",
            "category": "agents"
          }
        ]
      },
      "category": {
        "original_name": "Category",
        "value": "Metalloid Compounds (Boron)",
        "links": [],
        "cross_references": [
          {
            "type": "name_match",
            "text": "boron",
            "confidence": 1.0,
            "uuid": "539de4b5-2187-4144-ac60-98c577b00bca",
            "name": "Boron",
            "url": "https://haz-map.com/Agents/2001",
            "category": "agents"
          }
        ]
      },
      "description": {
        "original_name": "Description",
        "value": "Clear colorless liquid; [Sigma-Aldrich MSDS]",
        "links": [],
        "cross_references": []
      },
      "comments": {
        "original_name": "Comments",
        "value": "Causes burns; Inhalation may cause corrosive injuries to upper respiratory tract; Targets the eyes, kidney, liver, and heart; [Sigma-Aldrich MSDS] See \"Boron trifluoride.\", See \"Methyl alcohol.\"",
        "links": [],
        "cross_references": [
          {
            "type": "name_match",
            "text": "burn",
            "confidence": 1.0,
            "uuid": "63665de5-6376-4918-8dbf-4c10c4d63837",
            "name": "burn",
            "url": "https://haz-map.com/Findings/204",
            "category": "findings"
          },
          {
            "type": "name_match",
            "text": "methyl alcohol",
            "confidence": 1.0,
            "uuid": "6b4db7bf-710a-48ac-9b97-40e0376a68f3",
            "name": "Methyl alcohol",
            "url": "https://haz-map.com/Agents/13",
            "category": "agents"
          },
          {
            "type": "name_match",
            "text": "boron trifluoride",
            "confidence": 1.0,
            "uuid": "c55f73da-b5a4-492a-81d6-66cc6d2edaea",
            "name": "Boron trifluoride",
            "url": "https://haz-map.com/Agents/313",
            "category": "agents"
          },
          {
            "type": "name_match",
            "text": "ethyl alcohol",
            "confidence": 1.0,
            "uuid": "9e039165-5b7c-44a7-afb2-dcf3c15e7a99",
            "name": "Ethyl alcohol",
            "url": "https://haz-map.com/Agents/481",
            "category": "agents"
          },
          {
            "type": "name_match",
            "text": "boron",
            "confidence": 1.0,
            "uuid": "539de4b5-2187-4144-ac60-98c577b00bca",
            "name": "Boron",
            "url": "https://haz-map.com/Agents/2001",
            "category": "agents"
          }
        ]
      },
      "biomedical_references": {
        "original_name": "Biomedical References",
        "value": "Search PubMed",
        "links": [
          {
            "text": "Search PubMed",
            "url": "https://www.ncbi.nlm.nih.gov/pubmed?term=Trifluoro(methanol)boron%20AND%20human%5Bmh%5D%20AND%20%28Occupational%20Diseases%20%5Bmh%5D%20OR%20Occupational%20Exposure%20%5Bmh%5D%29%20%20AND%20%28tox%5Bsb%5D%29&cmd=search"
          }
        ],
        "cross_references": []
      }
    },
    "exposure_assessment": {
      "vapor_pressure": {
        "original_name": "Vapor Pressure",
        "value": "19.5 mm Hg",
        "links": [],
        "cross_references": []
      },
      "explanatory_notes": {
        "original_name": "Explanatory Notes",
        "value": "The Guide in the Emergency Response Guidebook is for \"Flammable liquid, corrosive, n.o.s.\"",
        "links": [],
        "cross_references": []
      }
    },
    "adverse_effects": {
      "dermatotoxin": {
        "original_name": "Dermatotoxin",
        "value": "Skin burns",
        "links": [],
        "cross_references": [
          {
            "type": "name_match",
            "text": "burn",
            "confidence": 1.0,
            "uuid": "63665de5-6376-4918-8dbf-4c10c4d63837",
            "name": "burn",
            "url": "https://haz-map.com/Findings/204",
            "category": "findings"
          }
        ]
      }
    },
    "diseases_processes_and_activities_linked_to_this_agent": {
      "other_information": {
        "original_name": "Other Information",
        "value": "No other related information on this agent was found.",
        "links": [],
        "cross_references": []
      }
    }
  },
  "cross_references": [
    {
      "type": "name_match",
      "text": "burn",
      "confidence": 1.0,
      "uuid": "63665de5-6376-4918-8dbf-4c10c4d63837",
      "name": "burn",
      "url": "https://haz-map.com/Findings/204",
      "category": "findings"
    },
    {
      "type": "name_match",
      "text": "methyl alcohol",
      "confidence": 1.0,
      "uuid": "6b4db7bf-710a-48ac-9b97-40e0376a68f3",
      "name": "Methyl alcohol",
      "url": "https://haz-map.com/Agents/13",
      "category": "agents"
    },
    {
      "type": "name_match",
      "text": "boron trifluoride",
      "confidence": 1.0,
      "uuid": "c55f73da-b5a4-492a-81d6-66cc6d2edaea",
      "name": "Boron trifluoride",
      "url": "https://haz-map.com/Agents/313",
      "category": "agents"
    },
    {
      "type": "name_match",
      "text": "ethyl alcohol",
      "confidence": 1.0,
      "uuid": "9e039165-5b7c-44a7-afb2-dcf3c15e7a99",
      "name": "Ethyl alcohol",
      "url": "https://haz-map.com/Agents/481",
      "category": "agents"
    },
    {
      "type": "name_match",
      "text": "boron",
      "confidence": 1.0,
      "uuid": "539de4b5-2187-4144-ac60-98c577b00bca",
      "name": "Boron",
      "url": "https://haz-map.com/Agents/2001",
      "category": "agents"
    },
    {
      "type": "name_match",
      "text": "trifluoro(methanol)boron",
      "confidence": 1.0,
      "uuid": "3a18e62a-08dc-49f2-b728-773485489885",
      "name": "Trifluoro(methanol)boron",
      "url": "https://haz-map.com/Agents/18232",
      "category": "agents"
    }
  ],
  "all_links": [
    {
      "text": "Search PubMed",
      "url": "https://www.ncbi.nlm.nih.gov/pubmed?term=Trifluoro(methanol)boron%20AND%20human%5Bmh%5D%20AND%20%28Occupational%20Diseases%20%5Bmh%5D%20OR%20Occupational%20Exposure%20%5Bmh%5D%29%20%20AND%20%28tox%5Bsb%5D%29&cmd=search"
    }
  ]
}