{
  "metadata": {
    "scraped_from": "https://haz-map.com/Agents/10310",
    "entity_name": "2,2'-Biquinoline",
    "category": "agents",
    "uuid": "3a3adfbb-4086-417e-97d9-eb50a6cb49ad",
    "scraped_at": "2025-07-23T20:46:27.109208"
  },
  "parsed_at": "2025-07-24T01:15:02.175625",
  "title": "2,2'-Biquinoline",
  "sections": {
    "general": {
      "agent_name": {
        "original_name": "Agent Name",
        "value": "2,2'-Biquinoline",
        "links": [],
        "cross_references": [
          {
            "type": "name_match",
            "text": "quinoline",
            "confidence": 1.0,
            "uuid": "ba9097a5-8299-4dfd-a74a-f179b7d465d1",
            "name": "Quinoline",
            "url": "https://haz-map.com/Agents/6937",
            "category": "agents"
          },
          {
            "type": "name_match",
            "text": "2,2'-biquinoline",
            "confidence": 1.0,
            "uuid": "3a3adfbb-4086-417e-97d9-eb50a6cb49ad",
            "name": "2,2'-Biquinoline",
            "url": "https://haz-map.com/Agents/10310",
            "category": "agents"
          }
        ]
      },
      "cas_number": {
        "original_name": "CAS Number",
        "value": "119-91-5",
        "links": [],
        "cross_references": []
      },
      "formula": {
        "original_name": "Formula",
        "value": "C18-H12-N2",
        "links": [],
        "cross_references": []
      },
      "major_category": {
        "original_name": "Major Category",
        "value": "Nitrogen Compounds",
        "links": [],
        "cross_references": [
          {
            "type": "name_match",
            "text": "nitrogen",
            "confidence": 1.0,
            "uuid": "db5e90a9-06d2-45b9-8b81-f345a89b0bc0",
            "name": "Nitrogen",
            "url": "https://haz-map.com/Agents/1072",
            "category": "agents"
          }
        ]
      },
      "synonyms": {
        "original_name": "Synonyms",
        "value": "2,2'-Biquinolyl; 2,2'-Diquinolyl; Cuproin; Cuproine; [ChemIDplus]",
        "links": [],
        "cross_references": []
      },
      "category": {
        "original_name": "Category",
        "value": "Quinolines",
        "links": [],
        "cross_references": [
          {
            "type": "name_match",
            "text": "quinoline",
            "confidence": 1.0,
            "uuid": "ba9097a5-8299-4dfd-a74a-f179b7d465d1",
            "name": "Quinoline",
            "url": "https://haz-map.com/Agents/6937",
            "category": "agents"
          }
        ]
      },
      "description": {
        "original_name": "Description",
        "value": "Light yellow powder; [Aldrich MSDS]",
        "links": [],
        "cross_references": [
          {
            "type": "name_match",
            "text": "ht",
            "confidence": 1.0,
            "uuid": "764df367-8d53-4a11-81a2-31ccfe122a8d",
            "name": "HT",
            "url": "https://haz-map.com/Agents/2168",
            "category": "agents"
          }
        ]
      },
      "comments": {
        "original_name": "Comments",
        "value": "An irritant; [Aldrich MSDS] See \"Quinoline.\"",
        "links": [],
        "cross_references": [
          {
            "type": "name_match",
            "text": "quinoline",
            "confidence": 1.0,
            "uuid": "ba9097a5-8299-4dfd-a74a-f179b7d465d1",
            "name": "Quinoline",
            "url": "https://haz-map.com/Agents/6937",
            "category": "agents"
          }
        ]
      },
      "biomedical_references": {
        "original_name": "Biomedical References",
        "value": "Search PubMed",
        "links": [
          {
            "text": "Search PubMed",
            "url": "https://www.ncbi.nlm.nih.gov/pubmed?term=2%2c2%26%2339%3b-Biquinoline%20AND%20human%5Bmh%5D%20AND%20%28Occupational%20Diseases%20%5Bmh%5D%20OR%20Occupational%20Exposure%20%5Bmh%5D%29%20%20AND%20%28tox%5Bsb%5D%29&cmd=search"
          }
        ],
        "cross_references": []
      }
    },
    "exposure_assessment": {
      "vapor_pressure": {
        "original_name": "Vapor Pressure",
        "value": "2.48E-08 mm Hg",
        "links": [],
        "cross_references": []
      }
    },
    "diseases_processes_and_activities_linked_to_this_agent": {
      "other_information": {
        "original_name": "Other Information",
        "value": "No other related information on this agent was found.",
        "links": [],
        "cross_references": []
      }
    }
  },
  "cross_references": [
    {
      "type": "name_match",
      "text": "nitrogen",
      "confidence": 1.0,
      "uuid": "db5e90a9-06d2-45b9-8b81-f345a89b0bc0",
      "name": "Nitrogen",
      "url": "https://haz-map.com/Agents/1072",
      "category": "agents"
    },
    {
      "type": "name_match",
      "text": "ht",
      "confidence": 1.0,
      "uuid": "764df367-8d53-4a11-81a2-31ccfe122a8d",
      "name": "HT",
      "url": "https://haz-map.com/Agents/2168",
      "category": "agents"
    },
    {
      "type": "name_match",
      "text": "quinoline",
      "confidence": 1.0,
      "uuid": "ba9097a5-8299-4dfd-a74a-f179b7d465d1",
      "name": "Quinoline",
      "url": "https://haz-map.com/Agents/6937",
      "category": "agents"
    },
    {
      "type": "name_match",
      "text": "2,2'-biquinoline",
      "confidence": 1.0,
      "uuid": "3a3adfbb-4086-417e-97d9-eb50a6cb49ad",
      "name": "2,2'-Biquinoline",
      "url": "https://haz-map.com/Agents/10310",
      "category": "agents"
    }
  ],
  "all_links": [
    {
      "text": "Search PubMed",
      "url": "https://www.ncbi.nlm.nih.gov/pubmed?term=2%2c2%26%2339%3b-Biquinoline%20AND%20human%5Bmh%5D%20AND%20%28Occupational%20Diseases%20%5Bmh%5D%20OR%20Occupational%20Exposure%20%5Bmh%5D%29%20%20AND%20%28tox%5Bsb%5D%29&cmd=search"
    }
  ]
}