{
  "metadata": {
    "scraped_from": "https://haz-map.com/Agents/4426",
    "entity_name": "Cinoxate",
    "category": "agents",
    "uuid": "3a3b03da-d9c4-40cc-a335-8ea64edbb2ab",
    "scraped_at": "2025-07-23T19:40:52.633692"
  },
  "parsed_at": "2025-07-24T00:59:28.891632",
  "title": "Cinoxate",
  "sections": {
    "general": {
      "agent_name": {
        "original_name": "Agent Name",
        "value": "Cinoxate",
        "links": [],
        "cross_references": [
          {
            "type": "name_match",
            "text": "cinoxate",
            "confidence": 1.0,
            "uuid": "3a3b03da-d9c4-40cc-a335-8ea64edbb2ab",
            "name": "Cinoxate",
            "url": "https://haz-map.com/Agents/4426",
            "category": "agents"
          }
        ]
      },
      "cas_number": {
        "original_name": "CAS Number",
        "value": "104-28-9",
        "links": [],
        "cross_references": []
      },
      "formula": {
        "original_name": "Formula",
        "value": "C14-H18-O4",
        "links": [],
        "cross_references": []
      },
      "major_category": {
        "original_name": "Major Category",
        "value": "Other Uses",
        "links": [],
        "cross_references": []
      },
      "synonyms": {
        "original_name": "Synonyms",
        "value": "2-Ethoxyethyl p-methoxycinnamate; Cinoxato [INN-Spanish]; Cinoxatum [INN-Latin]; Giv Tan F; Give-Tan; Giv-Tan F; Phiasol; Sundare; [ChemIDplus]",
        "links": [],
        "cross_references": []
      },
      "category": {
        "original_name": "Category",
        "value": "Sunscreens",
        "links": [],
        "cross_references": [
          {
            "type": "name_match",
            "text": "sunscreens",
            "confidence": 1.0,
            "uuid": "7527d0ea-c1e0-4597-897e-e7f8794ae03b",
            "name": "SUNSCREENS",
            "url": "https://haz-map.com/Agents/1167",
            "category": "agents"
          }
        ]
      },
      "description": {
        "original_name": "Description",
        "value": "Viscous liquid; May be slightly yellow; [Merck Index]",
        "links": [],
        "cross_references": [
          {
            "type": "name_match",
            "text": "ht",
            "confidence": 1.0,
            "uuid": "764df367-8d53-4a11-81a2-31ccfe122a8d",
            "name": "HT",
            "url": "https://haz-map.com/Agents/2168",
            "category": "agents"
          }
        ]
      },
      "sourcesuses": {
        "original_name": "Sources/Uses",
        "value": "Used as ultraviolet screen; [Merck Index] \"The cinnamates are a group of chemically related substances that are used as fragrances and flavorings and less frequently as sunscreens.\" [Marks, p. 219]",
        "links": [],
        "cross_references": [
          {
            "type": "name_match",
            "text": "mica",
            "confidence": 1.0,
            "uuid": "433f26f1-c399-4596-b179-ce3843cfd465",
            "name": "Mica",
            "url": "https://haz-map.com/Agents/621",
            "category": "agents"
          },
          {
            "type": "name_match",
            "text": "sunscreens",
            "confidence": 1.0,
            "uuid": "7527d0ea-c1e0-4597-897e-e7f8794ae03b",
            "name": "SUNSCREENS",
            "url": "https://haz-map.com/Agents/1167",
            "category": "agents"
          }
        ]
      },
      "comments": {
        "original_name": "Comments",
        "value": "No health hazard information available; [CAMEO] See \"Octinoxate.\"",
        "links": [],
        "cross_references": [
          {
            "type": "name_match",
            "text": "octinoxate",
            "confidence": 1.0,
            "uuid": "c79636de-dae2-4aed-9a43-049871156100",
            "name": "Octinoxate",
            "url": "https://haz-map.com/Agents/6436",
            "category": "agents"
          }
        ]
      },
      "biomedical_references": {
        "original_name": "Biomedical References",
        "value": "Search PubMed",
        "links": [
          {
            "text": "Search PubMed",
            "url": "https://www.ncbi.nlm.nih.gov/pubmed?term=Cinoxate%20AND%20human%5Bmh%5D%20AND%20%28Occupational%20Diseases%20%5Bmh%5D%20OR%20Occupational%20Exposure%20%5Bmh%5D%29%20%20AND%20%28tox%5Bsb%5D%29&cmd=search"
          }
        ],
        "cross_references": []
      }
    },
    "exposure_assessment": {
      "vapor_pressure": {
        "original_name": "Vapor Pressure",
        "value": "0.00034 mm Hg",
        "links": [],
        "cross_references": []
      }
    },
    "diseases_processes_and_activities_linked_to_this_agent": {
      "other_information": {
        "original_name": "Other Information",
        "value": "No other related information on this agent was found.",
        "links": [],
        "cross_references": []
      }
    }
  },
  "cross_references": [
    {
      "type": "name_match",
      "text": "mica",
      "confidence": 1.0,
      "uuid": "433f26f1-c399-4596-b179-ce3843cfd465",
      "name": "Mica",
      "url": "https://haz-map.com/Agents/621",
      "category": "agents"
    },
    {
      "type": "name_match",
      "text": "sunscreens",
      "confidence": 1.0,
      "uuid": "7527d0ea-c1e0-4597-897e-e7f8794ae03b",
      "name": "SUNSCREENS",
      "url": "https://haz-map.com/Agents/1167",
      "category": "agents"
    },
    {
      "type": "name_match",
      "text": "ht",
      "confidence": 1.0,
      "uuid": "764df367-8d53-4a11-81a2-31ccfe122a8d",
      "name": "HT",
      "url": "https://haz-map.com/Agents/2168",
      "category": "agents"
    },
    {
      "type": "name_match",
      "text": "cinoxate",
      "confidence": 1.0,
      "uuid": "3a3b03da-d9c4-40cc-a335-8ea64edbb2ab",
      "name": "Cinoxate",
      "url": "https://haz-map.com/Agents/4426",
      "category": "agents"
    },
    {
      "type": "name_match",
      "text": "octinoxate",
      "confidence": 1.0,
      "uuid": "c79636de-dae2-4aed-9a43-049871156100",
      "name": "Octinoxate",
      "url": "https://haz-map.com/Agents/6436",
      "category": "agents"
    }
  ],
  "all_links": [
    {
      "text": "Search PubMed",
      "url": "https://www.ncbi.nlm.nih.gov/pubmed?term=Cinoxate%20AND%20human%5Bmh%5D%20AND%20%28Occupational%20Diseases%20%5Bmh%5D%20OR%20Occupational%20Exposure%20%5Bmh%5D%29%20%20AND%20%28tox%5Bsb%5D%29&cmd=search"
    }
  ]
}