{
  "metadata": {
    "scraped_from": "https://haz-map.com/Agents/15496",
    "entity_name": "Methyl cinnamate",
    "category": "agents",
    "uuid": "3a674cee-979d-4443-9373-eabb55f22006",
    "scraped_at": "2025-07-23T21:30:18.905528"
  },
  "parsed_at": "2025-07-24T01:06:52.323483",
  "title": "Methyl cinnamate",
  "sections": {
    "general": {
      "agent_name": {
        "original_name": "Agent Name",
        "value": "Methyl cinnamate",
        "links": [],
        "cross_references": [
          {
            "type": "name_match",
            "text": "ethyl cinnamate",
            "confidence": 1.0,
            "uuid": "1316fadc-a29d-4b7b-9d19-9738762aa1d9",
            "name": "Ethyl cinnamate",
            "url": "https://haz-map.com/Agents/14191",
            "category": "agents"
          },
          {
            "type": "name_match",
            "text": "methyl cinnamate",
            "confidence": 1.0,
            "uuid": "3a674cee-979d-4443-9373-eabb55f22006",
            "name": "Methyl cinnamate",
            "url": "https://haz-map.com/Agents/15496",
            "category": "agents"
          }
        ]
      },
      "cas_number": {
        "original_name": "CAS Number",
        "value": "103-26-4",
        "links": [],
        "cross_references": []
      },
      "formula": {
        "original_name": "Formula",
        "value": "C10-H10-O2",
        "links": [],
        "cross_references": []
      },
      "major_category": {
        "original_name": "Major Category",
        "value": "Other Classes",
        "links": [],
        "cross_references": []
      },
      "synonyms": {
        "original_name": "Synonyms",
        "value": "2-Propenoic acid, 3-phenyl-, methyl ester; Cinnamic acid methyl ester; Methyl 3-phenyl-2-propenoate; Methyl 3-phenylacrylate; Methyl 3-phenylpropenoate; Methyl cinnamate (natural); Methyl cinnamylate; SemaSORB 9815; Cinnamic acid, methyl ester; [ChemIDplus]",
        "links": [],
        "cross_references": [
          {
            "type": "name_match",
            "text": "cinnamic acid",
            "confidence": 1.0,
            "uuid": "36c7cc13-9a22-4833-a693-400904298b8e",
            "name": "Cinnamic acid",
            "url": "https://haz-map.com/Agents/13034",
            "category": "agents"
          },
          {
            "type": "name_match",
            "text": "ethyl cinnamate",
            "confidence": 1.0,
            "uuid": "1316fadc-a29d-4b7b-9d19-9738762aa1d9",
            "name": "Ethyl cinnamate",
            "url": "https://haz-map.com/Agents/14191",
            "category": "agents"
          },
          {
            "type": "name_match",
            "text": "methyl cinnamate",
            "confidence": 1.0,
            "uuid": "3a674cee-979d-4443-9373-eabb55f22006",
            "name": "Methyl cinnamate",
            "url": "https://haz-map.com/Agents/15496",
            "category": "agents"
          }
        ]
      },
      "category": {
        "original_name": "Category",
        "value": "Esters, Other",
        "links": [],
        "cross_references": []
      },
      "description": {
        "original_name": "Description",
        "value": "Solid with a fruity, balsamic odor like strawberries; mp = 36 deg C; [Merck Index] Light yellow crystals; mp = 36-38 deg C; [Sigma-Aldrich MSDS]",
        "links": [],
        "cross_references": [
          {
            "type": "name_match",
            "text": "ht",
            "confidence": 1.0,
            "uuid": "764df367-8d53-4a11-81a2-31ccfe122a8d",
            "name": "HT",
            "url": "https://haz-map.com/Agents/2168",
            "category": "agents"
          }
        ]
      },
      "sourcesuses": {
        "original_name": "Sources/Uses",
        "value": "Permitted for use as an inert ingredient in non-food pesticide products; [EPA] Used as a fragrance and flavoring agent; [Merck Index]",
        "links": [],
        "cross_references": []
      },
      "comments": {
        "original_name": "Comments",
        "value": "Safe when used as a flavoring agent in food; [JECFA] May cause irritation; [Sigma-Aldrich MSDS]",
        "links": [],
        "cross_references": []
      },
      "biomedical_references": {
        "original_name": "Biomedical References",
        "value": "Search PubMed",
        "links": [
          {
            "text": "Search PubMed",
            "url": "https://www.ncbi.nlm.nih.gov/pubmed?term=Methyl+cinnamate%20AND%20human%5Bmh%5D%20AND%20%28Occupational%20Diseases%20%5Bmh%5D%20OR%20Occupational%20Exposure%20%5Bmh%5D%29%20%20AND%20%28tox%5Bsb%5D%29&cmd=search"
          }
        ],
        "cross_references": []
      }
    },
    "exposure_assessment": {
      "vapor_pressure": {
        "original_name": "Vapor Pressure",
        "value": "0.047 mm Hg",
        "links": [],
        "cross_references": []
      },
      "explanatory_notes": {
        "original_name": "Explanatory Notes",
        "value": "VP from ChemIDplus;",
        "links": [],
        "cross_references": []
      }
    },
    "diseases_processes_and_activities_linked_to_this_agent": {
      "other_information": {
        "original_name": "Other Information",
        "value": "No other related information on this agent was found.",
        "links": [],
        "cross_references": []
      }
    }
  },
  "cross_references": [
    {
      "type": "name_match",
      "text": "ht",
      "confidence": 1.0,
      "uuid": "764df367-8d53-4a11-81a2-31ccfe122a8d",
      "name": "HT",
      "url": "https://haz-map.com/Agents/2168",
      "category": "agents"
    },
    {
      "type": "name_match",
      "text": "cinnamic acid",
      "confidence": 1.0,
      "uuid": "36c7cc13-9a22-4833-a693-400904298b8e",
      "name": "Cinnamic acid",
      "url": "https://haz-map.com/Agents/13034",
      "category": "agents"
    },
    {
      "type": "name_match",
      "text": "ethyl cinnamate",
      "confidence": 1.0,
      "uuid": "1316fadc-a29d-4b7b-9d19-9738762aa1d9",
      "name": "Ethyl cinnamate",
      "url": "https://haz-map.com/Agents/14191",
      "category": "agents"
    },
    {
      "type": "name_match",
      "text": "methyl cinnamate",
      "confidence": 1.0,
      "uuid": "3a674cee-979d-4443-9373-eabb55f22006",
      "name": "Methyl cinnamate",
      "url": "https://haz-map.com/Agents/15496",
      "category": "agents"
    }
  ],
  "all_links": [
    {
      "text": "Search PubMed",
      "url": "https://www.ncbi.nlm.nih.gov/pubmed?term=Methyl+cinnamate%20AND%20human%5Bmh%5D%20AND%20%28Occupational%20Diseases%20%5Bmh%5D%20OR%20Occupational%20Exposure%20%5Bmh%5D%29%20%20AND%20%28tox%5Bsb%5D%29&cmd=search"
    }
  ]
}