{
  "metadata": {
    "scraped_from": "https://haz-map.com/Agents/20548",
    "entity_name": "Dioctyl phenylphosphonate",
    "category": "agents",
    "uuid": "3a9417c6-31e6-43d4-b749-713bc7a53664",
    "scraped_at": "2025-07-23T22:27:13.744772"
  },
  "parsed_at": "2025-07-24T00:57:47.409039",
  "title": "Dioctyl phenylphosphonate",
  "sections": {
    "general": {
      "agent_name": {
        "original_name": "Agent Name",
        "value": "Dioctyl phenylphosphonate",
        "links": [],
        "cross_references": [
          {
            "type": "name_match",
            "text": "dioctyl phenylphosphonate",
            "confidence": 1.0,
            "uuid": "3a9417c6-31e6-43d4-b749-713bc7a53664",
            "name": "Dioctyl phenylphosphonate",
            "url": "https://haz-map.com/Agents/20548",
            "category": "agents"
          }
        ]
      },
      "cas_number": {
        "original_name": "CAS Number",
        "value": "1754-47-8",
        "links": [],
        "cross_references": []
      },
      "formula": {
        "original_name": "Formula",
        "value": "C22-H39-O3-P",
        "links": [],
        "cross_references": []
      },
      "major_category": {
        "original_name": "Major Category",
        "value": "Other Classes",
        "links": [],
        "cross_references": []
      },
      "synonyms": {
        "original_name": "Synonyms",
        "value": "Dioctylphenylphosphonate; Benzenephosphonic acid, dioctyl ester; Di-n-octyl phenyl phosphonate; Dioctyl phenyl phosphonate; Phenylphosphonic acid dioctyl ester; Phosphonic acid, P-phenyl-, dioctyl ester; Phosphonic acid, phenyl-, dioctyl ester; [ChemIDplus]",
        "links": [],
        "cross_references": [
          {
            "type": "name_match",
            "text": "benzene",
            "confidence": 1.0,
            "uuid": "b05124de-5f34-4c14-8f04-ccb20c3780d9",
            "name": "Benzene",
            "url": "https://haz-map.com/Agents/5",
            "category": "agents"
          }
        ]
      },
      "category": {
        "original_name": "Category",
        "value": "Organophosphates, Other",
        "links": [],
        "cross_references": [
          {
            "type": "name_match",
            "text": "organophosphates",
            "confidence": 1.0,
            "uuid": "8d2d239c-20f9-4f02-9916-5e7667b9990c",
            "name": "ORGANOPHOSPHATES",
            "url": "https://haz-map.com/Agents/702",
            "category": "agents"
          }
        ]
      },
      "description": {
        "original_name": "Description",
        "value": "Colorless or pale yellow liquid; [Alfa Aesar MSDS]",
        "links": [],
        "cross_references": []
      },
      "comments": {
        "original_name": "Comments",
        "value": "Intravenous LDLo (mouse) = 100 mg/kg; [RTECS] May cause irritation; [Alfa Aesar MSDS] See \"Dimethyl methylphosphonate,\" \"Dibutyl butylphosphonate,\" and \"Diethyl ethylphosphonate.\"",
        "links": [],
        "cross_references": [
          {
            "type": "name_match",
            "text": "dibutyl butylphosphonate",
            "confidence": 1.0,
            "uuid": "51d444e0-3efd-4d41-aff3-3c4b47b28e12",
            "name": "Dibutyl butylphosphonate",
            "url": "https://haz-map.com/Agents/4746",
            "category": "agents"
          },
          {
            "type": "name_match",
            "text": "diethyl ethylphosphonate",
            "confidence": 1.0,
            "uuid": "acd65475-8273-4e0d-a8c8-9a08254550cd",
            "name": "Diethyl ethylphosphonate",
            "url": "https://haz-map.com/Agents/4844",
            "category": "agents"
          },
          {
            "type": "name_match",
            "text": "dimethyl methylphosphonate",
            "confidence": 1.0,
            "uuid": "6732b8a8-aac0-4ad7-8de5-62eef4b3d04b",
            "name": "Dimethyl methylphosphonate",
            "url": "https://haz-map.com/Agents/4952",
            "category": "agents"
          },
          {
            "type": "name_match",
            "text": "ethyl methylphosphonate",
            "confidence": 1.0,
            "uuid": "857e0fbc-0e5d-4936-9be9-3a9076ca604d",
            "name": "Ethyl methylphosphonate",
            "url": "https://haz-map.com/Agents/15536",
            "category": "agents"
          }
        ]
      },
      "biomedical_references": {
        "original_name": "Biomedical References",
        "value": "Search PubMed",
        "links": [
          {
            "text": "Search PubMed",
            "url": "https://www.ncbi.nlm.nih.gov/pubmed?term=Dioctyl+phenylphosphonate%20AND%20human%5Bmh%5D%20AND%20%28Occupational%20Diseases%20%5Bmh%5D%20OR%20Occupational%20Exposure%20%5Bmh%5D%29%20%20AND%20%28tox%5Bsb%5D%29&cmd=search"
          }
        ],
        "cross_references": []
      }
    },
    "exposure_assessment": {
      "vapor_pressure": {
        "original_name": "Vapor Pressure",
        "value": "1.95E-06 mm Hg",
        "links": [],
        "cross_references": []
      }
    },
    "diseases_processes_and_activities_linked_to_this_agent": {
      "other_information": {
        "original_name": "Other Information",
        "value": "No other related information on this agent was found.",
        "links": [],
        "cross_references": []
      }
    }
  },
  "cross_references": [
    {
      "type": "name_match",
      "text": "benzene",
      "confidence": 1.0,
      "uuid": "b05124de-5f34-4c14-8f04-ccb20c3780d9",
      "name": "Benzene",
      "url": "https://haz-map.com/Agents/5",
      "category": "agents"
    },
    {
      "type": "name_match",
      "text": "organophosphates",
      "confidence": 1.0,
      "uuid": "8d2d239c-20f9-4f02-9916-5e7667b9990c",
      "name": "ORGANOPHOSPHATES",
      "url": "https://haz-map.com/Agents/702",
      "category": "agents"
    },
    {
      "type": "name_match",
      "text": "dibutyl butylphosphonate",
      "confidence": 1.0,
      "uuid": "51d444e0-3efd-4d41-aff3-3c4b47b28e12",
      "name": "Dibutyl butylphosphonate",
      "url": "https://haz-map.com/Agents/4746",
      "category": "agents"
    },
    {
      "type": "name_match",
      "text": "diethyl ethylphosphonate",
      "confidence": 1.0,
      "uuid": "acd65475-8273-4e0d-a8c8-9a08254550cd",
      "name": "Diethyl ethylphosphonate",
      "url": "https://haz-map.com/Agents/4844",
      "category": "agents"
    },
    {
      "type": "name_match",
      "text": "dimethyl methylphosphonate",
      "confidence": 1.0,
      "uuid": "6732b8a8-aac0-4ad7-8de5-62eef4b3d04b",
      "name": "Dimethyl methylphosphonate",
      "url": "https://haz-map.com/Agents/4952",
      "category": "agents"
    },
    {
      "type": "name_match",
      "text": "ethyl methylphosphonate",
      "confidence": 1.0,
      "uuid": "857e0fbc-0e5d-4936-9be9-3a9076ca604d",
      "name": "Ethyl methylphosphonate",
      "url": "https://haz-map.com/Agents/15536",
      "category": "agents"
    },
    {
      "type": "name_match",
      "text": "dioctyl phenylphosphonate",
      "confidence": 1.0,
      "uuid": "3a9417c6-31e6-43d4-b749-713bc7a53664",
      "name": "Dioctyl phenylphosphonate",
      "url": "https://haz-map.com/Agents/20548",
      "category": "agents"
    }
  ],
  "all_links": [
    {
      "text": "Search PubMed",
      "url": "https://www.ncbi.nlm.nih.gov/pubmed?term=Dioctyl+phenylphosphonate%20AND%20human%5Bmh%5D%20AND%20%28Occupational%20Diseases%20%5Bmh%5D%20OR%20Occupational%20Exposure%20%5Bmh%5D%29%20%20AND%20%28tox%5Bsb%5D%29&cmd=search"
    }
  ]
}