{
  "metadata": {
    "scraped_from": "https://haz-map.com/Agents/17375",
    "entity_name": "Thiamine",
    "category": "agents",
    "uuid": "3aa6b999-33f7-4860-b2b8-42760dd10674",
    "scraped_at": "2025-07-23T21:45:52.071223"
  },
  "parsed_at": "2025-07-24T00:50:44.386699",
  "title": "Thiamine",
  "sections": {
    "general": {
      "agent_name": {
        "original_name": "Agent Name",
        "value": "Thiamine",
        "links": [],
        "cross_references": [
          {
            "type": "name_match",
            "text": "thiamine",
            "confidence": 1.0,
            "uuid": "3aa6b999-33f7-4860-b2b8-42760dd10674",
            "name": "Thiamine",
            "url": "https://haz-map.com/Agents/17375",
            "category": "agents"
          }
        ]
      },
      "alternative_name": {
        "original_name": "Alternative Name",
        "value": "Vitamin B1",
        "links": [],
        "cross_references": []
      },
      "cas_number": {
        "original_name": "CAS Number",
        "value": "59-43-8",
        "links": [],
        "cross_references": []
      },
      "formula": {
        "original_name": "Formula",
        "value": "C12-H17-N4-O-S.Cl",
        "links": [],
        "cross_references": []
      },
      "major_category": {
        "original_name": "Major Category",
        "value": "Biological Agents",
        "links": [],
        "cross_references": []
      },
      "synonyms": {
        "original_name": "Synonyms",
        "value": "3-((4-Amino-2-methyl-5-pyrimidinyl)methyl)-5-(2-hydroxyethyl)-4-methylthiazolium chloride; Aneurine; Apatate Drape; B-Amin; Beivon; Betabion; Bethiamin; Oryzanin; Oryzanine; Thiacoat; Thiamin; Thiamine monochloride; Thiamine, chloride; Thiaminum [INN-Latin]; Thiazolium, 3-((4-amino-2-methyl-5-pyrimidinyl)methyl)-5-(2-hydroxyethyl)-4-methyl- chloride; Thiazolium, 3-((4-amino-2-methyl-5-pyrimidinyl)methyl)-5-(2-hydroxyethyl)-4-methyl-chloride; Tiamina [INN-Spanish]; Vitamin B1; Vitaneurin; [ChemIDplus]",
        "links": [],
        "cross_references": [
          {
            "type": "name_match",
            "text": "thiamine",
            "confidence": 1.0,
            "uuid": "3aa6b999-33f7-4860-b2b8-42760dd10674",
            "name": "Thiamine",
            "url": "https://haz-map.com/Agents/17375",
            "category": "agents"
          }
        ]
      },
      "category": {
        "original_name": "Category",
        "value": "Vitamins and Derivatives",
        "links": [],
        "cross_references": []
      },
      "description": {
        "original_name": "Description",
        "value": "Solid with a slight odor; [HSDB] Crystals; [Avocado Research MSDS]",
        "links": [],
        "cross_references": [
          {
            "type": "name_match",
            "text": "ht",
            "confidence": 1.0,
            "uuid": "764df367-8d53-4a11-81a2-31ccfe122a8d",
            "name": "HT",
            "url": "https://haz-map.com/Agents/2168",
            "category": "agents"
          }
        ]
      },
      "sourcesuses": {
        "original_name": "Sources/Uses",
        "value": "An essential vitamin for carbohydrate metabolism and nerve function; Found in whole grains, meats, vegetables, milk, legumes, fruit, rice husks, and yeast; [Merck Index] Used as a nutritional supplement and flavoring agent for foods; [FDA] Used as a medicine, nutrient, in enriched flours, and other foods; [HSDB]",
        "links": [],
        "cross_references": []
      },
      "comments": {
        "original_name": "Comments",
        "value": "A water-soluble vitamin used to treat beriberi and Wernicke-Korsakoff syndrome; Anaphylactoid reactions were reported after intravenous injection--rare with new preparations; [Olson, p. 628] Hydrochloride: Safe when used as a flavoring agent in food; [JECFA] Occupational asthma confirmed with broncho-provocation testing in a worker manufacturing cereal; [Malo]",
        "links": [],
        "cross_references": [
          {
            "type": "name_match",
            "text": "water",
            "confidence": 1.0,
            "uuid": "6f2a7557-dfd2-49bc-9b4b-a93cd8e225d4",
            "name": "Water",
            "url": "https://haz-map.com/Agents/18668",
            "category": "agents"
          }
        ]
      },
      "reference_link_1": {
        "original_name": "Reference Link #1",
        "value": "Occupational asthma induced by thiamine in a vitamin supplement for breakfast cereals.",
        "links": [
          {
            "text": "Occupational asthma induced by thiamine in a vitamin supplement for breakfast cereals.",
            "url": "http://www.ncbi.nlm.nih.gov/pubmed/16076312"
          }
        ],
        "cross_references": [
          {
            "type": "name_match",
            "text": "thiamine",
            "confidence": 1.0,
            "uuid": "3aa6b999-33f7-4860-b2b8-42760dd10674",
            "name": "Thiamine",
            "url": "https://haz-map.com/Agents/17375",
            "category": "agents"
          }
        ]
      },
      "biomedical_references": {
        "original_name": "Biomedical References",
        "value": "Search PubMed",
        "links": [
          {
            "text": "Search PubMed",
            "url": "https://www.ncbi.nlm.nih.gov/pubmed?term=Thiamine%20AND%20human%5Bmh%5D%20AND%20%28Occupational%20Diseases%20%5Bmh%5D%20OR%20Occupational%20Exposure%20%5Bmh%5D%29%20%20AND%20%28tox%5Bsb%5D%29&cmd=search"
          }
        ],
        "cross_references": []
      }
    },
    "exposure_assessment": {
      "vapor_pressure": {
        "original_name": "Vapor Pressure",
        "value": "1.8E-10 mm Hg",
        "links": [],
        "cross_references": []
      }
    },
    "adverse_effects": {
      "asthma": {
        "original_name": "Asthma",
        "value": "Yes",
        "links": [],
        "cross_references": []
      }
    },
    "diseases_processes_and_activities_linked_to_this_agent": {
      "diseases": {
        "original_name": "Diseases",
        "value": "Occupational diseases associated with exposure to this agent: Asthma, occupational",
        "links": [
          {
            "text": "Asthma, occupational",
            "url": "https://haz-map.com/Diseases/23"
          }
        ],
        "cross_references": [
          {
            "type": "url_match",
            "text": "Asthma, occupational",
            "url": "https://haz-map.com/Diseases/23",
            "confidence": 1.0,
            "uuid": "29c464cb-36b2-43d8-b6fc-e19a0ea695cb",
            "name": "Asthma, occupational",
            "category": "diseases"
          }
        ]
      }
    }
  },
  "cross_references": [
    {
      "type": "url_match",
      "text": "Asthma, occupational",
      "url": "https://haz-map.com/Diseases/23",
      "confidence": 1.0,
      "uuid": "29c464cb-36b2-43d8-b6fc-e19a0ea695cb",
      "name": "Asthma, occupational",
      "category": "diseases"
    },
    {
      "type": "name_match",
      "text": "ht",
      "confidence": 1.0,
      "uuid": "764df367-8d53-4a11-81a2-31ccfe122a8d",
      "name": "HT",
      "url": "https://haz-map.com/Agents/2168",
      "category": "agents"
    },
    {
      "type": "name_match",
      "text": "thiamine",
      "confidence": 1.0,
      "uuid": "3aa6b999-33f7-4860-b2b8-42760dd10674",
      "name": "Thiamine",
      "url": "https://haz-map.com/Agents/17375",
      "category": "agents"
    },
    {
      "type": "name_match",
      "text": "water",
      "confidence": 1.0,
      "uuid": "6f2a7557-dfd2-49bc-9b4b-a93cd8e225d4",
      "name": "Water",
      "url": "https://haz-map.com/Agents/18668",
      "category": "agents"
    }
  ],
  "all_links": [
    {
      "text": "Occupational asthma induced by thiamine in a vitamin supplement for breakfast cereals.",
      "url": "http://www.ncbi.nlm.nih.gov/pubmed/16076312"
    },
    {
      "text": "Search PubMed",
      "url": "https://www.ncbi.nlm.nih.gov/pubmed?term=Thiamine%20AND%20human%5Bmh%5D%20AND%20%28Occupational%20Diseases%20%5Bmh%5D%20OR%20Occupational%20Exposure%20%5Bmh%5D%29%20%20AND%20%28tox%5Bsb%5D%29&cmd=search"
    },
    {
      "text": "Asthma, occupational",
      "url": "https://haz-map.com/Diseases/23"
    }
  ]
}