{
  "metadata": {
    "scraped_from": "https://haz-map.com/Agents/5274",
    "entity_name": "Farnesol",
    "category": "agents",
    "uuid": "3aa712a3-2f5b-4942-8d5f-4a46f39b4a6d",
    "scraped_at": "2025-07-23T19:50:53.778725"
  },
  "parsed_at": "2025-07-24T00:58:45.237969",
  "title": "Farnesol",
  "sections": {
    "general": {
      "agent_name": {
        "original_name": "Agent Name",
        "value": "Farnesol",
        "links": [],
        "cross_references": [
          {
            "type": "name_match",
            "text": "farnesol",
            "confidence": 1.0,
            "uuid": "3aa712a3-2f5b-4942-8d5f-4a46f39b4a6d",
            "name": "Farnesol",
            "url": "https://haz-map.com/Agents/5274",
            "category": "agents"
          }
        ]
      },
      "cas_number": {
        "original_name": "CAS Number",
        "value": "4602-84-0",
        "links": [],
        "cross_references": []
      },
      "formula": {
        "original_name": "Formula",
        "value": "C15-H26-O",
        "links": [],
        "cross_references": []
      },
      "major_category": {
        "original_name": "Major Category",
        "value": "Biological Agents",
        "links": [],
        "cross_references": []
      },
      "synonyms": {
        "original_name": "Synonyms",
        "value": "Trimethyl dodecatrienol; 2,6,10-Dodecatrien-1-ol, 3,7,11-trimethyl-; 3,7,11-Trimethyl-2,6,10-dodecatrien-1-ol; 3,7,11-Trimethyl-2,6,10-dodecatrienol; FCI 119a; Farnesyl alcohol; Stirrup; [ChemIDplus]",
        "links": [],
        "cross_references": []
      },
      "category": {
        "original_name": "Category",
        "value": "Plant Oils and Extracts",
        "links": [],
        "cross_references": []
      },
      "description": {
        "original_name": "Description",
        "value": "Colorless liquid with a delicate floral odor; [Hawley]",
        "links": [],
        "cross_references": []
      },
      "sourcesuses": {
        "original_name": "Sources/Uses",
        "value": "Constituent of oils of citronella, neroli, cyclamen, lemon grass, tuberose, rose, musk, balsam Peru, and tolu; [Merck Index] An insect hormone; Used in perfumes and as a flavoring agent; [Hawley]",
        "links": [],
        "cross_references": [
          {
            "type": "name_match",
            "text": "cyclam",
            "confidence": 1.0,
            "uuid": "1e3b60fa-6c34-47e3-8ba4-08afb8dc47fe",
            "name": "Cyclam",
            "url": "https://haz-map.com/Agents/13361",
            "category": "agents"
          },
          {
            "type": "name_match",
            "text": "nerol",
            "confidence": 1.0,
            "uuid": "53925df0-1f00-41e3-a11b-d04ce842c736",
            "name": "Nerol",
            "url": "https://haz-map.com/Agents/15879",
            "category": "agents"
          }
        ]
      },
      "comments": {
        "original_name": "Comments",
        "value": "A mild irritant on rabbit skin; [RTECS] Danger of skin sensitization; [MAK] Included in list of \"established contact allergens in humans\"; [EC: Scientific Committee on Consumer Safety: Fragrance allergens in cosmetic products (2011)] Safe when used as a flavoring agent in food; [JECFA] May cause irritation; [MSDSonline]",
        "links": [],
        "cross_references": []
      },
      "biomedical_references": {
        "original_name": "Biomedical References",
        "value": "Search PubMed",
        "links": [
          {
            "text": "Search PubMed",
            "url": "https://www.ncbi.nlm.nih.gov/pubmed?term=Farnesol%20AND%20human%5Bmh%5D%20AND%20%28Occupational%20Diseases%20%5Bmh%5D%20OR%20Occupational%20Exposure%20%5Bmh%5D%29%20%20AND%20%28tox%5Bsb%5D%29&cmd=search"
          }
        ],
        "cross_references": []
      }
    },
    "exposure_assessment": {
      "vapor_pressure": {
        "original_name": "Vapor Pressure",
        "value": "3.94E-05 mm Hg",
        "links": [],
        "cross_references": []
      }
    },
    "adverse_effects": {
      "skin_sensitizer": {
        "original_name": "Skin Sensitizer",
        "value": "Yes",
        "links": [],
        "cross_references": []
      }
    },
    "diseases_processes_and_activities_linked_to_this_agent": {
      "diseases": {
        "original_name": "Diseases",
        "value": "Occupational diseases associated with exposure to this agent: Contact dermatitis, allergic",
        "links": [
          {
            "text": "Contact dermatitis, allergic",
            "url": "https://haz-map.com/Diseases/18"
          }
        ],
        "cross_references": [
          {
            "type": "url_match",
            "text": "Contact dermatitis, allergic",
            "url": "https://haz-map.com/Diseases/18",
            "confidence": 1.0,
            "uuid": "c9499de0-9aa1-41bf-8753-cd5b28a63e29",
            "name": "Contact dermatitis, allergic",
            "category": "diseases"
          },
          {
            "type": "name_match",
            "text": "dermatitis",
            "confidence": 1.0,
            "uuid": "fe9c05f2-b19f-4ceb-ac7a-ffb7d7a0cae0",
            "name": "dermatitis",
            "url": "https://haz-map.com/Findings/59",
            "category": "findings"
          }
        ]
      }
    }
  },
  "cross_references": [
    {
      "type": "url_match",
      "text": "Contact dermatitis, allergic",
      "url": "https://haz-map.com/Diseases/18",
      "confidence": 1.0,
      "uuid": "c9499de0-9aa1-41bf-8753-cd5b28a63e29",
      "name": "Contact dermatitis, allergic",
      "category": "diseases"
    },
    {
      "type": "name_match",
      "text": "dermatitis",
      "confidence": 1.0,
      "uuid": "fe9c05f2-b19f-4ceb-ac7a-ffb7d7a0cae0",
      "name": "dermatitis",
      "url": "https://haz-map.com/Findings/59",
      "category": "findings"
    },
    {
      "type": "name_match",
      "text": "farnesol",
      "confidence": 1.0,
      "uuid": "3aa712a3-2f5b-4942-8d5f-4a46f39b4a6d",
      "name": "Farnesol",
      "url": "https://haz-map.com/Agents/5274",
      "category": "agents"
    },
    {
      "type": "name_match",
      "text": "cyclam",
      "confidence": 1.0,
      "uuid": "1e3b60fa-6c34-47e3-8ba4-08afb8dc47fe",
      "name": "Cyclam",
      "url": "https://haz-map.com/Agents/13361",
      "category": "agents"
    },
    {
      "type": "name_match",
      "text": "nerol",
      "confidence": 1.0,
      "uuid": "53925df0-1f00-41e3-a11b-d04ce842c736",
      "name": "Nerol",
      "url": "https://haz-map.com/Agents/15879",
      "category": "agents"
    }
  ],
  "all_links": [
    {
      "text": "Search PubMed",
      "url": "https://www.ncbi.nlm.nih.gov/pubmed?term=Farnesol%20AND%20human%5Bmh%5D%20AND%20%28Occupational%20Diseases%20%5Bmh%5D%20OR%20Occupational%20Exposure%20%5Bmh%5D%29%20%20AND%20%28tox%5Bsb%5D%29&cmd=search"
    },
    {
      "text": "Contact dermatitis, allergic",
      "url": "https://haz-map.com/Diseases/18"
    }
  ]
}