{
  "metadata": {
    "scraped_from": "https://haz-map.com/Agents/6152",
    "entity_name": "Methyltriethyllead",
    "category": "agents",
    "uuid": "3acc46b7-8697-4e7b-930a-04156b2edde8",
    "scraped_at": "2025-07-23T19:59:05.785531"
  },
  "parsed_at": "2025-07-24T01:15:58.571756",
  "title": "Methyltriethyllead",
  "sections": {
    "general": {
      "agent_name": {
        "original_name": "Agent Name",
        "value": "Methyltriethyllead",
        "links": [],
        "cross_references": [
          {
            "type": "name_match",
            "text": "lead",
            "confidence": 1.0,
            "uuid": "24246eba-13d7-456a-a142-ceae0f1df43f",
            "name": "Lead",
            "url": "https://haz-map.com/Agents/10",
            "category": "agents"
          },
          {
            "type": "name_match",
            "text": "methyltriethyllead",
            "confidence": 1.0,
            "uuid": "3acc46b7-8697-4e7b-930a-04156b2edde8",
            "name": "Methyltriethyllead",
            "url": "https://haz-map.com/Agents/6152",
            "category": "agents"
          }
        ]
      },
      "cas_number": {
        "original_name": "CAS Number",
        "value": "1762-28-3",
        "links": [],
        "cross_references": []
      },
      "formula": {
        "original_name": "Formula",
        "value": "C7-H18-Pb",
        "links": [],
        "cross_references": []
      },
      "major_category": {
        "original_name": "Major Category",
        "value": "Metals",
        "links": [],
        "cross_references": []
      },
      "synonyms": {
        "original_name": "Synonyms",
        "value": "Lead, triethylmethyl-; Methyltriethylplumbane; Plumbane, triethylmethyl-; Triethylmethyllead; Triethylmethylplumbane; [ChemIDplus]",
        "links": [],
        "cross_references": [
          {
            "type": "name_match",
            "text": "lead",
            "confidence": 1.0,
            "uuid": "24246eba-13d7-456a-a142-ceae0f1df43f",
            "name": "Lead",
            "url": "https://haz-map.com/Agents/10",
            "category": "agents"
          }
        ]
      },
      "category": {
        "original_name": "Category",
        "value": "Metals, Organic Compounds",
        "links": [],
        "cross_references": [
          {
            "type": "fuzzy_match",
            "text": "organic compounds",
            "matched_name": "Tin, organic compounds",
            "confidence": 0.8196969696969697,
            "uuid": "e027d413-8869-4308-9eb2-27d768b011ea",
            "category": "agents",
            "url": "https://haz-map.com/Agents/656"
          }
        ]
      },
      "description": {
        "original_name": "Description",
        "value": "Colorless liquid; [HSDB]",
        "links": [],
        "cross_references": []
      },
      "sourcesuses": {
        "original_name": "Sources/Uses",
        "value": "Used as a gasoline additive; [HSDB]",
        "links": [],
        "cross_references": [
          {
            "type": "name_match",
            "text": "gasoline",
            "confidence": 1.0,
            "uuid": "af15c833-3eae-46c5-9af4-2214858d7282",
            "name": "Gasoline",
            "url": "https://haz-map.com/Agents/410",
            "category": "agents"
          }
        ]
      },
      "comments": {
        "original_name": "Comments",
        "value": "See \"Tetraethyl lead.\" See \"Lead\" and linked occupational diseases.",
        "links": [],
        "cross_references": [
          {
            "type": "name_match",
            "text": "lead",
            "confidence": 1.0,
            "uuid": "24246eba-13d7-456a-a142-ceae0f1df43f",
            "name": "Lead",
            "url": "https://haz-map.com/Agents/10",
            "category": "agents"
          },
          {
            "type": "name_match",
            "text": "tetraethyl lead",
            "confidence": 1.0,
            "uuid": "af61e6b8-c5d5-40d3-bc3c-a0187172c38c",
            "name": "Tetraethyl lead",
            "url": "https://haz-map.com/Agents/149",
            "category": "agents"
          }
        ]
      },
      "restricted": {
        "original_name": "Restricted",
        "value": "Tetraalkyl lead additives are no longer permitted in automobiles, but they are still used in aviation fuel; [HSDB]",
        "links": [],
        "cross_references": [
          {
            "type": "name_match",
            "text": "lead",
            "confidence": 1.0,
            "uuid": "24246eba-13d7-456a-a142-ceae0f1df43f",
            "name": "Lead",
            "url": "https://haz-map.com/Agents/10",
            "category": "agents"
          }
        ]
      },
      "biomedical_references": {
        "original_name": "Biomedical References",
        "value": "Search PubMed",
        "links": [
          {
            "text": "Search PubMed",
            "url": "https://www.ncbi.nlm.nih.gov/pubmed?term=Methyltriethyllead%20AND%20human%5Bmh%5D%20AND%20%28Occupational%20Diseases%20%5Bmh%5D%20OR%20Occupational%20Exposure%20%5Bmh%5D%29%20%20AND%20%28tox%5Bsb%5D%29&cmd=search"
          }
        ],
        "cross_references": []
      }
    },
    "exposure_assessment": {
      "vapor_pressure": {
        "original_name": "Vapor Pressure",
        "value": "1.31 mm Hg",
        "links": [],
        "cross_references": []
      },
      "explanatory_notes": {
        "original_name": "Explanatory Notes",
        "value": "VP from ChemIDplus;",
        "links": [],
        "cross_references": []
      }
    },
    "adverse_effects": {
      "anemia": {
        "original_name": "Anemia",
        "value": "Hemolytic anemia",
        "links": [],
        "cross_references": [
          {
            "type": "name_match",
            "text": "anemia",
            "confidence": 1.0,
            "uuid": "be5db7c0-2652-4940-a3d9-d0afb3e2b182",
            "name": "anemia",
            "url": "https://haz-map.com/Findings/54",
            "category": "findings"
          },
          {
            "type": "fuzzy_match",
            "text": "hemolytic anemia",
            "matched_name": "Hemolytic anemia, acute",
            "confidence": 0.7763975155279503,
            "uuid": "5036f7f9-e7c4-4f96-9fdb-89dd68e6462e",
            "category": "diseases",
            "url": "https://haz-map.com/Diseases/226"
          }
        ]
      },
      "neurotoxin": {
        "original_name": "Neurotoxin",
        "value": "Other CNS neurotoxin",
        "links": [],
        "cross_references": []
      },
      "hepatotoxin": {
        "original_name": "Hepatotoxin",
        "value": "Hepatoxic (a) from occupational exposure (secondary effect) or (b) in animal studies or in humans after ingestion",
        "links": [],
        "cross_references": []
      },
      "nephrotoxin": {
        "original_name": "Nephrotoxin",
        "value": "Yes",
        "links": [],
        "cross_references": []
      },
      "reproductive_toxin": {
        "original_name": "Reproductive Toxin",
        "value": "Yes",
        "links": [],
        "cross_references": []
      }
    },
    "diseases_processes_and_activities_linked_to_this_agent": {
      "diseases": {
        "original_name": "Diseases",
        "value": "Occupational diseases associated with exposure to this agent: Encephalopathy, acute toxic Lead, subacute toxic effect",
        "links": [
          {
            "text": "Encephalopathy, acute toxic",
            "url": "https://haz-map.com/Diseases/310"
          },
          {
            "text": "Lead, subacute toxic effect",
            "url": "https://haz-map.com/Diseases/223"
          }
        ],
        "cross_references": [
          {
            "type": "url_match",
            "text": "Encephalopathy, acute toxic",
            "url": "https://haz-map.com/Diseases/310",
            "confidence": 1.0,
            "uuid": "e3f32506-d410-4705-845c-15277418da6d",
            "name": "Encephalopathy, acute toxic",
            "category": "diseases"
          },
          {
            "type": "url_match",
            "text": "Lead, subacute toxic effect",
            "url": "https://haz-map.com/Diseases/223",
            "confidence": 1.0,
            "uuid": "c3131885-5ff5-49ba-9789-a9017b735843",
            "name": "Lead, subacute toxic effect",
            "category": "diseases"
          },
          {
            "type": "name_match",
            "text": "lead",
            "confidence": 1.0,
            "uuid": "24246eba-13d7-456a-a142-ceae0f1df43f",
            "name": "Lead",
            "url": "https://haz-map.com/Agents/10",
            "category": "agents"
          }
        ]
      },
      "processes": {
        "original_name": "Processes",
        "value": "Industrial Processes with risk of exposure: Petroleum Production and Refining",
        "links": [
          {
            "text": "Petroleum Production and Refining",
            "url": "https://haz-map.com/Processes/75"
          }
        ],
        "cross_references": [
          {
            "type": "url_match",
            "text": "Petroleum Production and Refining",
            "url": "https://haz-map.com/Processes/75",
            "confidence": 1.0,
            "uuid": "e2003948-ad28-44a5-85f6-2e3391da8917",
            "name": "Petroleum Production and Refining",
            "category": "processes"
          },
          {
            "type": "name_match",
            "text": "oleum",
            "confidence": 1.0,
            "uuid": "12af84ee-bcf0-416d-9220-7c4c6dc330f1",
            "name": "Oleum",
            "url": "https://haz-map.com/Agents/2227",
            "category": "agents"
          }
        ]
      }
    }
  },
  "cross_references": [
    {
      "type": "url_match",
      "text": "Encephalopathy, acute toxic",
      "url": "https://haz-map.com/Diseases/310",
      "confidence": 1.0,
      "uuid": "e3f32506-d410-4705-845c-15277418da6d",
      "name": "Encephalopathy, acute toxic",
      "category": "diseases"
    },
    {
      "type": "url_match",
      "text": "Lead, subacute toxic effect",
      "url": "https://haz-map.com/Diseases/223",
      "confidence": 1.0,
      "uuid": "c3131885-5ff5-49ba-9789-a9017b735843",
      "name": "Lead, subacute toxic effect",
      "category": "diseases"
    },
    {
      "type": "url_match",
      "text": "Petroleum Production and Refining",
      "url": "https://haz-map.com/Processes/75",
      "confidence": 1.0,
      "uuid": "e2003948-ad28-44a5-85f6-2e3391da8917",
      "name": "Petroleum Production and Refining",
      "category": "processes"
    },
    {
      "type": "name_match",
      "text": "anemia",
      "confidence": 1.0,
      "uuid": "be5db7c0-2652-4940-a3d9-d0afb3e2b182",
      "name": "anemia",
      "url": "https://haz-map.com/Findings/54",
      "category": "findings"
    },
    {
      "type": "name_match",
      "text": "lead",
      "confidence": 1.0,
      "uuid": "24246eba-13d7-456a-a142-ceae0f1df43f",
      "name": "Lead",
      "url": "https://haz-map.com/Agents/10",
      "category": "agents"
    },
    {
      "type": "name_match",
      "text": "tetraethyl lead",
      "confidence": 1.0,
      "uuid": "af61e6b8-c5d5-40d3-bc3c-a0187172c38c",
      "name": "Tetraethyl lead",
      "url": "https://haz-map.com/Agents/149",
      "category": "agents"
    },
    {
      "type": "name_match",
      "text": "gasoline",
      "confidence": 1.0,
      "uuid": "af15c833-3eae-46c5-9af4-2214858d7282",
      "name": "Gasoline",
      "url": "https://haz-map.com/Agents/410",
      "category": "agents"
    },
    {
      "type": "name_match",
      "text": "oleum",
      "confidence": 1.0,
      "uuid": "12af84ee-bcf0-416d-9220-7c4c6dc330f1",
      "name": "Oleum",
      "url": "https://haz-map.com/Agents/2227",
      "category": "agents"
    },
    {
      "type": "name_match",
      "text": "methyltriethyllead",
      "confidence": 1.0,
      "uuid": "3acc46b7-8697-4e7b-930a-04156b2edde8",
      "name": "Methyltriethyllead",
      "url": "https://haz-map.com/Agents/6152",
      "category": "agents"
    },
    {
      "type": "fuzzy_match",
      "text": "organic compounds",
      "matched_name": "Tin, organic compounds",
      "confidence": 0.8196969696969697,
      "uuid": "e027d413-8869-4308-9eb2-27d768b011ea",
      "category": "agents",
      "url": "https://haz-map.com/Agents/656"
    },
    {
      "type": "fuzzy_match",
      "text": "hemolytic anemia",
      "matched_name": "Hemolytic anemia, acute",
      "confidence": 0.7763975155279503,
      "uuid": "5036f7f9-e7c4-4f96-9fdb-89dd68e6462e",
      "category": "diseases",
      "url": "https://haz-map.com/Diseases/226"
    }
  ],
  "all_links": [
    {
      "text": "Search PubMed",
      "url": "https://www.ncbi.nlm.nih.gov/pubmed?term=Methyltriethyllead%20AND%20human%5Bmh%5D%20AND%20%28Occupational%20Diseases%20%5Bmh%5D%20OR%20Occupational%20Exposure%20%5Bmh%5D%29%20%20AND%20%28tox%5Bsb%5D%29&cmd=search"
    },
    {
      "text": "Encephalopathy, acute toxic",
      "url": "https://haz-map.com/Diseases/310"
    },
    {
      "text": "Lead, subacute toxic effect",
      "url": "https://haz-map.com/Diseases/223"
    },
    {
      "text": "Petroleum Production and Refining",
      "url": "https://haz-map.com/Processes/75"
    }
  ]
}