{
  "metadata": {
    "scraped_from": "https://haz-map.com/Agents/10536",
    "entity_name": "1,3,5-Trichloro-2,4,6-trinitrobenzene",
    "category": "agents",
    "uuid": "3ad05a6b-e658-4f91-979b-3f314d69b845",
    "scraped_at": "2025-07-23T20:48:56.177027"
  },
  "parsed_at": "2025-07-24T01:01:26.811717",
  "title": "1,3,5-Trichloro-2,4,6-trinitrobenzene",
  "sections": {
    "general": {
      "agent_name": {
        "original_name": "Agent Name",
        "value": "1,3,5-Trichloro-2,4,6-trinitrobenzene",
        "links": [],
        "cross_references": [
          {
            "type": "name_match",
            "text": "benzene",
            "confidence": 1.0,
            "uuid": "b05124de-5f34-4c14-8f04-ccb20c3780d9",
            "name": "Benzene",
            "url": "https://haz-map.com/Agents/5",
            "category": "agents"
          },
          {
            "type": "name_match",
            "text": "nitrobenzene",
            "confidence": 1.0,
            "uuid": "4488262c-4790-4774-a462-bf0cc71ff40c",
            "name": "Nitrobenzene",
            "url": "https://haz-map.com/Agents/569",
            "category": "agents"
          },
          {
            "type": "name_match",
            "text": "1,3,5-trichloro-2,4,6-trinitrobenzene",
            "confidence": 1.0,
            "uuid": "3ad05a6b-e658-4f91-979b-3f314d69b845",
            "name": "1,3,5-Trichloro-2,4,6-trinitrobenzene",
            "url": "https://haz-map.com/Agents/10536",
            "category": "agents"
          }
        ]
      },
      "cas_number": {
        "original_name": "CAS Number",
        "value": "2631-68-7",
        "links": [],
        "cross_references": []
      },
      "formula": {
        "original_name": "Formula",
        "value": "C6-Cl3-N3-O6",
        "links": [],
        "cross_references": []
      },
      "major_category": {
        "original_name": "Major Category",
        "value": "Nitrogen Compounds",
        "links": [],
        "cross_references": [
          {
            "type": "name_match",
            "text": "nitrogen",
            "confidence": 1.0,
            "uuid": "db5e90a9-06d2-45b9-8b81-f345a89b0bc0",
            "name": "Nitrogen",
            "url": "https://haz-map.com/Agents/1072",
            "category": "agents"
          }
        ]
      },
      "synonyms": {
        "original_name": "Synonyms",
        "value": "Bulbosan; TCTNB; Trichloro-1,3,5-trinitrobenzene; sym-Trichlorotrinitrobenzene; 1,3,5-Trichlorotrinitrobenzene; Benzene, 1,3,5-trichloro-2,4,6-trinitro-; [ChemIDplus]",
        "links": [],
        "cross_references": [
          {
            "type": "name_match",
            "text": "benzene",
            "confidence": 1.0,
            "uuid": "b05124de-5f34-4c14-8f04-ccb20c3780d9",
            "name": "Benzene",
            "url": "https://haz-map.com/Agents/5",
            "category": "agents"
          },
          {
            "type": "name_match",
            "text": "nitrobenzene",
            "confidence": 1.0,
            "uuid": "4488262c-4790-4774-a462-bf0cc71ff40c",
            "name": "Nitrobenzene",
            "url": "https://haz-map.com/Agents/569",
            "category": "agents"
          },
          {
            "type": "name_match",
            "text": "1,3,5-trinitrobenzene",
            "confidence": 1.0,
            "uuid": "32e8c7bd-b41c-4905-9ffe-fe68dbec0d5f",
            "name": "1,3,5-Trinitrobenzene",
            "url": "https://haz-map.com/Agents/1583",
            "category": "agents"
          }
        ]
      },
      "category": {
        "original_name": "Category",
        "value": "Nitros, Aromatic",
        "links": [],
        "cross_references": []
      },
      "comments": {
        "original_name": "Comments",
        "value": "A mild skin and severe eye irritant; Causes other somnolence and dyspnea in inhalation lethal-concentration studies of rats; [RTECS] See \"1,3,5-Trinitrobenzene.\" See \"Trinitrochlorobenzene.\"",
        "links": [],
        "cross_references": [
          {
            "type": "name_match",
            "text": "benzene",
            "confidence": 1.0,
            "uuid": "b05124de-5f34-4c14-8f04-ccb20c3780d9",
            "name": "Benzene",
            "url": "https://haz-map.com/Agents/5",
            "category": "agents"
          },
          {
            "type": "name_match",
            "text": "chlorobenzene",
            "confidence": 1.0,
            "uuid": "7e598eca-f35d-493c-aa78-93bb67744c4c",
            "name": "Chlorobenzene",
            "url": "https://haz-map.com/Agents/85",
            "category": "agents"
          },
          {
            "type": "name_match",
            "text": "nitrobenzene",
            "confidence": 1.0,
            "uuid": "4488262c-4790-4774-a462-bf0cc71ff40c",
            "name": "Nitrobenzene",
            "url": "https://haz-map.com/Agents/569",
            "category": "agents"
          },
          {
            "type": "name_match",
            "text": "1,3,5-trinitrobenzene",
            "confidence": 1.0,
            "uuid": "32e8c7bd-b41c-4905-9ffe-fe68dbec0d5f",
            "name": "1,3,5-Trinitrobenzene",
            "url": "https://haz-map.com/Agents/1583",
            "category": "agents"
          },
          {
            "type": "name_match",
            "text": "trinitrochlorobenzene",
            "confidence": 1.0,
            "uuid": "e879c7f1-9084-488d-80f9-becb9b652817",
            "name": "Trinitrochlorobenzene",
            "url": "https://haz-map.com/Agents/18385",
            "category": "agents"
          }
        ]
      },
      "biomedical_references": {
        "original_name": "Biomedical References",
        "value": "Search PubMed",
        "links": [
          {
            "text": "Search PubMed",
            "url": "https://www.ncbi.nlm.nih.gov/pubmed?term=1%2c3%2c5-Trichloro-2%2c4%2c6-trinitrobenzene%20AND%20human%5Bmh%5D%20AND%20%28Occupational%20Diseases%20%5Bmh%5D%20OR%20Occupational%20Exposure%20%5Bmh%5D%29%20%20AND%20%28tox%5Bsb%5D%29&cmd=search"
          }
        ],
        "cross_references": []
      }
    },
    "exposure_assessment": {
      "vapor_pressure": {
        "original_name": "Vapor Pressure",
        "value": "2.22E-07 mm Hg",
        "links": [],
        "cross_references": []
      },
      "lethal_concentration": {
        "original_name": "Lethal Concentration",
        "value": "LCLo (rat) = 684 mg/m3/1hr",
        "links": [],
        "cross_references": []
      }
    },
    "diseases_processes_and_activities_linked_to_this_agent": {
      "other_information": {
        "original_name": "Other Information",
        "value": "No other related information on this agent was found.",
        "links": [],
        "cross_references": []
      }
    }
  },
  "cross_references": [
    {
      "type": "name_match",
      "text": "benzene",
      "confidence": 1.0,
      "uuid": "b05124de-5f34-4c14-8f04-ccb20c3780d9",
      "name": "Benzene",
      "url": "https://haz-map.com/Agents/5",
      "category": "agents"
    },
    {
      "type": "name_match",
      "text": "chlorobenzene",
      "confidence": 1.0,
      "uuid": "7e598eca-f35d-493c-aa78-93bb67744c4c",
      "name": "Chlorobenzene",
      "url": "https://haz-map.com/Agents/85",
      "category": "agents"
    },
    {
      "type": "name_match",
      "text": "nitrobenzene",
      "confidence": 1.0,
      "uuid": "4488262c-4790-4774-a462-bf0cc71ff40c",
      "name": "Nitrobenzene",
      "url": "https://haz-map.com/Agents/569",
      "category": "agents"
    },
    {
      "type": "name_match",
      "text": "nitrogen",
      "confidence": 1.0,
      "uuid": "db5e90a9-06d2-45b9-8b81-f345a89b0bc0",
      "name": "Nitrogen",
      "url": "https://haz-map.com/Agents/1072",
      "category": "agents"
    },
    {
      "type": "name_match",
      "text": "1,3,5-trinitrobenzene",
      "confidence": 1.0,
      "uuid": "32e8c7bd-b41c-4905-9ffe-fe68dbec0d5f",
      "name": "1,3,5-Trinitrobenzene",
      "url": "https://haz-map.com/Agents/1583",
      "category": "agents"
    },
    {
      "type": "name_match",
      "text": "1,3,5-trichloro-2,4,6-trinitrobenzene",
      "confidence": 1.0,
      "uuid": "3ad05a6b-e658-4f91-979b-3f314d69b845",
      "name": "1,3,5-Trichloro-2,4,6-trinitrobenzene",
      "url": "https://haz-map.com/Agents/10536",
      "category": "agents"
    },
    {
      "type": "name_match",
      "text": "trinitrochlorobenzene",
      "confidence": 1.0,
      "uuid": "e879c7f1-9084-488d-80f9-becb9b652817",
      "name": "Trinitrochlorobenzene",
      "url": "https://haz-map.com/Agents/18385",
      "category": "agents"
    }
  ],
  "all_links": [
    {
      "text": "Search PubMed",
      "url": "https://www.ncbi.nlm.nih.gov/pubmed?term=1%2c3%2c5-Trichloro-2%2c4%2c6-trinitrobenzene%20AND%20human%5Bmh%5D%20AND%20%28Occupational%20Diseases%20%5Bmh%5D%20OR%20Occupational%20Exposure%20%5Bmh%5D%29%20%20AND%20%28tox%5Bsb%5D%29&cmd=search"
    }
  ]
}