{
  "metadata": {
    "scraped_from": "https://haz-map.com/Agents/7881",
    "entity_name": "1,2,3,5-Tetramethylbenzene",
    "category": "agents",
    "uuid": "3b008d00-1336-4dac-a29c-509d0cbabaca",
    "scraped_at": "2025-07-23T20:18:15.803965"
  },
  "parsed_at": "2025-07-24T01:12:55.166444",
  "title": "1,2,3,5-Tetramethylbenzene",
  "sections": {
    "general": {
      "agent_name": {
        "original_name": "Agent Name",
        "value": "1,2,3,5-Tetramethylbenzene",
        "links": [],
        "cross_references": [
          {
            "type": "name_match",
            "text": "benzene",
            "confidence": 1.0,
            "uuid": "b05124de-5f34-4c14-8f04-ccb20c3780d9",
            "name": "Benzene",
            "url": "https://haz-map.com/Agents/5",
            "category": "agents"
          },
          {
            "type": "name_match",
            "text": "1,2,3,5-tetramethylbenzene",
            "confidence": 1.0,
            "uuid": "3b008d00-1336-4dac-a29c-509d0cbabaca",
            "name": "1,2,3,5-Tetramethylbenzene",
            "url": "https://haz-map.com/Agents/7881",
            "category": "agents"
          },
          {
            "type": "fuzzy_match",
            "text": "5-tetramethylbenzene",
            "matched_name": "1,2,4,5-Tetramethylbenzene",
            "confidence": 0.7669683257918551,
            "uuid": "dd764b01-a4ed-44a2-887a-e9aee5580f93",
            "category": "agents",
            "url": "https://haz-map.com/Agents/7887"
          }
        ]
      },
      "alternative_name": {
        "original_name": "Alternative Name",
        "value": "Isodurene",
        "links": [],
        "cross_references": []
      },
      "cas_number": {
        "original_name": "CAS Number",
        "value": "527-53-7",
        "links": [],
        "cross_references": []
      },
      "formula": {
        "original_name": "Formula",
        "value": "C10-H14",
        "links": [],
        "cross_references": []
      },
      "major_category": {
        "original_name": "Major Category",
        "value": "Solvents",
        "links": [],
        "cross_references": []
      },
      "synonyms": {
        "original_name": "Synonyms",
        "value": "1,3,4,5-Tetramethylbenzene; Benzene, 1,2,3,5-tetramethyl-; Isodurene; [ChemIDplus]",
        "links": [],
        "cross_references": [
          {
            "type": "name_match",
            "text": "benzene",
            "confidence": 1.0,
            "uuid": "b05124de-5f34-4c14-8f04-ccb20c3780d9",
            "name": "Benzene",
            "url": "https://haz-map.com/Agents/5",
            "category": "agents"
          },
          {
            "type": "fuzzy_match",
            "text": "5-tetramethylbenzene",
            "matched_name": "1,2,3,5-Tetramethylbenzene",
            "confidence": 0.7669683257918551,
            "uuid": "3b008d00-1336-4dac-a29c-509d0cbabaca",
            "category": "agents",
            "url": "https://haz-map.com/Agents/7881"
          },
          {
            "type": "fuzzy_match",
            "text": "5-tetramethylbenzene",
            "matched_name": "1,2,4,5-Tetramethylbenzene",
            "confidence": 0.7669683257918551,
            "uuid": "dd764b01-a4ed-44a2-887a-e9aee5580f93",
            "category": "agents",
            "url": "https://haz-map.com/Agents/7887"
          }
        ]
      },
      "category": {
        "original_name": "Category",
        "value": "Aromatic Solvents",
        "links": [],
        "cross_references": []
      },
      "description": {
        "original_name": "Description",
        "value": "Pale yellow to white liquid with a camphor-like odor; [CAMEO]",
        "links": [],
        "cross_references": []
      },
      "comments": {
        "original_name": "Comments",
        "value": "A skin, eye, and respiratory tract irritant; [CAMEO]",
        "links": [],
        "cross_references": []
      },
      "biomedical_references": {
        "original_name": "Biomedical References",
        "value": "Search PubMed",
        "links": [
          {
            "text": "Search PubMed",
            "url": "https://www.ncbi.nlm.nih.gov/pubmed?term=1%2c2%2c3%2c5-Tetramethylbenzene%20AND%20human%5Bmh%5D%20AND%20%28Occupational%20Diseases%20%5Bmh%5D%20OR%20Occupational%20Exposure%20%5Bmh%5D%29%20%20AND%20%28tox%5Bsb%5D%29&cmd=search"
          }
        ],
        "cross_references": []
      }
    },
    "exposure_assessment": {
      "vapor_pressure": {
        "original_name": "Vapor Pressure",
        "value": "0.498 mm Hg",
        "links": [],
        "cross_references": []
      },
      "explanatory_notes": {
        "original_name": "Explanatory Notes",
        "value": "VP from ChemIDplus;",
        "links": [],
        "cross_references": []
      },
      "nfpa": {
        "original_name": "NFPA",
        "value": "high ambient temp required",
        "links": [],
        "cross_references": []
      }
    },
    "adverse_effects": {
      "neurotoxin": {
        "original_name": "Neurotoxin",
        "value": "Acute solvent syndrome",
        "links": [],
        "cross_references": []
      }
    },
    "diseases_processes_and_activities_linked_to_this_agent": {
      "diseases": {
        "original_name": "Diseases",
        "value": "Occupational diseases associated with exposure to this agent: Solvents, acute toxic effect",
        "links": [
          {
            "text": "Solvents, acute toxic effect",
            "url": "https://haz-map.com/Diseases/326"
          }
        ],
        "cross_references": [
          {
            "type": "url_match",
            "text": "Solvents, acute toxic effect",
            "url": "https://haz-map.com/Diseases/326",
            "confidence": 1.0,
            "uuid": "581e90e3-9d0c-45f0-aa6c-3468c28da129",
            "name": "Solvents, acute toxic effect",
            "category": "diseases"
          }
        ]
      }
    }
  },
  "cross_references": [
    {
      "type": "url_match",
      "text": "Solvents, acute toxic effect",
      "url": "https://haz-map.com/Diseases/326",
      "confidence": 1.0,
      "uuid": "581e90e3-9d0c-45f0-aa6c-3468c28da129",
      "name": "Solvents, acute toxic effect",
      "category": "diseases"
    },
    {
      "type": "name_match",
      "text": "benzene",
      "confidence": 1.0,
      "uuid": "b05124de-5f34-4c14-8f04-ccb20c3780d9",
      "name": "Benzene",
      "url": "https://haz-map.com/Agents/5",
      "category": "agents"
    },
    {
      "type": "name_match",
      "text": "1,2,3,5-tetramethylbenzene",
      "confidence": 1.0,
      "uuid": "3b008d00-1336-4dac-a29c-509d0cbabaca",
      "name": "1,2,3,5-Tetramethylbenzene",
      "url": "https://haz-map.com/Agents/7881",
      "category": "agents"
    },
    {
      "type": "fuzzy_match",
      "text": "5-tetramethylbenzene",
      "matched_name": "1,2,4,5-Tetramethylbenzene",
      "confidence": 0.7669683257918551,
      "uuid": "dd764b01-a4ed-44a2-887a-e9aee5580f93",
      "category": "agents",
      "url": "https://haz-map.com/Agents/7887"
    }
  ],
  "all_links": [
    {
      "text": "Search PubMed",
      "url": "https://www.ncbi.nlm.nih.gov/pubmed?term=1%2c2%2c3%2c5-Tetramethylbenzene%20AND%20human%5Bmh%5D%20AND%20%28Occupational%20Diseases%20%5Bmh%5D%20OR%20Occupational%20Exposure%20%5Bmh%5D%29%20%20AND%20%28tox%5Bsb%5D%29&cmd=search"
    },
    {
      "text": "Solvents, acute toxic effect",
      "url": "https://haz-map.com/Diseases/326"
    }
  ]
}