{
  "metadata": {
    "scraped_from": "https://haz-map.com/Agents/1542",
    "entity_name": "Propadiene",
    "category": "agents",
    "uuid": "3bb51650-35df-44ec-b1c7-a813b3424010",
    "scraped_at": "2025-07-23T19:00:52.131995"
  },
  "parsed_at": "2025-07-24T01:11:57.363367",
  "title": "Propadiene",
  "sections": {
    "general": {
      "agent_name": {
        "original_name": "Agent Name",
        "value": "Propadiene",
        "links": [],
        "cross_references": [
          {
            "type": "name_match",
            "text": "propadiene",
            "confidence": 1.0,
            "uuid": "3bb51650-35df-44ec-b1c7-a813b3424010",
            "name": "Propadiene",
            "url": "https://haz-map.com/Agents/1542",
            "category": "agents"
          }
        ]
      },
      "cas_number": {
        "original_name": "CAS Number",
        "value": "463-49-0",
        "links": [],
        "cross_references": []
      },
      "formula": {
        "original_name": "Formula",
        "value": "C3-H4",
        "links": [],
        "cross_references": []
      },
      "major_category": {
        "original_name": "Major Category",
        "value": "Toxic Gases & Vapors",
        "links": [],
        "cross_references": []
      },
      "synonyms": {
        "original_name": "Synonyms",
        "value": "1,2-Propadiene; Allene; Dimethylenemethane; Sym-allylene; UN2200; [ChemIDplus]",
        "links": [],
        "cross_references": [
          {
            "type": "name_match",
            "text": "methane",
            "confidence": 1.0,
            "uuid": "5018bf73-24be-4353-8643-c351d5f52186",
            "name": "Methane",
            "url": "https://haz-map.com/Agents/1074",
            "category": "agents"
          },
          {
            "type": "name_match",
            "text": "ethane",
            "confidence": 1.0,
            "uuid": "5162cc8c-dfb9-4060-81ac-38a8cec7f9dd",
            "name": "Ethane",
            "url": "https://haz-map.com/Agents/1075",
            "category": "agents"
          },
          {
            "type": "name_match",
            "text": "ethylene",
            "confidence": 1.0,
            "uuid": "958eacc0-5135-4b62-bb93-6df972bf552f",
            "name": "Ethylene",
            "url": "https://haz-map.com/Agents/1076",
            "category": "agents"
          },
          {
            "type": "name_match",
            "text": "propadiene",
            "confidence": 1.0,
            "uuid": "3bb51650-35df-44ec-b1c7-a813b3424010",
            "name": "Propadiene",
            "url": "https://haz-map.com/Agents/1542",
            "category": "agents"
          }
        ]
      },
      "category": {
        "original_name": "Category",
        "value": "Simple Asphyxiants",
        "links": [],
        "cross_references": []
      },
      "description": {
        "original_name": "Description",
        "value": "Colorless gas; [HSDB]",
        "links": [],
        "cross_references": []
      },
      "sourcesuses": {
        "original_name": "Sources/Uses",
        "value": "Used as a chemical intermediate, a fuel gas for welding when mixed with propyne, and a monomer; [HSDB]",
        "links": [],
        "cross_references": [
          {
            "type": "name_match",
            "text": "welding",
            "confidence": 1.0,
            "uuid": "e3d0f0df-0977-480c-9c78-ba89501210a7",
            "name": "Welding",
            "url": "https://haz-map.com/Processes/41",
            "category": "processes"
          },
          {
            "type": "name_match",
            "text": "mica",
            "confidence": 1.0,
            "uuid": "433f26f1-c399-4596-b179-ce3843cfd465",
            "name": "Mica",
            "url": "https://haz-map.com/Agents/621",
            "category": "agents"
          }
        ]
      },
      "comments": {
        "original_name": "Comments",
        "value": "Inhaling high concentrations can cause lightheadedness and syncope; [NJ-HSFS] Liquefied gas may cause frostbite. A simple asphyxiant; [CAMEO] Propadiene, stabilized (UN2200) has warning of explosive polymerization; [ERG 2016]",
        "links": [],
        "cross_references": [
          {
            "type": "name_match",
            "text": "syncope",
            "confidence": 1.0,
            "uuid": "2c538494-dd39-46f3-840f-4c36434a46fb",
            "name": "syncope",
            "url": "https://haz-map.com/Findings/48",
            "category": "findings"
          },
          {
            "type": "name_match",
            "text": "propadiene",
            "confidence": 1.0,
            "uuid": "3bb51650-35df-44ec-b1c7-a813b3424010",
            "name": "Propadiene",
            "url": "https://haz-map.com/Agents/1542",
            "category": "agents"
          },
          {
            "type": "name_match",
            "text": "ht",
            "confidence": 1.0,
            "uuid": "764df367-8d53-4a11-81a2-31ccfe122a8d",
            "name": "HT",
            "url": "https://haz-map.com/Agents/2168",
            "category": "agents"
          }
        ]
      },
      "biomedical_references": {
        "original_name": "Biomedical References",
        "value": "Search PubMed",
        "links": [
          {
            "text": "Search PubMed",
            "url": "https://www.ncbi.nlm.nih.gov/pubmed?term=Propadiene%20AND%20human%5Bmh%5D%20AND%20%28Occupational%20Diseases%20%5Bmh%5D%20OR%20Occupational%20Exposure%20%5Bmh%5D%29%20%20AND%20%28tox%5Bsb%5D%29&cmd=search"
          }
        ],
        "cross_references": []
      }
    },
    "exposure_assessment": {
      "vapor_pressure": {
        "original_name": "Vapor Pressure",
        "value": "5430 mm Hg",
        "links": [],
        "cross_references": []
      },
      "explosive_polymerization": {
        "original_name": "Explosive Polymerization",
        "value": "Yes",
        "links": [],
        "cross_references": []
      }
    },
    "adverse_effects": {
      "neurotoxin": {
        "original_name": "Neurotoxin",
        "value": "Acute solvent syndrome",
        "links": [],
        "cross_references": []
      },
      "other_poison": {
        "original_name": "Other Poison",
        "value": "Simple Asphyxiant",
        "links": [],
        "cross_references": []
      }
    },
    "diseases_processes_and_activities_linked_to_this_agent": {
      "diseases": {
        "original_name": "Diseases",
        "value": "Occupational diseases associated with exposure to this agent: Asphyxiation, simple Solvents, acute toxic effect",
        "links": [
          {
            "text": "Asphyxiation, simple",
            "url": "https://haz-map.com/Diseases/350"
          },
          {
            "text": "Solvents, acute toxic effect",
            "url": "https://haz-map.com/Diseases/326"
          }
        ],
        "cross_references": [
          {
            "type": "url_match",
            "text": "Asphyxiation, simple",
            "url": "https://haz-map.com/Diseases/350",
            "confidence": 1.0,
            "uuid": "f9936602-4ce5-4b46-944a-f9aa73462bfd",
            "name": "Asphyxiation, simple",
            "category": "diseases"
          },
          {
            "type": "url_match",
            "text": "Solvents, acute toxic effect",
            "url": "https://haz-map.com/Diseases/326",
            "confidence": 1.0,
            "uuid": "581e90e3-9d0c-45f0-aa6c-3468c28da129",
            "name": "Solvents, acute toxic effect",
            "category": "diseases"
          }
        ]
      },
      "processes": {
        "original_name": "Processes",
        "value": "Industrial Processes with risk of exposure: Gas Welding and Cutting",
        "links": [
          {
            "text": "Gas Welding and Cutting",
            "url": "https://haz-map.com/Processes/185"
          }
        ],
        "cross_references": [
          {
            "type": "url_match",
            "text": "Gas Welding and Cutting",
            "url": "https://haz-map.com/Processes/185",
            "confidence": 1.0,
            "uuid": "026ec9ad-e5e8-4c25-81ca-5d3a91de8caf",
            "name": "Gas Welding and Cutting",
            "category": "processes"
          },
          {
            "type": "name_match",
            "text": "welding",
            "confidence": 1.0,
            "uuid": "e3d0f0df-0977-480c-9c78-ba89501210a7",
            "name": "Welding",
            "url": "https://haz-map.com/Processes/41",
            "category": "processes"
          }
        ]
      }
    }
  },
  "cross_references": [
    {
      "type": "url_match",
      "text": "Asphyxiation, simple",
      "url": "https://haz-map.com/Diseases/350",
      "confidence": 1.0,
      "uuid": "f9936602-4ce5-4b46-944a-f9aa73462bfd",
      "name": "Asphyxiation, simple",
      "category": "diseases"
    },
    {
      "type": "url_match",
      "text": "Solvents, acute toxic effect",
      "url": "https://haz-map.com/Diseases/326",
      "confidence": 1.0,
      "uuid": "581e90e3-9d0c-45f0-aa6c-3468c28da129",
      "name": "Solvents, acute toxic effect",
      "category": "diseases"
    },
    {
      "type": "url_match",
      "text": "Gas Welding and Cutting",
      "url": "https://haz-map.com/Processes/185",
      "confidence": 1.0,
      "uuid": "026ec9ad-e5e8-4c25-81ca-5d3a91de8caf",
      "name": "Gas Welding and Cutting",
      "category": "processes"
    },
    {
      "type": "name_match",
      "text": "welding",
      "confidence": 1.0,
      "uuid": "e3d0f0df-0977-480c-9c78-ba89501210a7",
      "name": "Welding",
      "url": "https://haz-map.com/Processes/41",
      "category": "processes"
    },
    {
      "type": "name_match",
      "text": "syncope",
      "confidence": 1.0,
      "uuid": "2c538494-dd39-46f3-840f-4c36434a46fb",
      "name": "syncope",
      "url": "https://haz-map.com/Findings/48",
      "category": "findings"
    },
    {
      "type": "name_match",
      "text": "mica",
      "confidence": 1.0,
      "uuid": "433f26f1-c399-4596-b179-ce3843cfd465",
      "name": "Mica",
      "url": "https://haz-map.com/Agents/621",
      "category": "agents"
    },
    {
      "type": "name_match",
      "text": "methane",
      "confidence": 1.0,
      "uuid": "5018bf73-24be-4353-8643-c351d5f52186",
      "name": "Methane",
      "url": "https://haz-map.com/Agents/1074",
      "category": "agents"
    },
    {
      "type": "name_match",
      "text": "ethane",
      "confidence": 1.0,
      "uuid": "5162cc8c-dfb9-4060-81ac-38a8cec7f9dd",
      "name": "Ethane",
      "url": "https://haz-map.com/Agents/1075",
      "category": "agents"
    },
    {
      "type": "name_match",
      "text": "ethylene",
      "confidence": 1.0,
      "uuid": "958eacc0-5135-4b62-bb93-6df972bf552f",
      "name": "Ethylene",
      "url": "https://haz-map.com/Agents/1076",
      "category": "agents"
    },
    {
      "type": "name_match",
      "text": "propadiene",
      "confidence": 1.0,
      "uuid": "3bb51650-35df-44ec-b1c7-a813b3424010",
      "name": "Propadiene",
      "url": "https://haz-map.com/Agents/1542",
      "category": "agents"
    },
    {
      "type": "name_match",
      "text": "ht",
      "confidence": 1.0,
      "uuid": "764df367-8d53-4a11-81a2-31ccfe122a8d",
      "name": "HT",
      "url": "https://haz-map.com/Agents/2168",
      "category": "agents"
    }
  ],
  "all_links": [
    {
      "text": "Search PubMed",
      "url": "https://www.ncbi.nlm.nih.gov/pubmed?term=Propadiene%20AND%20human%5Bmh%5D%20AND%20%28Occupational%20Diseases%20%5Bmh%5D%20OR%20Occupational%20Exposure%20%5Bmh%5D%29%20%20AND%20%28tox%5Bsb%5D%29&cmd=search"
    },
    {
      "text": "Asphyxiation, simple",
      "url": "https://haz-map.com/Diseases/350"
    },
    {
      "text": "Solvents, acute toxic effect",
      "url": "https://haz-map.com/Diseases/326"
    },
    {
      "text": "Gas Welding and Cutting",
      "url": "https://haz-map.com/Processes/185"
    }
  ]
}