{
  "metadata": {
    "scraped_from": "https://haz-map.com/Agents/14475",
    "entity_name": "Guanine",
    "category": "agents",
    "uuid": "3bbb12eb-7c2d-4b9e-844b-3d512b28f9ed",
    "scraped_at": "2025-07-23T21:23:11.332632"
  },
  "parsed_at": "2025-07-24T01:11:14.071798",
  "title": "Guanine",
  "sections": {
    "general": {
      "agent_name": {
        "original_name": "Agent Name",
        "value": "Guanine",
        "links": [],
        "cross_references": [
          {
            "type": "name_match",
            "text": "guanine",
            "confidence": 1.0,
            "uuid": "3bbb12eb-7c2d-4b9e-844b-3d512b28f9ed",
            "name": "Guanine",
            "url": "https://haz-map.com/Agents/14475",
            "category": "agents"
          }
        ]
      },
      "cas_number": {
        "original_name": "CAS Number",
        "value": "73-40-5",
        "links": [],
        "cross_references": []
      },
      "formula": {
        "original_name": "Formula",
        "value": "C5-H5-N5-O",
        "links": [],
        "cross_references": []
      },
      "major_category": {
        "original_name": "Major Category",
        "value": "Biological Agents",
        "links": [],
        "cross_references": []
      },
      "synonyms": {
        "original_name": "Synonyms",
        "value": "2-Amino-1,7-dihydro-6H-purin-6-one; CI 75170; 6H-Purin-6-one, 2-amino-1,7-dihydro-; 6H-Purin-6-one, 2-amino-1,9-dihydro-; 2-Amino-6-hydroxypurine; 2-Amino-6-purinol; 2-Aminohypoxanthine; 6-Hydroxy-2-aminopurine; C.I. 75170; C.I. Natural White 1; CI Natural White 1; Dew Pearl; Guanin; Guanine enol; Hypoxanthine, 2-amino-; Mearlmaid; Natural Pearl Essence; Natural White 1; Naturon; Pathocidin; Pearl Essence; Stella Polaris; [ChemIDplus] 2-Amino-1,9-dihydro-6H-purin-6-one; [Merck Index]",
        "links": [],
        "cross_references": [
          {
            "type": "name_match",
            "text": "guanine",
            "confidence": 1.0,
            "uuid": "3bbb12eb-7c2d-4b9e-844b-3d512b28f9ed",
            "name": "Guanine",
            "url": "https://haz-map.com/Agents/14475",
            "category": "agents"
          },
          {
            "type": "name_match",
            "text": "hypoxanthine",
            "confidence": 1.0,
            "uuid": "5893eab6-f3f2-4884-8c3a-b0eb8ce16a3c",
            "name": "Hypoxanthine",
            "url": "https://haz-map.com/Agents/14843",
            "category": "agents"
          },
          {
            "type": "name_match",
            "text": "xanthine",
            "confidence": 1.0,
            "uuid": "6440504f-a48b-4564-b510-e9733c09428b",
            "name": "Xanthine",
            "url": "https://haz-map.com/Agents/18695",
            "category": "agents"
          }
        ]
      },
      "category": {
        "original_name": "Category",
        "value": "Nucleic Acids and Derivatives",
        "links": [],
        "cross_references": []
      },
      "description": {
        "original_name": "Description",
        "value": "Solid; [Merck Index] White crystals; [Acros Organics MSDS]",
        "links": [],
        "cross_references": []
      },
      "sourcesuses": {
        "original_name": "Sources/Uses",
        "value": "Component of nucleic acids found throughout nature; [Merck Index] Used in biochemical research and as a colorant for externally applied cosmetics and drugs; [HSDB]",
        "links": [],
        "cross_references": [
          {
            "type": "name_match",
            "text": "mica",
            "confidence": 1.0,
            "uuid": "433f26f1-c399-4596-b179-ce3843cfd465",
            "name": "Mica",
            "url": "https://haz-map.com/Agents/621",
            "category": "agents"
          }
        ]
      },
      "comments": {
        "original_name": "Comments",
        "value": "Oral lethal-dose (mouse) > 3,333 mg/kg; [RTECS] An irritant; Tumor development reported in experimental animals; [Acros Organics MSDS]",
        "links": [],
        "cross_references": []
      },
      "biomedical_references": {
        "original_name": "Biomedical References",
        "value": "Search PubMed",
        "links": [
          {
            "text": "Search PubMed",
            "url": "https://www.ncbi.nlm.nih.gov/pubmed?term=Guanine%20AND%20human%5Bmh%5D%20AND%20%28Occupational%20Diseases%20%5Bmh%5D%20OR%20Occupational%20Exposure%20%5Bmh%5D%29%20%20AND%20%28tox%5Bsb%5D%29&cmd=search"
          }
        ],
        "cross_references": []
      }
    },
    "exposure_assessment": {
      "vapor_pressure": {
        "original_name": "Vapor Pressure",
        "value": "9.6E-11 mm Hg",
        "links": [],
        "cross_references": []
      }
    },
    "diseases_processes_and_activities_linked_to_this_agent": {
      "other_information": {
        "original_name": "Other Information",
        "value": "No other related information on this agent was found.",
        "links": [],
        "cross_references": []
      }
    }
  },
  "cross_references": [
    {
      "type": "name_match",
      "text": "mica",
      "confidence": 1.0,
      "uuid": "433f26f1-c399-4596-b179-ce3843cfd465",
      "name": "Mica",
      "url": "https://haz-map.com/Agents/621",
      "category": "agents"
    },
    {
      "type": "name_match",
      "text": "guanine",
      "confidence": 1.0,
      "uuid": "3bbb12eb-7c2d-4b9e-844b-3d512b28f9ed",
      "name": "Guanine",
      "url": "https://haz-map.com/Agents/14475",
      "category": "agents"
    },
    {
      "type": "name_match",
      "text": "hypoxanthine",
      "confidence": 1.0,
      "uuid": "5893eab6-f3f2-4884-8c3a-b0eb8ce16a3c",
      "name": "Hypoxanthine",
      "url": "https://haz-map.com/Agents/14843",
      "category": "agents"
    },
    {
      "type": "name_match",
      "text": "xanthine",
      "confidence": 1.0,
      "uuid": "6440504f-a48b-4564-b510-e9733c09428b",
      "name": "Xanthine",
      "url": "https://haz-map.com/Agents/18695",
      "category": "agents"
    }
  ],
  "all_links": [
    {
      "text": "Search PubMed",
      "url": "https://www.ncbi.nlm.nih.gov/pubmed?term=Guanine%20AND%20human%5Bmh%5D%20AND%20%28Occupational%20Diseases%20%5Bmh%5D%20OR%20Occupational%20Exposure%20%5Bmh%5D%29%20%20AND%20%28tox%5Bsb%5D%29&cmd=search"
    }
  ]
}