{
  "metadata": {
    "scraped_from": "https://haz-map.com/Agents/17040",
    "entity_name": "Pyridoxamine dihydrochloride",
    "category": "agents",
    "uuid": "3c10317c-d576-40f2-be1c-5549b281fb4d",
    "scraped_at": "2025-07-23T21:42:56.302437"
  },
  "parsed_at": "2025-07-24T01:13:34.112752",
  "title": "Pyridoxamine dihydrochloride",
  "sections": {
    "general": {
      "agent_name": {
        "original_name": "Agent Name",
        "value": "Pyridoxamine dihydrochloride",
        "links": [],
        "cross_references": [
          {
            "type": "name_match",
            "text": "pyridoxamine dihydrochloride",
            "confidence": 1.0,
            "uuid": "3c10317c-d576-40f2-be1c-5549b281fb4d",
            "name": "Pyridoxamine dihydrochloride",
            "url": "https://haz-map.com/Agents/17040",
            "category": "agents"
          }
        ]
      },
      "cas_number": {
        "original_name": "CAS Number",
        "value": "524-36-7",
        "links": [],
        "cross_references": []
      },
      "formula": {
        "original_name": "Formula",
        "value": "C8-H12-N2-O2.2Cl-H",
        "links": [],
        "cross_references": []
      },
      "major_category": {
        "original_name": "Major Category",
        "value": "Biological Agents",
        "links": [],
        "cross_references": []
      },
      "synonyms": {
        "original_name": "Synonyms",
        "value": "2-Methyl-3-hydroxy-4-aminomethyl-5-hydroxymethylpyridene dihydrochloride; 3-Pyridinemethanol, 4-(aminomethyl)-5-hydroxy-6-methyl-, dihydrochloride; 4-(Aminomethyl)-5-hydroxy-6-methyl-3-pyridinemethanol dihydrochloride; Pyridoxamine dichlorohydrate; Pyridoxylamine dihydrochloride; [ChemIDplus] 4-(Aminomethyl)-5-hydroxy-6-methyl-3-pyridinemethanol hydrochloride (1:2); [Merck Index]",
        "links": [],
        "cross_references": [
          {
            "type": "name_match",
            "text": "pyridine",
            "confidence": 1.0,
            "uuid": "a2d916a4-844b-4df6-9be5-868b2b364d71",
            "name": "Pyridine",
            "url": "https://haz-map.com/Agents/616",
            "category": "agents"
          }
        ]
      },
      "category": {
        "original_name": "Category",
        "value": "Vitamins and Derivatives",
        "links": [],
        "cross_references": []
      },
      "description": {
        "original_name": "Description",
        "value": "Solid; [Merck Index] White to off-white solid; [Acros Organics MSDS]",
        "links": [],
        "cross_references": []
      },
      "sourcesuses": {
        "original_name": "Sources/Uses",
        "value": "\"The 4-aminomethyl form of VITAMIN B 6. During transamination of amino acids, PYRIDOXAL PHOSPHATE is transiently converted into pyridoxamine phosphate.\" [ChemIDplus]",
        "links": [],
        "cross_references": [
          {
            "type": "name_match",
            "text": "pyridoxal",
            "confidence": 1.0,
            "uuid": "d5882a3b-2dcb-4b88-8f59-6d2507563cdb",
            "name": "Pyridoxal",
            "url": "https://haz-map.com/Agents/17038",
            "category": "agents"
          }
        ]
      },
      "comments": {
        "original_name": "Comments",
        "value": "Causes convulsions in oral and subcutaneous lethal-dose studies of mice and rats; [RTECS] An irritant; [Acros Organics MSDS] See \"Pyridoxine hydrochloride.\"",
        "links": [],
        "cross_references": [
          {
            "type": "name_match",
            "text": "convulsion",
            "confidence": 1.0,
            "uuid": "af2c36f8-707a-48e3-a62b-1aa07adc9b72",
            "name": "convulsion",
            "url": "https://haz-map.com/Findings/14",
            "category": "findings"
          },
          {
            "type": "name_match",
            "text": "pyridoxine",
            "confidence": 1.0,
            "uuid": "d18fa8ac-e5f3-461f-af5f-8f90de5fe52d",
            "name": "Pyridoxine",
            "url": "https://haz-map.com/Agents/17041",
            "category": "agents"
          },
          {
            "type": "name_match",
            "text": "pyridoxine hydrochloride",
            "confidence": 1.0,
            "uuid": "e4c2df4f-32d1-4bb8-9d9b-da4b4483359a",
            "name": "Pyridoxine hydrochloride",
            "url": "https://haz-map.com/Agents/17042",
            "category": "agents"
          }
        ]
      },
      "biomedical_references": {
        "original_name": "Biomedical References",
        "value": "Search PubMed",
        "links": [
          {
            "text": "Search PubMed",
            "url": "https://www.ncbi.nlm.nih.gov/pubmed?term=Pyridoxamine+dihydrochloride%20AND%20human%5Bmh%5D%20AND%20%28Occupational%20Diseases%20%5Bmh%5D%20OR%20Occupational%20Exposure%20%5Bmh%5D%29%20%20AND%20%28tox%5Bsb%5D%29&cmd=search"
          }
        ],
        "cross_references": []
      }
    },
    "exposure_assessment": {
      "vapor_pressure": {
        "original_name": "Vapor Pressure",
        "value": "1.44E-06 mm Hg",
        "links": [],
        "cross_references": []
      }
    },
    "diseases_processes_and_activities_linked_to_this_agent": {
      "other_information": {
        "original_name": "Other Information",
        "value": "No other related information on this agent was found.",
        "links": [],
        "cross_references": []
      }
    }
  },
  "cross_references": [
    {
      "type": "name_match",
      "text": "convulsion",
      "confidence": 1.0,
      "uuid": "af2c36f8-707a-48e3-a62b-1aa07adc9b72",
      "name": "convulsion",
      "url": "https://haz-map.com/Findings/14",
      "category": "findings"
    },
    {
      "type": "name_match",
      "text": "pyridine",
      "confidence": 1.0,
      "uuid": "a2d916a4-844b-4df6-9be5-868b2b364d71",
      "name": "Pyridine",
      "url": "https://haz-map.com/Agents/616",
      "category": "agents"
    },
    {
      "type": "name_match",
      "text": "pyridoxal",
      "confidence": 1.0,
      "uuid": "d5882a3b-2dcb-4b88-8f59-6d2507563cdb",
      "name": "Pyridoxal",
      "url": "https://haz-map.com/Agents/17038",
      "category": "agents"
    },
    {
      "type": "name_match",
      "text": "pyridoxamine dihydrochloride",
      "confidence": 1.0,
      "uuid": "3c10317c-d576-40f2-be1c-5549b281fb4d",
      "name": "Pyridoxamine dihydrochloride",
      "url": "https://haz-map.com/Agents/17040",
      "category": "agents"
    },
    {
      "type": "name_match",
      "text": "pyridoxine",
      "confidence": 1.0,
      "uuid": "d18fa8ac-e5f3-461f-af5f-8f90de5fe52d",
      "name": "Pyridoxine",
      "url": "https://haz-map.com/Agents/17041",
      "category": "agents"
    },
    {
      "type": "name_match",
      "text": "pyridoxine hydrochloride",
      "confidence": 1.0,
      "uuid": "e4c2df4f-32d1-4bb8-9d9b-da4b4483359a",
      "name": "Pyridoxine hydrochloride",
      "url": "https://haz-map.com/Agents/17042",
      "category": "agents"
    }
  ],
  "all_links": [
    {
      "text": "Search PubMed",
      "url": "https://www.ncbi.nlm.nih.gov/pubmed?term=Pyridoxamine+dihydrochloride%20AND%20human%5Bmh%5D%20AND%20%28Occupational%20Diseases%20%5Bmh%5D%20OR%20Occupational%20Exposure%20%5Bmh%5D%29%20%20AND%20%28tox%5Bsb%5D%29&cmd=search"
    }
  ]
}