{
  "metadata": {
    "scraped_from": "https://haz-map.com/Agents/7693",
    "entity_name": "Usnic acid",
    "category": "agents",
    "uuid": "3c294c02-99db-4078-8a77-86d2988c65a3",
    "scraped_at": "2025-07-23T20:15:46.461365"
  },
  "parsed_at": "2025-07-24T01:00:04.692651",
  "title": "Usnic acid",
  "sections": {
    "general": {
      "agent_name": {
        "original_name": "Agent Name",
        "value": "Usnic acid",
        "links": [],
        "cross_references": [
          {
            "type": "name_match",
            "text": "usnic acid",
            "confidence": 1.0,
            "uuid": "3c294c02-99db-4078-8a77-86d2988c65a3",
            "name": "Usnic acid",
            "url": "https://haz-map.com/Agents/7693",
            "category": "agents"
          }
        ]
      },
      "cas_number": {
        "original_name": "CAS Number",
        "value": "125-46-2",
        "links": [],
        "cross_references": []
      },
      "formula": {
        "original_name": "Formula",
        "value": "C18-H16-O7",
        "links": [],
        "cross_references": []
      },
      "major_category": {
        "original_name": "Major Category",
        "value": "Other Uses",
        "links": [],
        "cross_references": []
      },
      "synonyms": {
        "original_name": "Synonyms",
        "value": "1,3-(2H,9bH)-Dibenzofurandione, 2,6-diacetyl-7,9-dihydroxy-8,9b-dimethyl-; 2,6-Diacetyl-7,9-dihydroxy-8,9b-dimethyl-1,3(2H,9bH)-dibenzofurandione; Usnein; Usniacin; Usninic acid; Usninsaeure [German]; Usno; [ChemIDplus]",
        "links": [],
        "cross_references": [
          {
            "type": "name_match",
            "text": "furan",
            "confidence": 1.0,
            "uuid": "96da3d2e-f46b-4100-9000-704d1a86985b",
            "name": "Furan",
            "url": "https://haz-map.com/Agents/1477",
            "category": "agents"
          },
          {
            "type": "name_match",
            "text": "diacetyl",
            "confidence": 1.0,
            "uuid": "20088625-7702-4c7d-8a1a-a49f60d24950",
            "name": "Diacetyl",
            "url": "https://haz-map.com/Agents/1853",
            "category": "agents"
          },
          {
            "type": "name_match",
            "text": "benzofuran",
            "confidence": 1.0,
            "uuid": "433f9324-e799-4045-b9dc-d8468b9b9b05",
            "name": "Benzofuran",
            "url": "https://haz-map.com/Agents/3855",
            "category": "agents"
          },
          {
            "type": "name_match",
            "text": "dibenzofuran",
            "confidence": 1.0,
            "uuid": "1d3e7279-5130-4180-a1f4-aab842b5b78f",
            "name": "Dibenzofuran",
            "url": "https://haz-map.com/Agents/4736",
            "category": "agents"
          }
        ]
      },
      "category": {
        "original_name": "Category",
        "value": "Preservatives",
        "links": [],
        "cross_references": []
      },
      "description": {
        "original_name": "Description",
        "value": "Yellow solid; [Merck Index] Yellow crystalline solid; [MSDSonline]",
        "links": [],
        "cross_references": [
          {
            "type": "fuzzy_match",
            "text": "crystalline",
            "matched_name": "Silica, crystalline",
            "confidence": 0.7061403508771931,
            "uuid": "f920e8a2-46df-41b7-af8d-0368a777251e",
            "category": "agents",
            "url": "https://haz-map.com/Agents/427"
          }
        ]
      },
      "sourcesuses": {
        "original_name": "Sources/Uses",
        "value": "Antibacterial compound present in lichens; [Merck Index] Used as preservative and antibiotic (folk remedy); [HSDB] Used as a topical antibiotic; Workers exposed to lichens (forestry and horticulture) may develop allergic contact dermatitis. [Kanerva, p. 1845]",
        "links": [],
        "cross_references": [
          {
            "type": "name_match",
            "text": "dermatitis",
            "confidence": 1.0,
            "uuid": "fe9c05f2-b19f-4ceb-ac7a-ffb7d7a0cae0",
            "name": "dermatitis",
            "url": "https://haz-map.com/Findings/59",
            "category": "findings"
          },
          {
            "type": "fuzzy_match",
            "text": "contact dermatitis",
            "matched_name": "Contact dermatitis, allergic",
            "confidence": 0.7214285714285715,
            "uuid": "c9499de0-9aa1-41bf-8753-cd5b28a63e29",
            "category": "diseases",
            "url": "https://haz-map.com/Diseases/18"
          }
        ]
      },
      "comments": {
        "original_name": "Comments",
        "value": "May cause skin irritation and allergic contact dermatitis; [HSDB]",
        "links": [],
        "cross_references": [
          {
            "type": "name_match",
            "text": "dermatitis",
            "confidence": 1.0,
            "uuid": "fe9c05f2-b19f-4ceb-ac7a-ffb7d7a0cae0",
            "name": "dermatitis",
            "url": "https://haz-map.com/Findings/59",
            "category": "findings"
          },
          {
            "type": "fuzzy_match",
            "text": "contact dermatitis",
            "matched_name": "Contact dermatitis, allergic",
            "confidence": 0.7214285714285715,
            "uuid": "c9499de0-9aa1-41bf-8753-cd5b28a63e29",
            "category": "diseases",
            "url": "https://haz-map.com/Diseases/18"
          }
        ]
      },
      "reference_link_1": {
        "original_name": "Reference Link #1",
        "value": "A case of contact dermatitis from lichens in south... [Contact Dermatitis. 1995] - PubMed result",
        "links": [
          {
            "text": "A case of contact dermatitis from lichens in south... [Contact Dermatitis. 1995] - PubMed result",
            "url": "http://www.ncbi.nlm.nih.gov/pubmed/7720383?itool=EntrezSystem2.PEntrez.Pubmed.Pubmed_ResultsPanel.Pubmed_RVDocSum&ordinalpos=2"
          }
        ],
        "cross_references": [
          {
            "type": "name_match",
            "text": "dermatitis",
            "confidence": 1.0,
            "uuid": "fe9c05f2-b19f-4ceb-ac7a-ffb7d7a0cae0",
            "name": "dermatitis",
            "url": "https://haz-map.com/Findings/59",
            "category": "findings"
          },
          {
            "type": "fuzzy_match",
            "text": "contact dermatitis",
            "matched_name": "Contact dermatitis, allergic",
            "confidence": 0.7214285714285715,
            "uuid": "c9499de0-9aa1-41bf-8753-cd5b28a63e29",
            "category": "diseases",
            "url": "https://haz-map.com/Diseases/18"
          }
        ]
      },
      "biomedical_references": {
        "original_name": "Biomedical References",
        "value": "Search PubMed",
        "links": [
          {
            "text": "Search PubMed",
            "url": "https://www.ncbi.nlm.nih.gov/pubmed?term=Usnic+acid%20AND%20human%5Bmh%5D%20AND%20%28Occupational%20Diseases%20%5Bmh%5D%20OR%20Occupational%20Exposure%20%5Bmh%5D%29%20%20AND%20%28tox%5Bsb%5D%29&cmd=search"
          }
        ],
        "cross_references": []
      }
    },
    "exposure_assessment": {
      "vapor_pressure": {
        "original_name": "Vapor Pressure",
        "value": "1.14E-12 mm Hg",
        "links": [],
        "cross_references": []
      }
    },
    "adverse_effects": {
      "skin_sensitizer": {
        "original_name": "Skin Sensitizer",
        "value": "Yes",
        "links": [],
        "cross_references": []
      }
    },
    "diseases_processes_and_activities_linked_to_this_agent": {
      "diseases": {
        "original_name": "Diseases",
        "value": "Occupational diseases associated with exposure to this agent: Contact dermatitis, allergic",
        "links": [
          {
            "text": "Contact dermatitis, allergic",
            "url": "https://haz-map.com/Diseases/18"
          }
        ],
        "cross_references": [
          {
            "type": "url_match",
            "text": "Contact dermatitis, allergic",
            "url": "https://haz-map.com/Diseases/18",
            "confidence": 1.0,
            "uuid": "c9499de0-9aa1-41bf-8753-cd5b28a63e29",
            "name": "Contact dermatitis, allergic",
            "category": "diseases"
          },
          {
            "type": "name_match",
            "text": "dermatitis",
            "confidence": 1.0,
            "uuid": "fe9c05f2-b19f-4ceb-ac7a-ffb7d7a0cae0",
            "name": "dermatitis",
            "url": "https://haz-map.com/Findings/59",
            "category": "findings"
          }
        ]
      },
      "activities": {
        "original_name": "Activities",
        "value": "Activities with risk of exposure: Ingesting herbal remedies",
        "links": [
          {
            "text": "Ingesting herbal remedies",
            "url": "https://haz-map.com/Activities/39"
          }
        ],
        "cross_references": [
          {
            "type": "url_match",
            "text": "Ingesting herbal remedies",
            "url": "https://haz-map.com/Activities/39",
            "confidence": 1.0,
            "uuid": "81af869a-ce9b-483d-a700-ce2845d38c9c",
            "name": "Ingesting herbal remedies",
            "category": "activities"
          }
        ]
      }
    }
  },
  "cross_references": [
    {
      "type": "url_match",
      "text": "Contact dermatitis, allergic",
      "url": "https://haz-map.com/Diseases/18",
      "confidence": 1.0,
      "uuid": "c9499de0-9aa1-41bf-8753-cd5b28a63e29",
      "name": "Contact dermatitis, allergic",
      "category": "diseases"
    },
    {
      "type": "url_match",
      "text": "Ingesting herbal remedies",
      "url": "https://haz-map.com/Activities/39",
      "confidence": 1.0,
      "uuid": "81af869a-ce9b-483d-a700-ce2845d38c9c",
      "name": "Ingesting herbal remedies",
      "category": "activities"
    },
    {
      "type": "name_match",
      "text": "dermatitis",
      "confidence": 1.0,
      "uuid": "fe9c05f2-b19f-4ceb-ac7a-ffb7d7a0cae0",
      "name": "dermatitis",
      "url": "https://haz-map.com/Findings/59",
      "category": "findings"
    },
    {
      "type": "name_match",
      "text": "furan",
      "confidence": 1.0,
      "uuid": "96da3d2e-f46b-4100-9000-704d1a86985b",
      "name": "Furan",
      "url": "https://haz-map.com/Agents/1477",
      "category": "agents"
    },
    {
      "type": "name_match",
      "text": "diacetyl",
      "confidence": 1.0,
      "uuid": "20088625-7702-4c7d-8a1a-a49f60d24950",
      "name": "Diacetyl",
      "url": "https://haz-map.com/Agents/1853",
      "category": "agents"
    },
    {
      "type": "name_match",
      "text": "benzofuran",
      "confidence": 1.0,
      "uuid": "433f9324-e799-4045-b9dc-d8468b9b9b05",
      "name": "Benzofuran",
      "url": "https://haz-map.com/Agents/3855",
      "category": "agents"
    },
    {
      "type": "name_match",
      "text": "dibenzofuran",
      "confidence": 1.0,
      "uuid": "1d3e7279-5130-4180-a1f4-aab842b5b78f",
      "name": "Dibenzofuran",
      "url": "https://haz-map.com/Agents/4736",
      "category": "agents"
    },
    {
      "type": "name_match",
      "text": "usnic acid",
      "confidence": 1.0,
      "uuid": "3c294c02-99db-4078-8a77-86d2988c65a3",
      "name": "Usnic acid",
      "url": "https://haz-map.com/Agents/7693",
      "category": "agents"
    },
    {
      "type": "fuzzy_match",
      "text": "crystalline",
      "matched_name": "Silica, crystalline",
      "confidence": 0.7061403508771931,
      "uuid": "f920e8a2-46df-41b7-af8d-0368a777251e",
      "category": "agents",
      "url": "https://haz-map.com/Agents/427"
    }
  ],
  "all_links": [
    {
      "text": "A case of contact dermatitis from lichens in south... [Contact Dermatitis. 1995] - PubMed result",
      "url": "http://www.ncbi.nlm.nih.gov/pubmed/7720383?itool=EntrezSystem2.PEntrez.Pubmed.Pubmed_ResultsPanel.Pubmed_RVDocSum&ordinalpos=2"
    },
    {
      "text": "Search PubMed",
      "url": "https://www.ncbi.nlm.nih.gov/pubmed?term=Usnic+acid%20AND%20human%5Bmh%5D%20AND%20%28Occupational%20Diseases%20%5Bmh%5D%20OR%20Occupational%20Exposure%20%5Bmh%5D%29%20%20AND%20%28tox%5Bsb%5D%29&cmd=search"
    },
    {
      "text": "Contact dermatitis, allergic",
      "url": "https://haz-map.com/Diseases/18"
    },
    {
      "text": "Ingesting herbal remedies",
      "url": "https://haz-map.com/Activities/39"
    }
  ]
}