{
  "metadata": {
    "scraped_from": "https://haz-map.com/Agents/6440",
    "entity_name": "Octyl potassium phosphate",
    "category": "agents",
    "uuid": "3cdb333b-32bb-4782-b892-a70ec6f523dc",
    "scraped_at": "2025-07-23T20:02:04.171519"
  },
  "parsed_at": "2025-07-24T01:05:56.490901",
  "title": "Octyl potassium phosphate",
  "sections": {
    "general": {
      "agent_name": {
        "original_name": "Agent Name",
        "value": "Octyl potassium phosphate",
        "links": [],
        "cross_references": [
          {
            "type": "name_match",
            "text": "potassium",
            "confidence": 1.0,
            "uuid": "41542f50-8311-43c8-9ec6-078665bee9df",
            "name": "Potassium",
            "url": "https://haz-map.com/Agents/1526",
            "category": "agents"
          },
          {
            "type": "name_match",
            "text": "octyl potassium phosphate",
            "confidence": 1.0,
            "uuid": "3cdb333b-32bb-4782-b892-a70ec6f523dc",
            "name": "Octyl potassium phosphate",
            "url": "https://haz-map.com/Agents/6440",
            "category": "agents"
          },
          {
            "type": "fuzzy_match",
            "text": "potassium phosphate",
            "matched_name": "Potassium phosphate, dibasic",
            "confidence": 0.7059523809523809,
            "uuid": "4a78c42d-6068-4c71-be72-b869294b2ec7",
            "category": "agents",
            "url": "https://haz-map.com/Agents/5007"
          }
        ]
      },
      "cas_number": {
        "original_name": "CAS Number",
        "value": "19045-79-5",
        "links": [],
        "cross_references": []
      },
      "formula": {
        "original_name": "Formula",
        "value": "C8-H17-O4-P.2K",
        "links": [],
        "cross_references": []
      },
      "major_category": {
        "original_name": "Major Category",
        "value": "Other Classes",
        "links": [],
        "cross_references": []
      },
      "synonyms": {
        "original_name": "Synonyms",
        "value": "Dipotassium monooctyl phosphate; Octyl dipotassium phosphate; Phosphoric acid, monooctyl ester, dipotassium salt; Dipotassium octyl phosphate; Phosphoric acid, monooctyl ester, potassium salt; [ChemIDplus]",
        "links": [],
        "cross_references": [
          {
            "type": "name_match",
            "text": "phosphoric acid",
            "confidence": 1.0,
            "uuid": "9049e74c-22b3-4fb1-8e7f-53f17c0ec74a",
            "name": "Phosphoric acid",
            "url": "https://haz-map.com/Agents/595",
            "category": "agents"
          },
          {
            "type": "name_match",
            "text": "potassium",
            "confidence": 1.0,
            "uuid": "41542f50-8311-43c8-9ec6-078665bee9df",
            "name": "Potassium",
            "url": "https://haz-map.com/Agents/1526",
            "category": "agents"
          },
          {
            "type": "name_match",
            "text": "monooctyl phosphate",
            "confidence": 1.0,
            "uuid": "dffb2bad-f207-4fb7-b494-efb4c3ba4e51",
            "name": "Monooctyl phosphate",
            "url": "https://haz-map.com/Agents/6202",
            "category": "agents"
          },
          {
            "type": "fuzzy_match",
            "text": "potassium phosphate",
            "matched_name": "Potassium phosphate, dibasic",
            "confidence": 0.7059523809523809,
            "uuid": "4a78c42d-6068-4c71-be72-b869294b2ec7",
            "category": "agents",
            "url": "https://haz-map.com/Agents/5007"
          }
        ]
      },
      "category": {
        "original_name": "Category",
        "value": "Organophosphates, Other",
        "links": [],
        "cross_references": [
          {
            "type": "name_match",
            "text": "organophosphates",
            "confidence": 1.0,
            "uuid": "8d2d239c-20f9-4f02-9916-5e7667b9990c",
            "name": "ORGANOPHOSPHATES",
            "url": "https://haz-map.com/Agents/702",
            "category": "agents"
          }
        ]
      },
      "sourcesuses": {
        "original_name": "Sources/Uses",
        "value": "Polyphosphated octyl alcohol: Used as a surface active agent; [HSDB]",
        "links": [],
        "cross_references": []
      },
      "biomedical_references": {
        "original_name": "Biomedical References",
        "value": "Search PubMed",
        "links": [
          {
            "text": "Search PubMed",
            "url": "https://www.ncbi.nlm.nih.gov/pubmed?term=Octyl+potassium+phosphate%20AND%20human%5Bmh%5D%20AND%20%28Occupational%20Diseases%20%5Bmh%5D%20OR%20Occupational%20Exposure%20%5Bmh%5D%29%20%20AND%20%28tox%5Bsb%5D%29&cmd=search"
          }
        ],
        "cross_references": []
      }
    },
    "exposure_assessment": {
      "vapor_pressure": {
        "original_name": "Vapor Pressure",
        "value": "2.06E-08 mm Hg",
        "links": [],
        "cross_references": []
      }
    },
    "diseases_processes_and_activities_linked_to_this_agent": {
      "other_information": {
        "original_name": "Other Information",
        "value": "No other related information on this agent was found.",
        "links": [],
        "cross_references": []
      }
    }
  },
  "cross_references": [
    {
      "type": "name_match",
      "text": "phosphoric acid",
      "confidence": 1.0,
      "uuid": "9049e74c-22b3-4fb1-8e7f-53f17c0ec74a",
      "name": "Phosphoric acid",
      "url": "https://haz-map.com/Agents/595",
      "category": "agents"
    },
    {
      "type": "name_match",
      "text": "organophosphates",
      "confidence": 1.0,
      "uuid": "8d2d239c-20f9-4f02-9916-5e7667b9990c",
      "name": "ORGANOPHOSPHATES",
      "url": "https://haz-map.com/Agents/702",
      "category": "agents"
    },
    {
      "type": "name_match",
      "text": "potassium",
      "confidence": 1.0,
      "uuid": "41542f50-8311-43c8-9ec6-078665bee9df",
      "name": "Potassium",
      "url": "https://haz-map.com/Agents/1526",
      "category": "agents"
    },
    {
      "type": "name_match",
      "text": "monooctyl phosphate",
      "confidence": 1.0,
      "uuid": "dffb2bad-f207-4fb7-b494-efb4c3ba4e51",
      "name": "Monooctyl phosphate",
      "url": "https://haz-map.com/Agents/6202",
      "category": "agents"
    },
    {
      "type": "name_match",
      "text": "octyl potassium phosphate",
      "confidence": 1.0,
      "uuid": "3cdb333b-32bb-4782-b892-a70ec6f523dc",
      "name": "Octyl potassium phosphate",
      "url": "https://haz-map.com/Agents/6440",
      "category": "agents"
    },
    {
      "type": "fuzzy_match",
      "text": "potassium phosphate",
      "matched_name": "Potassium phosphate, dibasic",
      "confidence": 0.7059523809523809,
      "uuid": "4a78c42d-6068-4c71-be72-b869294b2ec7",
      "category": "agents",
      "url": "https://haz-map.com/Agents/5007"
    }
  ],
  "all_links": [
    {
      "text": "Search PubMed",
      "url": "https://www.ncbi.nlm.nih.gov/pubmed?term=Octyl+potassium+phosphate%20AND%20human%5Bmh%5D%20AND%20%28Occupational%20Diseases%20%5Bmh%5D%20OR%20Occupational%20Exposure%20%5Bmh%5D%29%20%20AND%20%28tox%5Bsb%5D%29&cmd=search"
    }
  ]
}