{
  "metadata": {
    "scraped_from": "https://haz-map.com/Agents/11582",
    "entity_name": "Tetradecan-3-one",
    "category": "agents",
    "uuid": "3d253c8b-ce1b-44b3-9bc1-b33646c73a5b",
    "scraped_at": "2025-07-23T21:01:31.290455"
  },
  "parsed_at": "2025-07-24T01:02:24.629846",
  "title": "Tetradecan-3-one",
  "sections": {
    "general": {
      "agent_name": {
        "original_name": "Agent Name",
        "value": "Tetradecan-3-one",
        "links": [],
        "cross_references": [
          {
            "type": "name_match",
            "text": "tetradecan-3-one",
            "confidence": 1.0,
            "uuid": "3d253c8b-ce1b-44b3-9bc1-b33646c73a5b",
            "name": "Tetradecan-3-one",
            "url": "https://haz-map.com/Agents/11582",
            "category": "agents"
          }
        ]
      },
      "cas_number": {
        "original_name": "CAS Number",
        "value": "629-23-2",
        "links": [],
        "cross_references": []
      },
      "formula": {
        "original_name": "Formula",
        "value": "C14-H28-O",
        "links": [],
        "cross_references": []
      },
      "major_category": {
        "original_name": "Major Category",
        "value": "Other Classes",
        "links": [],
        "cross_references": []
      },
      "synonyms": {
        "original_name": "Synonyms",
        "value": "3-Tetradecanone; [ChemSampCo MSDS]",
        "links": [],
        "cross_references": []
      },
      "category": {
        "original_name": "Category",
        "value": "Aliphatic Ketones, Other",
        "links": [],
        "cross_references": []
      },
      "description": {
        "original_name": "Description",
        "value": "Melting point = 34 deg C; [ChemIDplus] Solid; [Sigma-Aldrich MSDS]",
        "links": [],
        "cross_references": []
      },
      "comments": {
        "original_name": "Comments",
        "value": "May cause irritation; [Sigma-Aldrich MSDS]",
        "links": [],
        "cross_references": []
      },
      "biomedical_references": {
        "original_name": "Biomedical References",
        "value": "Search PubMed",
        "links": [
          {
            "text": "Search PubMed",
            "url": "https://www.ncbi.nlm.nih.gov/pubmed?term=Tetradecan-3-one%20AND%20human%5Bmh%5D%20AND%20%28Occupational%20Diseases%20%5Bmh%5D%20OR%20Occupational%20Exposure%20%5Bmh%5D%29%20%20AND%20%28tox%5Bsb%5D%29&cmd=search"
          }
        ],
        "cross_references": []
      }
    },
    "diseases_processes_and_activities_linked_to_this_agent": {
      "other_information": {
        "original_name": "Other Information",
        "value": "No other related information on this agent was found.",
        "links": [],
        "cross_references": []
      }
    }
  },
  "cross_references": [
    {
      "type": "name_match",
      "text": "tetradecan-3-one",
      "confidence": 1.0,
      "uuid": "3d253c8b-ce1b-44b3-9bc1-b33646c73a5b",
      "name": "Tetradecan-3-one",
      "url": "https://haz-map.com/Agents/11582",
      "category": "agents"
    }
  ],
  "all_links": [
    {
      "text": "Search PubMed",
      "url": "https://www.ncbi.nlm.nih.gov/pubmed?term=Tetradecan-3-one%20AND%20human%5Bmh%5D%20AND%20%28Occupational%20Diseases%20%5Bmh%5D%20OR%20Occupational%20Exposure%20%5Bmh%5D%29%20%20AND%20%28tox%5Bsb%5D%29&cmd=search"
    }
  ]
}