{
  "metadata": {
    "scraped_from": "https://haz-map.com/Agents/20612",
    "entity_name": "Dimethyl L-tartrate",
    "category": "agents",
    "uuid": "3d32f890-7968-4c7b-9a97-f71a0c93234a",
    "scraped_at": "2025-07-23T22:28:30.755741"
  },
  "parsed_at": "2025-07-24T01:09:48.131586",
  "title": "Dimethyl L-tartrate",
  "sections": {
    "general": {
      "agent_name": {
        "original_name": "Agent Name",
        "value": "Dimethyl L-tartrate",
        "links": [],
        "cross_references": [
          {
            "type": "name_match",
            "text": "dimethyl l-tartrate",
            "confidence": 1.0,
            "uuid": "3d32f890-7968-4c7b-9a97-f71a0c93234a",
            "name": "Dimethyl L-tartrate",
            "url": "https://haz-map.com/Agents/20612",
            "category": "agents"
          }
        ]
      },
      "cas_number": {
        "original_name": "CAS Number",
        "value": "608-68-4",
        "links": [],
        "cross_references": []
      },
      "formula": {
        "original_name": "Formula",
        "value": "C6-H10-O6",
        "links": [],
        "cross_references": []
      },
      "major_category": {
        "original_name": "Major Category",
        "value": "Other Classes",
        "links": [],
        "cross_references": []
      },
      "synonyms": {
        "original_name": "Synonyms",
        "value": "L-Dimethyl tartrate; Butanedioic acid, 2,3-dihydroxy- (2R,3R)-, 1,4-dimethyl ester; Butanedioic acid, 2,3-dihydroxy- (2R,3R)-, dimethyl ester; Dimethyl (R(R*,R*))-tartrate; [ChemIDplus] (+)-Dimethyl L-tartrate; L-(+)-Tartaric acid dimethyl ester; [Sigma-Aldrich MSDS]",
        "links": [],
        "cross_references": [
          {
            "type": "name_match",
            "text": "dimethyl l-tartrate",
            "confidence": 1.0,
            "uuid": "3d32f890-7968-4c7b-9a97-f71a0c93234a",
            "name": "Dimethyl L-tartrate",
            "url": "https://haz-map.com/Agents/20612",
            "category": "agents"
          }
        ]
      },
      "category": {
        "original_name": "Category",
        "value": "Esters, Other",
        "links": [],
        "cross_references": []
      },
      "description": {
        "original_name": "Description",
        "value": "White crystalline solid; [Sigma-Aldrich MSDS]",
        "links": [],
        "cross_references": [
          {
            "type": "fuzzy_match",
            "text": "crystalline",
            "matched_name": "Silica, crystalline",
            "confidence": 0.7061403508771931,
            "uuid": "f920e8a2-46df-41b7-af8d-0368a777251e",
            "category": "agents",
            "url": "https://haz-map.com/Agents/427"
          }
        ]
      },
      "comments": {
        "original_name": "Comments",
        "value": "May cause irritation; [Sigma-Aldrich MSDS] See \"L-Tartaric acid.\"",
        "links": [],
        "cross_references": [
          {
            "type": "name_match",
            "text": "l-tartaric acid",
            "confidence": 1.0,
            "uuid": "22739e6b-22a4-431e-bed1-8ccb3603dc30",
            "name": "L-Tartaric acid",
            "url": "https://haz-map.com/Agents/19086",
            "category": "agents"
          }
        ]
      },
      "biomedical_references": {
        "original_name": "Biomedical References",
        "value": "Search PubMed",
        "links": [
          {
            "text": "Search PubMed",
            "url": "https://www.ncbi.nlm.nih.gov/pubmed?term=Dimethyl+L-tartrate%20AND%20human%5Bmh%5D%20AND%20%28Occupational%20Diseases%20%5Bmh%5D%20OR%20Occupational%20Exposure%20%5Bmh%5D%29%20%20AND%20%28tox%5Bsb%5D%29&cmd=search"
          }
        ],
        "cross_references": []
      }
    },
    "exposure_assessment": {
      "vapor_pressure": {
        "original_name": "Vapor Pressure",
        "value": "0.000647 mm Hg",
        "links": [],
        "cross_references": []
      }
    },
    "diseases_processes_and_activities_linked_to_this_agent": {
      "other_information": {
        "original_name": "Other Information",
        "value": "No other related information on this agent was found.",
        "links": [],
        "cross_references": []
      }
    }
  },
  "cross_references": [
    {
      "type": "name_match",
      "text": "l-tartaric acid",
      "confidence": 1.0,
      "uuid": "22739e6b-22a4-431e-bed1-8ccb3603dc30",
      "name": "L-Tartaric acid",
      "url": "https://haz-map.com/Agents/19086",
      "category": "agents"
    },
    {
      "type": "name_match",
      "text": "dimethyl l-tartrate",
      "confidence": 1.0,
      "uuid": "3d32f890-7968-4c7b-9a97-f71a0c93234a",
      "name": "Dimethyl L-tartrate",
      "url": "https://haz-map.com/Agents/20612",
      "category": "agents"
    },
    {
      "type": "fuzzy_match",
      "text": "crystalline",
      "matched_name": "Silica, crystalline",
      "confidence": 0.7061403508771931,
      "uuid": "f920e8a2-46df-41b7-af8d-0368a777251e",
      "category": "agents",
      "url": "https://haz-map.com/Agents/427"
    }
  ],
  "all_links": [
    {
      "text": "Search PubMed",
      "url": "https://www.ncbi.nlm.nih.gov/pubmed?term=Dimethyl+L-tartrate%20AND%20human%5Bmh%5D%20AND%20%28Occupational%20Diseases%20%5Bmh%5D%20OR%20Occupational%20Exposure%20%5Bmh%5D%29%20%20AND%20%28tox%5Bsb%5D%29&cmd=search"
    }
  ]
}