{
  "metadata": {
    "scraped_from": "https://haz-map.com/Agents/20335",
    "entity_name": "Bis(2-ethoxyethyl) phthalate",
    "category": "agents",
    "uuid": "3e0898cd-8d6b-454f-8ba4-eb2c8eca3a10",
    "scraped_at": "2025-07-23T22:23:19.913666"
  },
  "parsed_at": "2025-07-24T01:08:52.633321",
  "title": "Bis(2-ethoxyethyl) phthalate",
  "sections": {
    "general": {
      "agent_name": {
        "original_name": "Agent Name",
        "value": "Bis(2-ethoxyethyl) phthalate",
        "links": [],
        "cross_references": [
          {
            "type": "name_match",
            "text": "ht",
            "confidence": 1.0,
            "uuid": "764df367-8d53-4a11-81a2-31ccfe122a8d",
            "name": "HT",
            "url": "https://haz-map.com/Agents/2168",
            "category": "agents"
          },
          {
            "type": "name_match",
            "text": "bis(2-ethoxyethyl) phthalate",
            "confidence": 1.0,
            "uuid": "3e0898cd-8d6b-454f-8ba4-eb2c8eca3a10",
            "name": "Bis(2-ethoxyethyl) phthalate",
            "url": "https://haz-map.com/Agents/20335",
            "category": "agents"
          }
        ]
      },
      "cas_number": {
        "original_name": "CAS Number",
        "value": "605-54-9",
        "links": [],
        "cross_references": []
      },
      "formula": {
        "original_name": "Formula",
        "value": "C16-H22-O6",
        "links": [],
        "cross_references": []
      },
      "major_category": {
        "original_name": "Major Category",
        "value": "Plastics & Rubber",
        "links": [],
        "cross_references": []
      },
      "synonyms": {
        "original_name": "Synonyms",
        "value": "1,2-Benzenedicarboxylic acid, bis(2-ethoxyethyl) ester; Bis(2-ethoxyethyl)phthalate; Bis(ethoxyethyl)phthalate; Diethoxyethyl phthalate; Phthalic acid, bis(2-ethoxyethyl) ester; 1,2-Benzenedicarboxylic acid, 1,2-bis(2-ethoxyethyl) ester; [ChemIDplus]",
        "links": [],
        "cross_references": [
          {
            "type": "name_match",
            "text": "benzene",
            "confidence": 1.0,
            "uuid": "b05124de-5f34-4c14-8f04-ccb20c3780d9",
            "name": "Benzene",
            "url": "https://haz-map.com/Agents/5",
            "category": "agents"
          },
          {
            "type": "name_match",
            "text": "ht",
            "confidence": 1.0,
            "uuid": "764df367-8d53-4a11-81a2-31ccfe122a8d",
            "name": "HT",
            "url": "https://haz-map.com/Agents/2168",
            "category": "agents"
          },
          {
            "type": "name_match",
            "text": "phthalic acid",
            "confidence": 1.0,
            "uuid": "f19ac6b5-df06-48aa-81e6-825cdcfe8f9c",
            "name": "Phthalic acid",
            "url": "https://haz-map.com/Agents/6702",
            "category": "agents"
          }
        ]
      },
      "category": {
        "original_name": "Category",
        "value": "Phthalate Esters",
        "links": [],
        "cross_references": [
          {
            "type": "name_match",
            "text": "phthalate esters",
            "confidence": 1.0,
            "uuid": "6f8fc6c6-e324-464d-adaa-cf23803fb860",
            "name": "PHTHALATE ESTERS",
            "url": "https://haz-map.com/Agents/704",
            "category": "agents"
          },
          {
            "type": "name_match",
            "text": "ht",
            "confidence": 1.0,
            "uuid": "764df367-8d53-4a11-81a2-31ccfe122a8d",
            "name": "HT",
            "url": "https://haz-map.com/Agents/2168",
            "category": "agents"
          }
        ]
      },
      "description": {
        "original_name": "Description",
        "value": "Melting point = 34 deg C; [ChemIDplus]",
        "links": [],
        "cross_references": []
      },
      "comments": {
        "original_name": "Comments",
        "value": "See \"PHTHALATE ESTERS.\"",
        "links": [],
        "cross_references": [
          {
            "type": "name_match",
            "text": "phthalate esters",
            "confidence": 1.0,
            "uuid": "6f8fc6c6-e324-464d-adaa-cf23803fb860",
            "name": "PHTHALATE ESTERS",
            "url": "https://haz-map.com/Agents/704",
            "category": "agents"
          },
          {
            "type": "name_match",
            "text": "ht",
            "confidence": 1.0,
            "uuid": "764df367-8d53-4a11-81a2-31ccfe122a8d",
            "name": "HT",
            "url": "https://haz-map.com/Agents/2168",
            "category": "agents"
          }
        ]
      },
      "biomedical_references": {
        "original_name": "Biomedical References",
        "value": "Search PubMed",
        "links": [
          {
            "text": "Search PubMed",
            "url": "https://www.ncbi.nlm.nih.gov/pubmed?term=Bis(2-ethoxyethyl)+phthalate%20AND%20human%5Bmh%5D%20AND%20%28Occupational%20Diseases%20%5Bmh%5D%20OR%20Occupational%20Exposure%20%5Bmh%5D%29%20%20AND%20%28tox%5Bsb%5D%29&cmd=search"
          }
        ],
        "cross_references": []
      }
    },
    "diseases_processes_and_activities_linked_to_this_agent": {
      "other_information": {
        "original_name": "Other Information",
        "value": "No other related information on this agent was found.",
        "links": [],
        "cross_references": []
      }
    }
  },
  "cross_references": [
    {
      "type": "name_match",
      "text": "benzene",
      "confidence": 1.0,
      "uuid": "b05124de-5f34-4c14-8f04-ccb20c3780d9",
      "name": "Benzene",
      "url": "https://haz-map.com/Agents/5",
      "category": "agents"
    },
    {
      "type": "name_match",
      "text": "phthalate esters",
      "confidence": 1.0,
      "uuid": "6f8fc6c6-e324-464d-adaa-cf23803fb860",
      "name": "PHTHALATE ESTERS",
      "url": "https://haz-map.com/Agents/704",
      "category": "agents"
    },
    {
      "type": "name_match",
      "text": "ht",
      "confidence": 1.0,
      "uuid": "764df367-8d53-4a11-81a2-31ccfe122a8d",
      "name": "HT",
      "url": "https://haz-map.com/Agents/2168",
      "category": "agents"
    },
    {
      "type": "name_match",
      "text": "phthalic acid",
      "confidence": 1.0,
      "uuid": "f19ac6b5-df06-48aa-81e6-825cdcfe8f9c",
      "name": "Phthalic acid",
      "url": "https://haz-map.com/Agents/6702",
      "category": "agents"
    },
    {
      "type": "name_match",
      "text": "bis(2-ethoxyethyl) phthalate",
      "confidence": 1.0,
      "uuid": "3e0898cd-8d6b-454f-8ba4-eb2c8eca3a10",
      "name": "Bis(2-ethoxyethyl) phthalate",
      "url": "https://haz-map.com/Agents/20335",
      "category": "agents"
    }
  ],
  "all_links": [
    {
      "text": "Search PubMed",
      "url": "https://www.ncbi.nlm.nih.gov/pubmed?term=Bis(2-ethoxyethyl)+phthalate%20AND%20human%5Bmh%5D%20AND%20%28Occupational%20Diseases%20%5Bmh%5D%20OR%20Occupational%20Exposure%20%5Bmh%5D%29%20%20AND%20%28tox%5Bsb%5D%29&cmd=search"
    }
  ]
}