{
  "metadata": {
    "scraped_from": "https://haz-map.com/Agents/15951",
    "entity_name": "Nicotine tartrate",
    "category": "agents",
    "uuid": "3e27c05f-cea7-4026-b6e5-fd3e74032f57",
    "scraped_at": "2025-07-23T21:33:16.611633"
  },
  "parsed_at": "2025-07-24T00:57:18.697593",
  "title": "Nicotine tartrate",
  "sections": {
    "general": {
      "agent_name": {
        "original_name": "Agent Name",
        "value": "Nicotine tartrate",
        "links": [],
        "cross_references": [
          {
            "type": "name_match",
            "text": "nicotine",
            "confidence": 1.0,
            "uuid": "07bfdaa7-cb27-4f79-8544-77b3bc05d2e6",
            "name": "Nicotine",
            "url": "https://haz-map.com/Agents/566",
            "category": "agents"
          },
          {
            "type": "name_match",
            "text": "nicotine tartrate",
            "confidence": 1.0,
            "uuid": "3e27c05f-cea7-4026-b6e5-fd3e74032f57",
            "name": "Nicotine tartrate",
            "url": "https://haz-map.com/Agents/15951",
            "category": "agents"
          }
        ]
      },
      "cas_number": {
        "original_name": "CAS Number",
        "value": "65-31-6",
        "links": [],
        "cross_references": []
      },
      "formula": {
        "original_name": "Formula",
        "value": "C10-H14-N2.2C4-H6-O6",
        "links": [],
        "cross_references": []
      },
      "major_category": {
        "original_name": "Major Category",
        "value": "Biological Agents",
        "links": [],
        "cross_references": []
      },
      "synonyms": {
        "original_name": "Synonyms",
        "value": "Nicotine acid tartrate; Nicotine bitartrate; Nicotine ditartrate; Nicotine hydrogen tartrate; Nicotine, tartrate (1:2); Nikotinbitartrat [German]; Pyridine, 3-(1-methyl-2-pyrrolidinyl)-, (S)-, (R-(R*,R*))-2,3-dihydroxybutanedioate (1:2); Tartrate de nicotine [French]; Nicotine dihydrogen ditartrate; Pyridine, 3-((2S)-1-methyl-2-pyrrolidinyl)-, (2R,3R)-2,3-dihydroxybutanedioate (1:2); [ChemIDplus] UN1659",
        "links": [],
        "cross_references": [
          {
            "type": "name_match",
            "text": "nicotine",
            "confidence": 1.0,
            "uuid": "07bfdaa7-cb27-4f79-8544-77b3bc05d2e6",
            "name": "Nicotine",
            "url": "https://haz-map.com/Agents/566",
            "category": "agents"
          },
          {
            "type": "name_match",
            "text": "pyridine",
            "confidence": 1.0,
            "uuid": "a2d916a4-844b-4df6-9be5-868b2b364d71",
            "name": "Pyridine",
            "url": "https://haz-map.com/Agents/616",
            "category": "agents"
          },
          {
            "type": "name_match",
            "text": "hydrogen",
            "confidence": 1.0,
            "uuid": "e2d9645f-5559-4d88-b820-fc4710c154f2",
            "name": "Hydrogen",
            "url": "https://haz-map.com/Agents/1070",
            "category": "agents"
          }
        ]
      },
      "category": {
        "original_name": "Category",
        "value": "Plant Toxins",
        "links": [],
        "cross_references": []
      },
      "description": {
        "original_name": "Description",
        "value": "White solid; [ICSC] White powder; [Sigma-Aldrich MSDS]",
        "links": [],
        "cross_references": []
      },
      "comments": {
        "original_name": "Comments",
        "value": "A skin and eye irritant; May cause CNS effects (convulsions and respiratory failure); May be toxic to human reproduction, based on animal studies; Can be absorbed through skin; [ICSC] May cause irritation; Highly toxic by ingestion, inhalation, and skin absorption; May be a reproductive toxicant and teratogen; [Sigma-Aldrich MSDS] See \"Nicotine.\"",
        "links": [],
        "cross_references": [
          {
            "type": "name_match",
            "text": "convulsion",
            "confidence": 1.0,
            "uuid": "af2c36f8-707a-48e3-a62b-1aa07adc9b72",
            "name": "convulsion",
            "url": "https://haz-map.com/Findings/14",
            "category": "findings"
          },
          {
            "type": "name_match",
            "text": "nicotine",
            "confidence": 1.0,
            "uuid": "07bfdaa7-cb27-4f79-8544-77b3bc05d2e6",
            "name": "Nicotine",
            "url": "https://haz-map.com/Agents/566",
            "category": "agents"
          }
        ]
      },
      "biomedical_references": {
        "original_name": "Biomedical References",
        "value": "Search PubMed",
        "links": [
          {
            "text": "Search PubMed",
            "url": "https://www.ncbi.nlm.nih.gov/pubmed?term=Nicotine+tartrate%20AND%20human%5Bmh%5D%20AND%20%28Occupational%20Diseases%20%5Bmh%5D%20OR%20Occupational%20Exposure%20%5Bmh%5D%29%20%20AND%20%28tox%5Bsb%5D%29&cmd=search"
          }
        ],
        "cross_references": []
      }
    },
    "exposure_assessment": {
      "vapor_pressure": {
        "original_name": "Vapor Pressure",
        "value": "9.26E-22 mm Hg",
        "links": [],
        "cross_references": []
      }
    },
    "adverse_effects": {
      "neurotoxin": {
        "original_name": "Neurotoxin",
        "value": "Other CNS neurotoxin",
        "links": [],
        "cross_references": []
      }
    },
    "diseases_processes_and_activities_linked_to_this_agent": {
      "other_information": {
        "original_name": "Other Information",
        "value": "No other related information on this agent was found.",
        "links": [],
        "cross_references": []
      }
    }
  },
  "cross_references": [
    {
      "type": "name_match",
      "text": "convulsion",
      "confidence": 1.0,
      "uuid": "af2c36f8-707a-48e3-a62b-1aa07adc9b72",
      "name": "convulsion",
      "url": "https://haz-map.com/Findings/14",
      "category": "findings"
    },
    {
      "type": "name_match",
      "text": "nicotine",
      "confidence": 1.0,
      "uuid": "07bfdaa7-cb27-4f79-8544-77b3bc05d2e6",
      "name": "Nicotine",
      "url": "https://haz-map.com/Agents/566",
      "category": "agents"
    },
    {
      "type": "name_match",
      "text": "pyridine",
      "confidence": 1.0,
      "uuid": "a2d916a4-844b-4df6-9be5-868b2b364d71",
      "name": "Pyridine",
      "url": "https://haz-map.com/Agents/616",
      "category": "agents"
    },
    {
      "type": "name_match",
      "text": "hydrogen",
      "confidence": 1.0,
      "uuid": "e2d9645f-5559-4d88-b820-fc4710c154f2",
      "name": "Hydrogen",
      "url": "https://haz-map.com/Agents/1070",
      "category": "agents"
    },
    {
      "type": "name_match",
      "text": "nicotine tartrate",
      "confidence": 1.0,
      "uuid": "3e27c05f-cea7-4026-b6e5-fd3e74032f57",
      "name": "Nicotine tartrate",
      "url": "https://haz-map.com/Agents/15951",
      "category": "agents"
    }
  ],
  "all_links": [
    {
      "text": "Search PubMed",
      "url": "https://www.ncbi.nlm.nih.gov/pubmed?term=Nicotine+tartrate%20AND%20human%5Bmh%5D%20AND%20%28Occupational%20Diseases%20%5Bmh%5D%20OR%20Occupational%20Exposure%20%5Bmh%5D%29%20%20AND%20%28tox%5Bsb%5D%29&cmd=search"
    }
  ]
}