{
  "metadata": {
    "scraped_from": "https://haz-map.com/Agents/1398",
    "entity_name": "Di-n-butylamine",
    "category": "agents",
    "uuid": "3ea5b653-b508-418e-8292-59314bf88c0e",
    "scraped_at": "2025-07-23T18:58:10.432374"
  },
  "parsed_at": "2025-07-24T00:57:26.137318",
  "title": "Di-n-butylamine",
  "sections": {
    "general": {
      "agent_name": {
        "original_name": "Agent Name",
        "value": "Di-n-butylamine",
        "links": [],
        "cross_references": [
          {
            "type": "name_match",
            "text": "n-butylamine",
            "confidence": 1.0,
            "uuid": "a4325d53-7846-4298-8946-a300caaf92ee",
            "name": "n-Butylamine",
            "url": "https://haz-map.com/Agents/225",
            "category": "agents"
          },
          {
            "type": "name_match",
            "text": "di-n-butylamine",
            "confidence": 1.0,
            "uuid": "3ea5b653-b508-418e-8292-59314bf88c0e",
            "name": "Di-n-butylamine",
            "url": "https://haz-map.com/Agents/1398",
            "category": "agents"
          }
        ]
      },
      "alternative_name": {
        "original_name": "Alternative Name",
        "value": "Dibutylamine",
        "links": [],
        "cross_references": []
      },
      "cas_number": {
        "original_name": "CAS Number",
        "value": "111-92-2",
        "links": [],
        "cross_references": []
      },
      "formula": {
        "original_name": "Formula",
        "value": "C8-H19-N",
        "links": [],
        "cross_references": []
      },
      "major_category": {
        "original_name": "Major Category",
        "value": "Nitrogen Compounds",
        "links": [],
        "cross_references": [
          {
            "type": "name_match",
            "text": "nitrogen",
            "confidence": 1.0,
            "uuid": "db5e90a9-06d2-45b9-8b81-f345a89b0bc0",
            "name": "Nitrogen",
            "url": "https://haz-map.com/Agents/1072",
            "category": "agents"
          }
        ]
      },
      "synonyms": {
        "original_name": "Synonyms",
        "value": "1-Butanamine, N-butyl-; AI3-52649; Dibutilamina [Romanian]; Dibutylamine; N-Butyl-1-butanamine; n-Dibutylamine; [ChemIDplus] UN2248",
        "links": [],
        "cross_references": []
      },
      "category": {
        "original_name": "Category",
        "value": "Amines, Aliphatic",
        "links": [],
        "cross_references": []
      },
      "description": {
        "original_name": "Description",
        "value": "Colorless liquid with an ammonia-like odor; [HSDB]",
        "links": [],
        "cross_references": [
          {
            "type": "name_match",
            "text": "ammonia",
            "confidence": 1.0,
            "uuid": "4a9ab845-a2cc-47e0-ab5c-e53693380800",
            "name": "Ammonia",
            "url": "https://haz-map.com/Agents/291",
            "category": "agents"
          }
        ]
      },
      "sourcesuses": {
        "original_name": "Sources/Uses",
        "value": "Used as a corrosion inhibitor and chemical intermediate; [HSDB]",
        "links": [],
        "cross_references": [
          {
            "type": "name_match",
            "text": "mica",
            "confidence": 1.0,
            "uuid": "433f26f1-c399-4596-b179-ce3843cfd465",
            "name": "Mica",
            "url": "https://haz-map.com/Agents/621",
            "category": "agents"
          }
        ]
      },
      "comments": {
        "original_name": "Comments",
        "value": "Corrosive to skin; [Quick CPC] Causes severe burns to the eyes and skin; High inhalation exposure can cause pulmonary edema; [HSDB] A corrosive substance that can cause pulmonary edema; [ICSC]",
        "links": [],
        "cross_references": [
          {
            "type": "name_match",
            "text": "pulmonary edema",
            "confidence": 1.0,
            "uuid": "ee39114e-c922-40fd-9588-a532de404962",
            "name": "pulmonary edema",
            "url": "https://haz-map.com/Findings/186",
            "category": "findings"
          },
          {
            "type": "name_match",
            "text": "burn",
            "confidence": 1.0,
            "uuid": "63665de5-6376-4918-8dbf-4c10c4d63837",
            "name": "burn",
            "url": "https://haz-map.com/Findings/204",
            "category": "findings"
          }
        ]
      },
      "biomedical_references": {
        "original_name": "Biomedical References",
        "value": "Search PubMed",
        "links": [
          {
            "text": "Search PubMed",
            "url": "https://www.ncbi.nlm.nih.gov/pubmed?term=Di-n-butylamine%20AND%20human%5Bmh%5D%20AND%20%28Occupational%20Diseases%20%5Bmh%5D%20OR%20Occupational%20Exposure%20%5Bmh%5D%29%20%20AND%20%28tox%5Bsb%5D%29&cmd=search"
          }
        ],
        "cross_references": []
      }
    },
    "exposure_assessment": {
      "vapor_pressure": {
        "original_name": "Vapor Pressure",
        "value": "2.59 mm Hg",
        "links": [],
        "cross_references": []
      },
      "odor_threshold_low": {
        "original_name": "Odor Threshold Low",
        "value": "0.04 ppm",
        "links": [],
        "cross_references": []
      },
      "odor_threshold_high": {
        "original_name": "Odor Threshold High",
        "value": "1.1 ppm",
        "links": [],
        "cross_references": []
      },
      "rd50": {
        "original_name": "RD50",
        "value": "173 ppm",
        "links": [],
        "cross_references": []
      },
      "lethal_concentration": {
        "original_name": "Lethal Concentration",
        "value": "LCLo (rat) = 500 ppm/4h",
        "links": [],
        "cross_references": []
      },
      "explanatory_notes": {
        "original_name": "Explanatory Notes",
        "value": "Flash point = 57 deg C; VP from HSDB;",
        "links": [],
        "cross_references": [
          {
            "type": "name_match",
            "text": "ash",
            "confidence": 1.0,
            "uuid": "68b360f1-5ad0-4337-bea0-d7adca2961b5",
            "name": "Ash",
            "url": "https://haz-map.com/Agents/965",
            "category": "agents"
          }
        ]
      },
      "nfpa": {
        "original_name": "NFPA",
        "value": "high ambient temp required",
        "links": [],
        "cross_references": []
      },
      "weel": {
        "original_name": "WEEL",
        "value": "Ceiling = 5 ppm",
        "links": [],
        "cross_references": []
      }
    },
    "adverse_effects": {
      "toxic_pneumonitis": {
        "original_name": "Toxic Pneumonitis",
        "value": "Yes",
        "links": [],
        "cross_references": []
      },
      "dermatotoxin": {
        "original_name": "Dermatotoxin",
        "value": "Skin burns",
        "links": [],
        "cross_references": [
          {
            "type": "name_match",
            "text": "burn",
            "confidence": 1.0,
            "uuid": "63665de5-6376-4918-8dbf-4c10c4d63837",
            "name": "burn",
            "url": "https://haz-map.com/Findings/204",
            "category": "findings"
          }
        ]
      }
    },
    "diseases_processes_and_activities_linked_to_this_agent": {
      "other_information": {
        "original_name": "Other Information",
        "value": "No other related information on this agent was found.",
        "links": [],
        "cross_references": []
      }
    }
  },
  "cross_references": [
    {
      "type": "name_match",
      "text": "pulmonary edema",
      "confidence": 1.0,
      "uuid": "ee39114e-c922-40fd-9588-a532de404962",
      "name": "pulmonary edema",
      "url": "https://haz-map.com/Findings/186",
      "category": "findings"
    },
    {
      "type": "name_match",
      "text": "burn",
      "confidence": 1.0,
      "uuid": "63665de5-6376-4918-8dbf-4c10c4d63837",
      "name": "burn",
      "url": "https://haz-map.com/Findings/204",
      "category": "findings"
    },
    {
      "type": "name_match",
      "text": "n-butylamine",
      "confidence": 1.0,
      "uuid": "a4325d53-7846-4298-8946-a300caaf92ee",
      "name": "n-Butylamine",
      "url": "https://haz-map.com/Agents/225",
      "category": "agents"
    },
    {
      "type": "name_match",
      "text": "ammonia",
      "confidence": 1.0,
      "uuid": "4a9ab845-a2cc-47e0-ab5c-e53693380800",
      "name": "Ammonia",
      "url": "https://haz-map.com/Agents/291",
      "category": "agents"
    },
    {
      "type": "name_match",
      "text": "mica",
      "confidence": 1.0,
      "uuid": "433f26f1-c399-4596-b179-ce3843cfd465",
      "name": "Mica",
      "url": "https://haz-map.com/Agents/621",
      "category": "agents"
    },
    {
      "type": "name_match",
      "text": "ash",
      "confidence": 1.0,
      "uuid": "68b360f1-5ad0-4337-bea0-d7adca2961b5",
      "name": "Ash",
      "url": "https://haz-map.com/Agents/965",
      "category": "agents"
    },
    {
      "type": "name_match",
      "text": "nitrogen",
      "confidence": 1.0,
      "uuid": "db5e90a9-06d2-45b9-8b81-f345a89b0bc0",
      "name": "Nitrogen",
      "url": "https://haz-map.com/Agents/1072",
      "category": "agents"
    },
    {
      "type": "name_match",
      "text": "di-n-butylamine",
      "confidence": 1.0,
      "uuid": "3ea5b653-b508-418e-8292-59314bf88c0e",
      "name": "Di-n-butylamine",
      "url": "https://haz-map.com/Agents/1398",
      "category": "agents"
    }
  ],
  "all_links": [
    {
      "text": "Search PubMed",
      "url": "https://www.ncbi.nlm.nih.gov/pubmed?term=Di-n-butylamine%20AND%20human%5Bmh%5D%20AND%20%28Occupational%20Diseases%20%5Bmh%5D%20OR%20Occupational%20Exposure%20%5Bmh%5D%29%20%20AND%20%28tox%5Bsb%5D%29&cmd=search"
    }
  ]
}