{
  "metadata": {
    "scraped_from": "https://haz-map.com/Agents/4664",
    "entity_name": "Decamethylcyclopentasiloxane",
    "category": "agents",
    "uuid": "3f5e6282-e3a8-45b9-8282-bb973faf2364",
    "scraped_at": "2025-07-23T19:43:17.637431"
  },
  "parsed_at": "2025-07-24T00:58:07.280362",
  "title": "Decamethylcyclopentasiloxane",
  "sections": {
    "general": {
      "agent_name": {
        "original_name": "Agent Name",
        "value": "Decamethylcyclopentasiloxane",
        "links": [],
        "cross_references": [
          {
            "type": "name_match",
            "text": "decamethylcyclopentasiloxane",
            "confidence": 1.0,
            "uuid": "3f5e6282-e3a8-45b9-8282-bb973faf2364",
            "name": "Decamethylcyclopentasiloxane",
            "url": "https://haz-map.com/Agents/4664",
            "category": "agents"
          }
        ]
      },
      "cas_number": {
        "original_name": "CAS Number",
        "value": "541-02-6",
        "links": [],
        "cross_references": []
      },
      "formula": {
        "original_name": "Formula",
        "value": "C10-H30-O5-Si5",
        "links": [],
        "cross_references": []
      },
      "major_category": {
        "original_name": "Major Category",
        "value": "Metals",
        "links": [],
        "cross_references": []
      },
      "synonyms": {
        "original_name": "Synonyms",
        "value": "Cyclic dimethylsiloxane pentamer; Cyclopentasiloxane, decamethyl-; Dekamethylcyklopentasiloxan [Czech]; Dimethylsiloxane pentamer; Dow Corning 345; Dow Corning 345 Fluid; KF 995; NUC Silicone VS 7158; Polydimethylsiloxane; SF 1202; Silicon SF 1202; Union Carbide 7158 Silicone Fluid; VS 7158; [ChemIDplus]",
        "links": [],
        "cross_references": [
          {
            "type": "name_match",
            "text": "silicon",
            "confidence": 1.0,
            "uuid": "443f4405-7a1f-47db-bf43-809557f77483",
            "name": "Silicon",
            "url": "https://haz-map.com/Agents/623",
            "category": "agents"
          },
          {
            "type": "name_match",
            "text": "polydimethylsiloxane",
            "confidence": 1.0,
            "uuid": "2b82ea0e-aab1-48d9-9b36-26941a1c0909",
            "name": "Polydimethylsiloxane",
            "url": "https://haz-map.com/Agents/6750",
            "category": "agents"
          }
        ]
      },
      "category": {
        "original_name": "Category",
        "value": "Metalloid Compounds (Silicon)",
        "links": [],
        "cross_references": [
          {
            "type": "name_match",
            "text": "silicon",
            "confidence": 1.0,
            "uuid": "443f4405-7a1f-47db-bf43-809557f77483",
            "name": "Silicon",
            "url": "https://haz-map.com/Agents/623",
            "category": "agents"
          }
        ]
      },
      "description": {
        "original_name": "Description",
        "value": "Colorless volatile liquid; [Merck Index]",
        "links": [],
        "cross_references": []
      },
      "sourcesuses": {
        "original_name": "Sources/Uses",
        "value": "Used as a carrier in personal care products, as a dry cleaning solvent, and to make siloxane polymers; [Merck Index]",
        "links": [],
        "cross_references": [
          {
            "type": "name_match",
            "text": "dry cleaning",
            "confidence": 1.0,
            "uuid": "abb34c34-1368-4c52-b43c-a308f90452e9",
            "name": "Dry Cleaning",
            "url": "https://haz-map.com/Processes/166",
            "category": "processes"
          }
        ]
      },
      "comments": {
        "original_name": "Comments",
        "value": "Silicones cause foreign body reactions when injected or implanted in tissue; [HSDB] May cause irritation; [MSDSonline] See \"Octamethylcyclotetrasiloxane.\"",
        "links": [],
        "cross_references": [
          {
            "type": "name_match",
            "text": "silicon",
            "confidence": 1.0,
            "uuid": "443f4405-7a1f-47db-bf43-809557f77483",
            "name": "Silicon",
            "url": "https://haz-map.com/Agents/623",
            "category": "agents"
          },
          {
            "type": "name_match",
            "text": "octamethylcyclotetrasiloxane",
            "confidence": 1.0,
            "uuid": "c1e84189-08ce-4ec2-8a76-22403a1b29df",
            "name": "Octamethylcyclotetrasiloxane",
            "url": "https://haz-map.com/Agents/6431",
            "category": "agents"
          }
        ]
      },
      "biomedical_references": {
        "original_name": "Biomedical References",
        "value": "Search PubMed",
        "links": [
          {
            "text": "Search PubMed",
            "url": "https://www.ncbi.nlm.nih.gov/pubmed?term=Decamethylcyclopentasiloxane%20AND%20human%5Bmh%5D%20AND%20%28Occupational%20Diseases%20%5Bmh%5D%20OR%20Occupational%20Exposure%20%5Bmh%5D%29%20%20AND%20%28tox%5Bsb%5D%29&cmd=search"
          }
        ],
        "cross_references": []
      }
    },
    "exposure_assessment": {
      "vapor_pressure": {
        "original_name": "Vapor Pressure",
        "value": "0.2 mm Hg",
        "links": [],
        "cross_references": []
      },
      "lethal_concentration": {
        "original_name": "Lethal Concentration",
        "value": "LC (rat) > 2,700 mg/m3/4h",
        "links": [],
        "cross_references": []
      },
      "weel": {
        "original_name": "WEEL",
        "value": "10 ppm",
        "links": [],
        "cross_references": []
      }
    },
    "diseases_processes_and_activities_linked_to_this_agent": {
      "processes": {
        "original_name": "Processes",
        "value": "Industrial Processes with risk of exposure: Dry Cleaning",
        "links": [
          {
            "text": "Dry Cleaning",
            "url": "https://haz-map.com/Processes/166"
          }
        ],
        "cross_references": [
          {
            "type": "url_match",
            "text": "Dry Cleaning",
            "url": "https://haz-map.com/Processes/166",
            "confidence": 1.0,
            "uuid": "abb34c34-1368-4c52-b43c-a308f90452e9",
            "name": "Dry Cleaning",
            "category": "processes"
          }
        ]
      }
    }
  },
  "cross_references": [
    {
      "type": "url_match",
      "text": "Dry Cleaning",
      "url": "https://haz-map.com/Processes/166",
      "confidence": 1.0,
      "uuid": "abb34c34-1368-4c52-b43c-a308f90452e9",
      "name": "Dry Cleaning",
      "category": "processes"
    },
    {
      "type": "name_match",
      "text": "silicon",
      "confidence": 1.0,
      "uuid": "443f4405-7a1f-47db-bf43-809557f77483",
      "name": "Silicon",
      "url": "https://haz-map.com/Agents/623",
      "category": "agents"
    },
    {
      "type": "name_match",
      "text": "decamethylcyclopentasiloxane",
      "confidence": 1.0,
      "uuid": "3f5e6282-e3a8-45b9-8282-bb973faf2364",
      "name": "Decamethylcyclopentasiloxane",
      "url": "https://haz-map.com/Agents/4664",
      "category": "agents"
    },
    {
      "type": "name_match",
      "text": "octamethylcyclotetrasiloxane",
      "confidence": 1.0,
      "uuid": "c1e84189-08ce-4ec2-8a76-22403a1b29df",
      "name": "Octamethylcyclotetrasiloxane",
      "url": "https://haz-map.com/Agents/6431",
      "category": "agents"
    },
    {
      "type": "name_match",
      "text": "polydimethylsiloxane",
      "confidence": 1.0,
      "uuid": "2b82ea0e-aab1-48d9-9b36-26941a1c0909",
      "name": "Polydimethylsiloxane",
      "url": "https://haz-map.com/Agents/6750",
      "category": "agents"
    }
  ],
  "all_links": [
    {
      "text": "Search PubMed",
      "url": "https://www.ncbi.nlm.nih.gov/pubmed?term=Decamethylcyclopentasiloxane%20AND%20human%5Bmh%5D%20AND%20%28Occupational%20Diseases%20%5Bmh%5D%20OR%20Occupational%20Exposure%20%5Bmh%5D%29%20%20AND%20%28tox%5Bsb%5D%29&cmd=search"
    },
    {
      "text": "Dry Cleaning",
      "url": "https://haz-map.com/Processes/166"
    }
  ]
}