{
  "metadata": {
    "scraped_from": "https://haz-map.com/Agents/16256",
    "entity_name": "Octyl acetate",
    "category": "agents",
    "uuid": "3fbbcb8f-8064-48a3-82b9-05fa2eec54fd",
    "scraped_at": "2025-07-23T21:35:43.242474"
  },
  "parsed_at": "2025-07-24T01:09:54.382734",
  "title": "Octyl acetate",
  "sections": {
    "general": {
      "agent_name": {
        "original_name": "Agent Name",
        "value": "Octyl acetate",
        "links": [],
        "cross_references": [
          {
            "type": "name_match",
            "text": "octyl acetate",
            "confidence": 1.0,
            "uuid": "3fbbcb8f-8064-48a3-82b9-05fa2eec54fd",
            "name": "Octyl acetate",
            "url": "https://haz-map.com/Agents/16256",
            "category": "agents"
          }
        ]
      },
      "cas_number": {
        "original_name": "CAS Number",
        "value": "112-14-1",
        "links": [],
        "cross_references": []
      },
      "formula": {
        "original_name": "Formula",
        "value": "C10-H20-O2",
        "links": [],
        "cross_references": []
      },
      "major_category": {
        "original_name": "Major Category",
        "value": "Solvents",
        "links": [],
        "cross_references": []
      },
      "synonyms": {
        "original_name": "Synonyms",
        "value": "1-Octanol acetate; 1-Octyl acetate; Acetate C-8; Caprylyl acetate; Octyl acetate (natural); Octyl acetate, normal; Octyl alcohol acetate; Octyl ethanoate; n-Octanyl acetate; n-Octyl acetate; n-Octyl ethanoate; Acetic acid, octyl ester; [ChemIDplus]",
        "links": [],
        "cross_references": [
          {
            "type": "name_match",
            "text": "acetic acid",
            "confidence": 1.0,
            "uuid": "0905c6e4-df84-4895-a92d-658819239bbd",
            "name": "Acetic acid",
            "url": "https://haz-map.com/Agents/207",
            "category": "agents"
          },
          {
            "type": "name_match",
            "text": "1-octanol",
            "confidence": 1.0,
            "uuid": "c73abd5d-2b7c-4354-92c8-91ab1b01d982",
            "name": "1-Octanol",
            "url": "https://haz-map.com/Agents/2916",
            "category": "agents"
          },
          {
            "type": "name_match",
            "text": "octyl acetate",
            "confidence": 1.0,
            "uuid": "3fbbcb8f-8064-48a3-82b9-05fa2eec54fd",
            "name": "Octyl acetate",
            "url": "https://haz-map.com/Agents/16256",
            "category": "agents"
          }
        ]
      },
      "category": {
        "original_name": "Category",
        "value": "Esters (<C12)",
        "links": [],
        "cross_references": []
      },
      "description": {
        "original_name": "Description",
        "value": "Colorless liquid with an odor like orange blossom or jasmine; [Acros Organics MSDS]",
        "links": [],
        "cross_references": []
      },
      "sourcesuses": {
        "original_name": "Sources/Uses",
        "value": "Used as flavoring agent or adjuvant; [FDA]",
        "links": [],
        "cross_references": []
      },
      "comments": {
        "original_name": "Comments",
        "value": "A mild skin irritant; [RTECS] Safe when used as a flavoring agent in food; [JECFA] A skin and eye irritant; [Acros Organics MSDS]",
        "links": [],
        "cross_references": []
      },
      "biomedical_references": {
        "original_name": "Biomedical References",
        "value": "Search PubMed",
        "links": [
          {
            "text": "Search PubMed",
            "url": "https://www.ncbi.nlm.nih.gov/pubmed?term=Octyl+acetate%20AND%20human%5Bmh%5D%20AND%20%28Occupational%20Diseases%20%5Bmh%5D%20OR%20Occupational%20Exposure%20%5Bmh%5D%29%20%20AND%20%28tox%5Bsb%5D%29&cmd=search"
          }
        ],
        "cross_references": []
      }
    },
    "exposure_assessment": {
      "vapor_pressure": {
        "original_name": "Vapor Pressure",
        "value": "0.4 mm Hg",
        "links": [],
        "cross_references": []
      }
    },
    "adverse_effects": {
      "neurotoxin": {
        "original_name": "Neurotoxin",
        "value": "Acute solvent syndrome",
        "links": [],
        "cross_references": []
      }
    },
    "diseases_processes_and_activities_linked_to_this_agent": {
      "diseases": {
        "original_name": "Diseases",
        "value": "Occupational diseases associated with exposure to this agent: Solvents, acute toxic effect",
        "links": [
          {
            "text": "Solvents, acute toxic effect",
            "url": "https://haz-map.com/Diseases/326"
          }
        ],
        "cross_references": [
          {
            "type": "url_match",
            "text": "Solvents, acute toxic effect",
            "url": "https://haz-map.com/Diseases/326",
            "confidence": 1.0,
            "uuid": "581e90e3-9d0c-45f0-aa6c-3468c28da129",
            "name": "Solvents, acute toxic effect",
            "category": "diseases"
          }
        ]
      }
    }
  },
  "cross_references": [
    {
      "type": "url_match",
      "text": "Solvents, acute toxic effect",
      "url": "https://haz-map.com/Diseases/326",
      "confidence": 1.0,
      "uuid": "581e90e3-9d0c-45f0-aa6c-3468c28da129",
      "name": "Solvents, acute toxic effect",
      "category": "diseases"
    },
    {
      "type": "name_match",
      "text": "acetic acid",
      "confidence": 1.0,
      "uuid": "0905c6e4-df84-4895-a92d-658819239bbd",
      "name": "Acetic acid",
      "url": "https://haz-map.com/Agents/207",
      "category": "agents"
    },
    {
      "type": "name_match",
      "text": "1-octanol",
      "confidence": 1.0,
      "uuid": "c73abd5d-2b7c-4354-92c8-91ab1b01d982",
      "name": "1-Octanol",
      "url": "https://haz-map.com/Agents/2916",
      "category": "agents"
    },
    {
      "type": "name_match",
      "text": "octyl acetate",
      "confidence": 1.0,
      "uuid": "3fbbcb8f-8064-48a3-82b9-05fa2eec54fd",
      "name": "Octyl acetate",
      "url": "https://haz-map.com/Agents/16256",
      "category": "agents"
    }
  ],
  "all_links": [
    {
      "text": "Search PubMed",
      "url": "https://www.ncbi.nlm.nih.gov/pubmed?term=Octyl+acetate%20AND%20human%5Bmh%5D%20AND%20%28Occupational%20Diseases%20%5Bmh%5D%20OR%20Occupational%20Exposure%20%5Bmh%5D%29%20%20AND%20%28tox%5Bsb%5D%29&cmd=search"
    },
    {
      "text": "Solvents, acute toxic effect",
      "url": "https://haz-map.com/Diseases/326"
    }
  ]
}