{
  "metadata": {
    "scraped_from": "https://haz-map.com/Agents/21140",
    "entity_name": "Methyl nonanoate",
    "category": "agents",
    "uuid": "3fc0f87c-b090-4f6b-8e08-420a7d110bb6",
    "scraped_at": "2025-07-23T22:38:13.370845"
  },
  "parsed_at": "2025-07-24T01:03:02.925567",
  "title": "Methyl nonanoate",
  "sections": {
    "general": {
      "agent_name": {
        "original_name": "Agent Name",
        "value": "Methyl nonanoate",
        "links": [],
        "cross_references": [
          {
            "type": "name_match",
            "text": "methyl nonanoate",
            "confidence": 1.0,
            "uuid": "3fc0f87c-b090-4f6b-8e08-420a7d110bb6",
            "name": "Methyl nonanoate",
            "url": "https://haz-map.com/Agents/21140",
            "category": "agents"
          }
        ]
      },
      "cas_number": {
        "original_name": "CAS Number",
        "value": "1731-84-6",
        "links": [],
        "cross_references": []
      },
      "formula": {
        "original_name": "Formula",
        "value": "C10-H20-O2",
        "links": [],
        "cross_references": []
      },
      "major_category": {
        "original_name": "Major Category",
        "value": "Solvents",
        "links": [],
        "cross_references": []
      },
      "synonyms": {
        "original_name": "Synonyms",
        "value": "Methyl nonylate; Methyl pelargonate; Nonanoic acid, methyl ester; Pelargonic acid methyl ester; [ChemIDplus]",
        "links": [],
        "cross_references": [
          {
            "type": "name_match",
            "text": "argon",
            "confidence": 1.0,
            "uuid": "317a0dc9-5edc-4a5b-8cfa-2b8de0621ac4",
            "name": "Argon",
            "url": "https://haz-map.com/Agents/1069",
            "category": "agents"
          },
          {
            "type": "name_match",
            "text": "nonanoic acid",
            "confidence": 1.0,
            "uuid": "6e6fd588-0c9d-45b3-a3e5-bf3b150b712b",
            "name": "Nonanoic acid",
            "url": "https://haz-map.com/Agents/6387",
            "category": "agents"
          }
        ]
      },
      "category": {
        "original_name": "Category",
        "value": "Esters (<C12)",
        "links": [],
        "cross_references": []
      },
      "description": {
        "original_name": "Description",
        "value": "Clear colorless liquid with an ester-like odor; [Acros Organics MSDS]",
        "links": [],
        "cross_references": []
      },
      "sourcesuses": {
        "original_name": "Sources/Uses",
        "value": "Used as a flavoring agent; [FDA]",
        "links": [],
        "cross_references": []
      },
      "comments": {
        "original_name": "Comments",
        "value": "Intravenous LDLo (mouse) = 48 mg/kg; [RTECS] Safe when used as a flavoring agent in food; [JECFA] A skin and eye irritant; [Acros Organics MSDS]",
        "links": [],
        "cross_references": []
      },
      "biomedical_references": {
        "original_name": "Biomedical References",
        "value": "Search PubMed",
        "links": [
          {
            "text": "Search PubMed",
            "url": "https://www.ncbi.nlm.nih.gov/pubmed?term=Methyl+nonanoate%20AND%20human%5Bmh%5D%20AND%20%28Occupational%20Diseases%20%5Bmh%5D%20OR%20Occupational%20Exposure%20%5Bmh%5D%29%20%20AND%20%28tox%5Bsb%5D%29&cmd=search"
          }
        ],
        "cross_references": []
      }
    },
    "exposure_assessment": {
      "vapor_pressure": {
        "original_name": "Vapor Pressure",
        "value": "0.211 mm Hg",
        "links": [],
        "cross_references": []
      }
    },
    "adverse_effects": {
      "neurotoxin": {
        "original_name": "Neurotoxin",
        "value": "Acute solvent syndrome",
        "links": [],
        "cross_references": []
      }
    },
    "diseases_processes_and_activities_linked_to_this_agent": {
      "diseases": {
        "original_name": "Diseases",
        "value": "Occupational diseases associated with exposure to this agent: Solvents, acute toxic effect",
        "links": [
          {
            "text": "Solvents, acute toxic effect",
            "url": "https://haz-map.com/Diseases/326"
          }
        ],
        "cross_references": [
          {
            "type": "url_match",
            "text": "Solvents, acute toxic effect",
            "url": "https://haz-map.com/Diseases/326",
            "confidence": 1.0,
            "uuid": "581e90e3-9d0c-45f0-aa6c-3468c28da129",
            "name": "Solvents, acute toxic effect",
            "category": "diseases"
          }
        ]
      }
    }
  },
  "cross_references": [
    {
      "type": "url_match",
      "text": "Solvents, acute toxic effect",
      "url": "https://haz-map.com/Diseases/326",
      "confidence": 1.0,
      "uuid": "581e90e3-9d0c-45f0-aa6c-3468c28da129",
      "name": "Solvents, acute toxic effect",
      "category": "diseases"
    },
    {
      "type": "name_match",
      "text": "argon",
      "confidence": 1.0,
      "uuid": "317a0dc9-5edc-4a5b-8cfa-2b8de0621ac4",
      "name": "Argon",
      "url": "https://haz-map.com/Agents/1069",
      "category": "agents"
    },
    {
      "type": "name_match",
      "text": "nonanoic acid",
      "confidence": 1.0,
      "uuid": "6e6fd588-0c9d-45b3-a3e5-bf3b150b712b",
      "name": "Nonanoic acid",
      "url": "https://haz-map.com/Agents/6387",
      "category": "agents"
    },
    {
      "type": "name_match",
      "text": "methyl nonanoate",
      "confidence": 1.0,
      "uuid": "3fc0f87c-b090-4f6b-8e08-420a7d110bb6",
      "name": "Methyl nonanoate",
      "url": "https://haz-map.com/Agents/21140",
      "category": "agents"
    }
  ],
  "all_links": [
    {
      "text": "Search PubMed",
      "url": "https://www.ncbi.nlm.nih.gov/pubmed?term=Methyl+nonanoate%20AND%20human%5Bmh%5D%20AND%20%28Occupational%20Diseases%20%5Bmh%5D%20OR%20Occupational%20Exposure%20%5Bmh%5D%29%20%20AND%20%28tox%5Bsb%5D%29&cmd=search"
    },
    {
      "text": "Solvents, acute toxic effect",
      "url": "https://haz-map.com/Diseases/326"
    }
  ]
}