{
  "metadata": {
    "scraped_from": "https://haz-map.com/Agents/3056",
    "entity_name": "2-(4-Morpholinothio)benzothiazole",
    "category": "agents",
    "uuid": "405867ad-928c-4008-b6a1-5c221101d56a",
    "scraped_at": "2025-07-23T19:23:24.247149"
  },
  "parsed_at": "2025-07-24T01:10:11.796609",
  "title": "2-(4-Morpholinothio)benzothiazole",
  "sections": {
    "general": {
      "agent_name": {
        "original_name": "Agent Name",
        "value": "2-(4-Morpholinothio)benzothiazole",
        "links": [],
        "cross_references": [
          {
            "type": "name_match",
            "text": "2-(4-morpholinothio)benzothiazole",
            "confidence": 1.0,
            "uuid": "405867ad-928c-4008-b6a1-5c221101d56a",
            "name": "2-(4-Morpholinothio)benzothiazole",
            "url": "https://haz-map.com/Agents/3056",
            "category": "agents"
          },
          {
            "type": "name_match",
            "text": "benzothiazole",
            "confidence": 1.0,
            "uuid": "6c7cc5de-c267-4997-9bab-ec67f286b5bb",
            "name": "Benzothiazole",
            "url": "https://haz-map.com/Agents/3866",
            "category": "agents"
          },
          {
            "type": "name_match",
            "text": "thiazole",
            "confidence": 1.0,
            "uuid": "239903f2-a226-4a4b-bc83-285f21b9610c",
            "name": "Thiazole",
            "url": "https://haz-map.com/Agents/17380",
            "category": "agents"
          }
        ]
      },
      "cas_number": {
        "original_name": "CAS Number",
        "value": "102-77-2",
        "links": [],
        "cross_references": []
      },
      "formula": {
        "original_name": "Formula",
        "value": "C11-H12-N2-O-S2",
        "links": [],
        "cross_references": []
      },
      "major_category": {
        "original_name": "Major Category",
        "value": "Plastics & Rubber",
        "links": [],
        "cross_references": []
      },
      "synonyms": {
        "original_name": "Synonyms",
        "value": "2-(4-Morpholino)thiobenzothiazole; 2-(4-Morpholinylmercapto)benzothiazole; 2-(4-Morpholinylthio)benzothiazole; 2-(Morpholinothio)benzothiazole; 2-Benzothiazolesulfenamide, N-morpholinyl-; 2-Benzothiazolesulfenemorpholide; 2-Benzothiazolyl N-morpholino sulfide; 2-Benzothiazolylsulfenyl morpholine; 2-Benzothiazolylsulfenylmorpholine; 4-(2-Benzothiazolylthio)morpholine; AMAX; Accel NS; Benzothiazole, 2-(4-morpholinylthio)-; Benzothiazole, 2-(morpholinothio)-; Benzothiazolyl-2-sulfenmorpholide; Cure-rite OBTS; Delac MOR; MBS; Meramide M; Morpholine, 4-(2-benzothiazolylthio)-; Morpholinylmercaptobenzothiazole; N,N-(Oxydiethylene)-2-benzothiazylsulfenamide; N,N-(Oxydiethylene)benzothiazole-2-sulfenamide; N-(Oxodiethylene)-2-benzothiazolesulfenamide; N-(Oxydiethylene)benzothiazole-2-sulfenamide; N-(Oxydiethylene)benzothiazylsulfenamide; N-Oxydiethyl-2-benzthiazolsulfenamid [Czech]; N-Oxydiethylene-2-benzothiazylsulfenamide; Nobs special; Santocure MOR; Sulfenamide M; Sulfenax MOR; Sulfenax mob [Czech]; Vulcafor BSM; Vulcafor SSM; Vulkacit MOZ; [ChemIDplus]",
        "links": [],
        "cross_references": [
          {
            "type": "name_match",
            "text": "morpholine",
            "confidence": 1.0,
            "uuid": "af6fb818-2e60-4cef-bb55-5972a728ae37",
            "name": "Morpholine",
            "url": "https://haz-map.com/Agents/565",
            "category": "agents"
          },
          {
            "type": "name_match",
            "text": "mercaptobenzothiazole",
            "confidence": 1.0,
            "uuid": "69fdbc1b-da83-4a93-bf41-d6db5fda95a4",
            "name": "Mercaptobenzothiazole",
            "url": "https://haz-map.com/Agents/845",
            "category": "agents"
          },
          {
            "type": "name_match",
            "text": "ethylene",
            "confidence": 1.0,
            "uuid": "958eacc0-5135-4b62-bb93-6df972bf552f",
            "name": "Ethylene",
            "url": "https://haz-map.com/Agents/1076",
            "category": "agents"
          },
          {
            "type": "name_match",
            "text": "benzothiazole",
            "confidence": 1.0,
            "uuid": "6c7cc5de-c267-4997-9bab-ec67f286b5bb",
            "name": "Benzothiazole",
            "url": "https://haz-map.com/Agents/3866",
            "category": "agents"
          },
          {
            "type": "name_match",
            "text": "thiazole",
            "confidence": 1.0,
            "uuid": "239903f2-a226-4a4b-bc83-285f21b9610c",
            "name": "Thiazole",
            "url": "https://haz-map.com/Agents/17380",
            "category": "agents"
          }
        ]
      },
      "category": {
        "original_name": "Category",
        "value": "Rubber Additives",
        "links": [],
        "cross_references": []
      },
      "description": {
        "original_name": "Description",
        "value": "Tan to brown solid with a sweet odor; [HSDB] Pale granules or flakes; [MSDSonline]",
        "links": [],
        "cross_references": []
      },
      "sourcesuses": {
        "original_name": "Sources/Uses",
        "value": "Used as a delayed-action vulcanization accelerator; [HSDB] Occupational exposures occur among machinists (corrosion inhibitors) and pottery workers (releasing fluids); [Kanerva, p. 1818]",
        "links": [],
        "cross_references": [
          {
            "type": "name_match",
            "text": "machinists",
            "confidence": 1.0,
            "uuid": "308d81b7-49b7-4c3b-a837-be2531b4c882",
            "name": "Machinists",
            "url": "https://haz-map.com/Jobs/89",
            "category": "jobs"
          }
        ]
      },
      "comments": {
        "original_name": "Comments",
        "value": "May cause skin sensitization; [CHEMINFO] Danger of skin sensitization; [MAK] A skin and eye irritant; May cause skin sensitization; [eChemPortal: ESIS] A mild skin and eye irritant; May cause skin sensitization; [MSDSonline] It causes delayed-type skin sensitization; A case of immediate-type hypersensitivity was reported in a dental assistant; [Kanerva, p. 1818] See \"Mercaptobenzothiazole.\"",
        "links": [],
        "cross_references": [
          {
            "type": "name_match",
            "text": "mercaptobenzothiazole",
            "confidence": 1.0,
            "uuid": "69fdbc1b-da83-4a93-bf41-d6db5fda95a4",
            "name": "Mercaptobenzothiazole",
            "url": "https://haz-map.com/Agents/845",
            "category": "agents"
          },
          {
            "type": "name_match",
            "text": "benzothiazole",
            "confidence": 1.0,
            "uuid": "6c7cc5de-c267-4997-9bab-ec67f286b5bb",
            "name": "Benzothiazole",
            "url": "https://haz-map.com/Agents/3866",
            "category": "agents"
          },
          {
            "type": "name_match",
            "text": "thiazole",
            "confidence": 1.0,
            "uuid": "239903f2-a226-4a4b-bc83-285f21b9610c",
            "name": "Thiazole",
            "url": "https://haz-map.com/Agents/17380",
            "category": "agents"
          }
        ]
      },
      "biomedical_references": {
        "original_name": "Biomedical References",
        "value": "Search PubMed",
        "links": [
          {
            "text": "Search PubMed",
            "url": "https://www.ncbi.nlm.nih.gov/pubmed?term=2-(4-Morpholinothio)benzothiazole%20AND%20human%5Bmh%5D%20AND%20%28Occupational%20Diseases%20%5Bmh%5D%20OR%20Occupational%20Exposure%20%5Bmh%5D%29%20%20AND%20%28tox%5Bsb%5D%29&cmd=search"
          }
        ],
        "cross_references": []
      }
    },
    "exposure_assessment": {
      "explanatory_notes": {
        "original_name": "Explanatory Notes",
        "value": "Flash point = 188 deg C; [eChemPortal: IUCLID]",
        "links": [],
        "cross_references": [
          {
            "type": "name_match",
            "text": "ash",
            "confidence": 1.0,
            "uuid": "68b360f1-5ad0-4337-bea0-d7adca2961b5",
            "name": "Ash",
            "url": "https://haz-map.com/Agents/965",
            "category": "agents"
          }
        ]
      }
    },
    "adverse_effects": {
      "skin_sensitizer": {
        "original_name": "Skin Sensitizer",
        "value": "Yes",
        "links": [],
        "cross_references": []
      }
    },
    "diseases_processes_and_activities_linked_to_this_agent": {
      "diseases": {
        "original_name": "Diseases",
        "value": "Occupational diseases associated with exposure to this agent: Contact dermatitis, allergic",
        "links": [
          {
            "text": "Contact dermatitis, allergic",
            "url": "https://haz-map.com/Diseases/18"
          }
        ],
        "cross_references": [
          {
            "type": "url_match",
            "text": "Contact dermatitis, allergic",
            "url": "https://haz-map.com/Diseases/18",
            "confidence": 1.0,
            "uuid": "c9499de0-9aa1-41bf-8753-cd5b28a63e29",
            "name": "Contact dermatitis, allergic",
            "category": "diseases"
          },
          {
            "type": "name_match",
            "text": "dermatitis",
            "confidence": 1.0,
            "uuid": "fe9c05f2-b19f-4ceb-ac7a-ffb7d7a0cae0",
            "name": "dermatitis",
            "url": "https://haz-map.com/Findings/59",
            "category": "findings"
          }
        ]
      },
      "processes": {
        "original_name": "Processes",
        "value": "Industrial Processes with risk of exposure: Metal Machining",
        "links": [
          {
            "text": "Metal Machining",
            "url": "https://haz-map.com/Processes/35"
          }
        ],
        "cross_references": [
          {
            "type": "url_match",
            "text": "Metal Machining",
            "url": "https://haz-map.com/Processes/35",
            "confidence": 1.0,
            "uuid": "742028ba-ba09-4d7c-bb80-f70af1454300",
            "name": "Metal Machining",
            "category": "processes"
          }
        ]
      }
    }
  },
  "cross_references": [
    {
      "type": "url_match",
      "text": "Contact dermatitis, allergic",
      "url": "https://haz-map.com/Diseases/18",
      "confidence": 1.0,
      "uuid": "c9499de0-9aa1-41bf-8753-cd5b28a63e29",
      "name": "Contact dermatitis, allergic",
      "category": "diseases"
    },
    {
      "type": "url_match",
      "text": "Metal Machining",
      "url": "https://haz-map.com/Processes/35",
      "confidence": 1.0,
      "uuid": "742028ba-ba09-4d7c-bb80-f70af1454300",
      "name": "Metal Machining",
      "category": "processes"
    },
    {
      "type": "name_match",
      "text": "dermatitis",
      "confidence": 1.0,
      "uuid": "fe9c05f2-b19f-4ceb-ac7a-ffb7d7a0cae0",
      "name": "dermatitis",
      "url": "https://haz-map.com/Findings/59",
      "category": "findings"
    },
    {
      "type": "name_match",
      "text": "machinists",
      "confidence": 1.0,
      "uuid": "308d81b7-49b7-4c3b-a837-be2531b4c882",
      "name": "Machinists",
      "url": "https://haz-map.com/Jobs/89",
      "category": "jobs"
    },
    {
      "type": "name_match",
      "text": "morpholine",
      "confidence": 1.0,
      "uuid": "af6fb818-2e60-4cef-bb55-5972a728ae37",
      "name": "Morpholine",
      "url": "https://haz-map.com/Agents/565",
      "category": "agents"
    },
    {
      "type": "name_match",
      "text": "mercaptobenzothiazole",
      "confidence": 1.0,
      "uuid": "69fdbc1b-da83-4a93-bf41-d6db5fda95a4",
      "name": "Mercaptobenzothiazole",
      "url": "https://haz-map.com/Agents/845",
      "category": "agents"
    },
    {
      "type": "name_match",
      "text": "ash",
      "confidence": 1.0,
      "uuid": "68b360f1-5ad0-4337-bea0-d7adca2961b5",
      "name": "Ash",
      "url": "https://haz-map.com/Agents/965",
      "category": "agents"
    },
    {
      "type": "name_match",
      "text": "ethylene",
      "confidence": 1.0,
      "uuid": "958eacc0-5135-4b62-bb93-6df972bf552f",
      "name": "Ethylene",
      "url": "https://haz-map.com/Agents/1076",
      "category": "agents"
    },
    {
      "type": "name_match",
      "text": "2-(4-morpholinothio)benzothiazole",
      "confidence": 1.0,
      "uuid": "405867ad-928c-4008-b6a1-5c221101d56a",
      "name": "2-(4-Morpholinothio)benzothiazole",
      "url": "https://haz-map.com/Agents/3056",
      "category": "agents"
    },
    {
      "type": "name_match",
      "text": "benzothiazole",
      "confidence": 1.0,
      "uuid": "6c7cc5de-c267-4997-9bab-ec67f286b5bb",
      "name": "Benzothiazole",
      "url": "https://haz-map.com/Agents/3866",
      "category": "agents"
    },
    {
      "type": "name_match",
      "text": "thiazole",
      "confidence": 1.0,
      "uuid": "239903f2-a226-4a4b-bc83-285f21b9610c",
      "name": "Thiazole",
      "url": "https://haz-map.com/Agents/17380",
      "category": "agents"
    }
  ],
  "all_links": [
    {
      "text": "Search PubMed",
      "url": "https://www.ncbi.nlm.nih.gov/pubmed?term=2-(4-Morpholinothio)benzothiazole%20AND%20human%5Bmh%5D%20AND%20%28Occupational%20Diseases%20%5Bmh%5D%20OR%20Occupational%20Exposure%20%5Bmh%5D%29%20%20AND%20%28tox%5Bsb%5D%29&cmd=search"
    },
    {
      "text": "Contact dermatitis, allergic",
      "url": "https://haz-map.com/Diseases/18"
    },
    {
      "text": "Metal Machining",
      "url": "https://haz-map.com/Processes/35"
    }
  ]
}