{
  "metadata": {
    "scraped_from": "https://haz-map.com/Agents/9064",
    "entity_name": "Allyl cyanide",
    "category": "agents",
    "uuid": "405d59ac-03b8-4f30-a397-201bce110081",
    "scraped_at": "2025-07-23T20:32:03.902765"
  },
  "parsed_at": "2025-07-24T01:03:29.710319",
  "title": "Allyl cyanide",
  "sections": {
    "general": {
      "agent_name": {
        "original_name": "Agent Name",
        "value": "Allyl cyanide",
        "links": [],
        "cross_references": [
          {
            "type": "name_match",
            "text": "allyl cyanide",
            "confidence": 1.0,
            "uuid": "405d59ac-03b8-4f30-a397-201bce110081",
            "name": "Allyl cyanide",
            "url": "https://haz-map.com/Agents/9064",
            "category": "agents"
          },
          {
            "type": "name_match",
            "text": "cyanide",
            "confidence": 1.0,
            "uuid": "0b4d38ba-cc5c-4386-8079-9e7ff8fb2d3a",
            "name": "Cyanide",
            "url": "https://haz-map.com/Agents/13350",
            "category": "agents"
          }
        ]
      },
      "cas_number": {
        "original_name": "CAS Number",
        "value": "109-75-1",
        "links": [],
        "cross_references": []
      },
      "formula": {
        "original_name": "Formula",
        "value": "C4-H5-N",
        "links": [],
        "cross_references": []
      },
      "major_category": {
        "original_name": "Major Category",
        "value": "Nitrogen Compounds",
        "links": [],
        "cross_references": [
          {
            "type": "name_match",
            "text": "nitrogen",
            "confidence": 1.0,
            "uuid": "db5e90a9-06d2-45b9-8b81-f345a89b0bc0",
            "name": "Nitrogen",
            "url": "https://haz-map.com/Agents/1072",
            "category": "agents"
          }
        ]
      },
      "synonyms": {
        "original_name": "Synonyms",
        "value": "1-Butene-4-nitrile; 3-Butenonitrile; 3-Butenylnitrile; 3-Cyano-1-propene; 3-Cyanopropene; Acetonitrile, vinyl-; Allylkyanid [Czech]; Allylnitrile; Propene-3-nitrile; TL 350; Vinylacetonitrile; beta-Butenonitrile; 3-Butenenitrile; [ChemIDplus]",
        "links": [],
        "cross_references": [
          {
            "type": "name_match",
            "text": "acetonitrile",
            "confidence": 1.0,
            "uuid": "84f1210b-94c6-4b35-8215-ba63f2fe4c64",
            "name": "Acetonitrile",
            "url": "https://haz-map.com/Agents/159",
            "category": "agents"
          }
        ]
      },
      "category": {
        "original_name": "Category",
        "value": "Nitriles",
        "links": [],
        "cross_references": [
          {
            "type": "name_match",
            "text": "nitriles",
            "confidence": 1.0,
            "uuid": "41430895-c07a-4421-888b-3d7122a4cd55",
            "name": "NITRILES",
            "url": "https://haz-map.com/Agents/715",
            "category": "agents"
          }
        ]
      },
      "description": {
        "original_name": "Description",
        "value": "Liquid with an odor like onions; [Merck Index]",
        "links": [],
        "cross_references": [
          {
            "type": "name_match",
            "text": "onions",
            "confidence": 1.0,
            "uuid": "0cea53cd-ef9b-436d-a6c3-1b3e2b0ffaae",
            "name": "Onions",
            "url": "https://haz-map.com/Agents/990",
            "category": "agents"
          }
        ]
      },
      "comments": {
        "original_name": "Comments",
        "value": "An irritant; Can be absorbed through skin; Effects in high-dose animal studies include convulsions; [MSDSonline]",
        "links": [],
        "cross_references": [
          {
            "type": "name_match",
            "text": "convulsion",
            "confidence": 1.0,
            "uuid": "af2c36f8-707a-48e3-a62b-1aa07adc9b72",
            "name": "convulsion",
            "url": "https://haz-map.com/Findings/14",
            "category": "findings"
          }
        ]
      },
      "biomedical_references": {
        "original_name": "Biomedical References",
        "value": "Search PubMed",
        "links": [
          {
            "text": "Search PubMed",
            "url": "https://www.ncbi.nlm.nih.gov/pubmed?term=Allyl+cyanide%20AND%20human%5Bmh%5D%20AND%20%28Occupational%20Diseases%20%5Bmh%5D%20OR%20Occupational%20Exposure%20%5Bmh%5D%29%20%20AND%20%28tox%5Bsb%5D%29&cmd=search"
          }
        ],
        "cross_references": []
      }
    },
    "exposure_assessment": {
      "vapor_pressure": {
        "original_name": "Vapor Pressure",
        "value": "18.5 mm Hg",
        "links": [],
        "cross_references": []
      },
      "lethal_concentration": {
        "original_name": "Lethal Concentration",
        "value": "LCLo (rat) = 500 ppm/4hr",
        "links": [],
        "cross_references": []
      },
      "explanatory_notes": {
        "original_name": "Explanatory Notes",
        "value": "VP from ChemIDplus;",
        "links": [],
        "cross_references": []
      }
    },
    "adverse_effects": {
      "other_poison": {
        "original_name": "Other Poison",
        "value": "Chemical Asphyxiant",
        "links": [],
        "cross_references": [
          {
            "type": "name_match",
            "text": "mica",
            "confidence": 1.0,
            "uuid": "433f26f1-c399-4596-b179-ce3843cfd465",
            "name": "Mica",
            "url": "https://haz-map.com/Agents/621",
            "category": "agents"
          }
        ]
      }
    },
    "diseases_processes_and_activities_linked_to_this_agent": {
      "other_information": {
        "original_name": "Other Information",
        "value": "No other related information on this agent was found.",
        "links": [],
        "cross_references": []
      }
    }
  },
  "cross_references": [
    {
      "type": "name_match",
      "text": "convulsion",
      "confidence": 1.0,
      "uuid": "af2c36f8-707a-48e3-a62b-1aa07adc9b72",
      "name": "convulsion",
      "url": "https://haz-map.com/Findings/14",
      "category": "findings"
    },
    {
      "type": "name_match",
      "text": "acetonitrile",
      "confidence": 1.0,
      "uuid": "84f1210b-94c6-4b35-8215-ba63f2fe4c64",
      "name": "Acetonitrile",
      "url": "https://haz-map.com/Agents/159",
      "category": "agents"
    },
    {
      "type": "name_match",
      "text": "mica",
      "confidence": 1.0,
      "uuid": "433f26f1-c399-4596-b179-ce3843cfd465",
      "name": "Mica",
      "url": "https://haz-map.com/Agents/621",
      "category": "agents"
    },
    {
      "type": "name_match",
      "text": "nitriles",
      "confidence": 1.0,
      "uuid": "41430895-c07a-4421-888b-3d7122a4cd55",
      "name": "NITRILES",
      "url": "https://haz-map.com/Agents/715",
      "category": "agents"
    },
    {
      "type": "name_match",
      "text": "onions",
      "confidence": 1.0,
      "uuid": "0cea53cd-ef9b-436d-a6c3-1b3e2b0ffaae",
      "name": "Onions",
      "url": "https://haz-map.com/Agents/990",
      "category": "agents"
    },
    {
      "type": "name_match",
      "text": "nitrogen",
      "confidence": 1.0,
      "uuid": "db5e90a9-06d2-45b9-8b81-f345a89b0bc0",
      "name": "Nitrogen",
      "url": "https://haz-map.com/Agents/1072",
      "category": "agents"
    },
    {
      "type": "name_match",
      "text": "allyl cyanide",
      "confidence": 1.0,
      "uuid": "405d59ac-03b8-4f30-a397-201bce110081",
      "name": "Allyl cyanide",
      "url": "https://haz-map.com/Agents/9064",
      "category": "agents"
    },
    {
      "type": "name_match",
      "text": "cyanide",
      "confidence": 1.0,
      "uuid": "0b4d38ba-cc5c-4386-8079-9e7ff8fb2d3a",
      "name": "Cyanide",
      "url": "https://haz-map.com/Agents/13350",
      "category": "agents"
    }
  ],
  "all_links": [
    {
      "text": "Search PubMed",
      "url": "https://www.ncbi.nlm.nih.gov/pubmed?term=Allyl+cyanide%20AND%20human%5Bmh%5D%20AND%20%28Occupational%20Diseases%20%5Bmh%5D%20OR%20Occupational%20Exposure%20%5Bmh%5D%29%20%20AND%20%28tox%5Bsb%5D%29&cmd=search"
    }
  ]
}