{
  "metadata": {
    "scraped_from": "https://haz-map.com/Agents/13732",
    "entity_name": "Dibenzo-24-crown-8",
    "category": "agents",
    "uuid": "408c69d3-ef8d-4688-8179-89633edd108e",
    "scraped_at": "2025-07-23T21:17:54.545741"
  },
  "parsed_at": "2025-07-24T00:50:46.281090",
  "title": "Dibenzo-24-crown-8",
  "sections": {
    "general": {
      "agent_name": {
        "original_name": "Agent Name",
        "value": "Dibenzo-24-crown-8",
        "links": [],
        "cross_references": [
          {
            "type": "name_match",
            "text": "dibenzo-24-crown-8",
            "confidence": 1.0,
            "uuid": "408c69d3-ef8d-4688-8179-89633edd108e",
            "name": "Dibenzo-24-crown-8",
            "url": "https://haz-map.com/Agents/13732",
            "category": "agents"
          }
        ]
      },
      "cas_number": {
        "original_name": "CAS Number",
        "value": "14174-09-5",
        "links": [],
        "cross_references": []
      },
      "formula": {
        "original_name": "Formula",
        "value": "C24-H32-O8",
        "links": [],
        "cross_references": []
      },
      "major_category": {
        "original_name": "Major Category",
        "value": "Other Classes",
        "links": [],
        "cross_references": []
      },
      "synonyms": {
        "original_name": "Synonyms",
        "value": "6,7,9,10,12,13,20,21,23,24,26,27- Dodecahydrodibenz(b,n)(1,4,7,10,13,16,19,22)octaoxacyclotetracosin; [ChemIDplus] [4,4]-Dibenzo-24-crown-8; [Acros Organics MSDS]",
        "links": [],
        "cross_references": [
          {
            "type": "name_match",
            "text": "dibenzo-24-crown-8",
            "confidence": 1.0,
            "uuid": "408c69d3-ef8d-4688-8179-89633edd108e",
            "name": "Dibenzo-24-crown-8",
            "url": "https://haz-map.com/Agents/13732",
            "category": "agents"
          }
        ]
      },
      "category": {
        "original_name": "Category",
        "value": "Other Organic Compounds",
        "links": [],
        "cross_references": [
          {
            "type": "fuzzy_match",
            "text": "organic compounds",
            "matched_name": "Tin, organic compounds",
            "confidence": 0.8196969696969697,
            "uuid": "e027d413-8869-4308-9eb2-27d768b011ea",
            "category": "agents",
            "url": "https://haz-map.com/Agents/656"
          }
        ]
      },
      "description": {
        "original_name": "Description",
        "value": "White powder; [Acros Organics MSDS]",
        "links": [],
        "cross_references": []
      },
      "sourcesuses": {
        "original_name": "Sources/Uses",
        "value": "Used for laboratory research; [Sigma-Aldrich]",
        "links": [],
        "cross_references": []
      },
      "comments": {
        "original_name": "Comments",
        "value": "An irritant; [Acros Organics MSDS]",
        "links": [],
        "cross_references": []
      },
      "biomedical_references": {
        "original_name": "Biomedical References",
        "value": "Search PubMed",
        "links": [
          {
            "text": "Search PubMed",
            "url": "https://www.ncbi.nlm.nih.gov/pubmed?term=Dibenzo-24-crown-8%20AND%20human%5Bmh%5D%20AND%20%28Occupational%20Diseases%20%5Bmh%5D%20OR%20Occupational%20Exposure%20%5Bmh%5D%29%20%20AND%20%28tox%5Bsb%5D%29&cmd=search"
          }
        ],
        "cross_references": []
      }
    },
    "exposure_assessment": {
      "vapor_pressure": {
        "original_name": "Vapor Pressure",
        "value": "1.11E-11 mm Hg",
        "links": [],
        "cross_references": []
      }
    },
    "diseases_processes_and_activities_linked_to_this_agent": {
      "other_information": {
        "original_name": "Other Information",
        "value": "No other related information on this agent was found.",
        "links": [],
        "cross_references": []
      }
    }
  },
  "cross_references": [
    {
      "type": "name_match",
      "text": "dibenzo-24-crown-8",
      "confidence": 1.0,
      "uuid": "408c69d3-ef8d-4688-8179-89633edd108e",
      "name": "Dibenzo-24-crown-8",
      "url": "https://haz-map.com/Agents/13732",
      "category": "agents"
    },
    {
      "type": "fuzzy_match",
      "text": "organic compounds",
      "matched_name": "Tin, organic compounds",
      "confidence": 0.8196969696969697,
      "uuid": "e027d413-8869-4308-9eb2-27d768b011ea",
      "category": "agents",
      "url": "https://haz-map.com/Agents/656"
    }
  ],
  "all_links": [
    {
      "text": "Search PubMed",
      "url": "https://www.ncbi.nlm.nih.gov/pubmed?term=Dibenzo-24-crown-8%20AND%20human%5Bmh%5D%20AND%20%28Occupational%20Diseases%20%5Bmh%5D%20OR%20Occupational%20Exposure%20%5Bmh%5D%29%20%20AND%20%28tox%5Bsb%5D%29&cmd=search"
    }
  ]
}