{
  "metadata": {
    "scraped_from": "https://haz-map.com/Agents/17416",
    "entity_name": "Tetraethylammonium chloride",
    "category": "agents",
    "uuid": "4157fd39-6c5a-4ab5-aef5-89ef64bfe5bd",
    "scraped_at": "2025-07-23T21:46:18.868335"
  },
  "parsed_at": "2025-07-24T00:59:33.820013",
  "title": "Tetraethylammonium chloride",
  "sections": {
    "general": {
      "agent_name": {
        "original_name": "Agent Name",
        "value": "Tetraethylammonium chloride",
        "links": [],
        "cross_references": [
          {
            "type": "name_match",
            "text": "tetraethylammonium chloride",
            "confidence": 1.0,
            "uuid": "4157fd39-6c5a-4ab5-aef5-89ef64bfe5bd",
            "name": "Tetraethylammonium chloride",
            "url": "https://haz-map.com/Agents/17416",
            "category": "agents"
          }
        ]
      },
      "cas_number": {
        "original_name": "CAS Number",
        "value": "56-34-8",
        "links": [],
        "cross_references": []
      },
      "formula": {
        "original_name": "Formula",
        "value": "C8-H20-N.Cl",
        "links": [],
        "cross_references": []
      },
      "major_category": {
        "original_name": "Major Category",
        "value": "Nitrogen Compounds",
        "links": [],
        "cross_references": [
          {
            "type": "name_match",
            "text": "nitrogen",
            "confidence": 1.0,
            "uuid": "db5e90a9-06d2-45b9-8b81-f345a89b0bc0",
            "name": "Nitrogen",
            "url": "https://haz-map.com/Agents/1072",
            "category": "agents"
          }
        ]
      },
      "synonyms": {
        "original_name": "Synonyms",
        "value": "Ammonium, tetraethyl-, chloride; Ethanaminium, N,N,N-triethyl-, chloride; Etamon chloride; N,N,N-Triethylethanaminium chloride; TEA chloride; TEAC; [ChemIDplus]",
        "links": [],
        "cross_references": [
          {
            "type": "name_match",
            "text": "tea",
            "confidence": 1.0,
            "uuid": "773409e5-ac1a-4c9e-9470-9667ca82091c",
            "name": "Tea",
            "url": "https://haz-map.com/Agents/878",
            "category": "agents"
          }
        ]
      },
      "category": {
        "original_name": "Category",
        "value": "Quaternary Amines",
        "links": [],
        "cross_references": []
      },
      "description": {
        "original_name": "Description",
        "value": "Deliquescent solid; [Merck Index] Colorless or light yellow hygroscopic crystals; [Sigma-Aldrich MSDS]",
        "links": [],
        "cross_references": [
          {
            "type": "name_match",
            "text": "ht",
            "confidence": 1.0,
            "uuid": "764df367-8d53-4a11-81a2-31ccfe122a8d",
            "name": "HT",
            "url": "https://haz-map.com/Agents/2168",
            "category": "agents"
          }
        ]
      },
      "sourcesuses": {
        "original_name": "Sources/Uses",
        "value": "Used as a catalyst (dehydrogenation and polymerization) and electrolyte (membrane transport studies); [Merck Index]",
        "links": [],
        "cross_references": [
          {
            "type": "name_match",
            "text": "hydrogen",
            "confidence": 1.0,
            "uuid": "e2d9645f-5559-4d88-b820-fc4710c154f2",
            "name": "Hydrogen",
            "url": "https://haz-map.com/Agents/1070",
            "category": "agents"
          }
        ]
      },
      "comments": {
        "original_name": "Comments",
        "value": "Causes somnolence, tremor, and muscle weakness in oral, intraperitoneal, and intramuscular lethal-dose studies of mice and rats; Human intravenous injection of 5 mg/kg causes paresthesias, mydriasis, and ptosis; [RTECS] A skin and strong eye irritant; Targets the heart and CNS; [Sigma-Aldrich MSDS] See \"Tetraethylammonium bromide.\"",
        "links": [],
        "cross_references": [
          {
            "type": "name_match",
            "text": "paresthesia",
            "confidence": 1.0,
            "uuid": "cf0020a9-92ed-4a41-8058-60a543f49836",
            "name": "paresthesia",
            "url": "https://haz-map.com/Findings/26",
            "category": "findings"
          },
          {
            "type": "name_match",
            "text": "tremor",
            "confidence": 1.0,
            "uuid": "5532ab3c-17c6-467e-a96a-d8807c63fb9e",
            "name": "tremor",
            "url": "https://haz-map.com/Findings/50",
            "category": "findings"
          },
          {
            "type": "name_match",
            "text": "weakness",
            "confidence": 1.0,
            "uuid": "44bfccd5-0f7a-48f7-b4eb-de9a6ef23064",
            "name": "weakness",
            "url": "https://haz-map.com/Findings/83",
            "category": "findings"
          },
          {
            "type": "name_match",
            "text": "ammonium bromide",
            "confidence": 1.0,
            "uuid": "9ed368ff-5bf9-447c-bf6e-3a4acc39ad09",
            "name": "Ammonium bromide",
            "url": "https://haz-map.com/Agents/3649",
            "category": "agents"
          },
          {
            "type": "name_match",
            "text": "tetraethylammonium bromide",
            "confidence": 1.0,
            "uuid": "73757f8f-05f4-4ed8-967a-4c091a7f1207",
            "name": "Tetraethylammonium bromide",
            "url": "https://haz-map.com/Agents/17415",
            "category": "agents"
          }
        ]
      },
      "biomedical_references": {
        "original_name": "Biomedical References",
        "value": "Search PubMed",
        "links": [
          {
            "text": "Search PubMed",
            "url": "https://www.ncbi.nlm.nih.gov/pubmed?term=Tetraethylammonium+chloride%20AND%20human%5Bmh%5D%20AND%20%28Occupational%20Diseases%20%5Bmh%5D%20OR%20Occupational%20Exposure%20%5Bmh%5D%29%20%20AND%20%28tox%5Bsb%5D%29&cmd=search"
          }
        ],
        "cross_references": []
      }
    },
    "exposure_assessment": {
      "vapor_pressure": {
        "original_name": "Vapor Pressure",
        "value": "3.08E-06 mm Hg",
        "links": [],
        "cross_references": []
      }
    },
    "adverse_effects": {
      "neurotoxin": {
        "original_name": "Neurotoxin",
        "value": "Other CNS neurotoxin",
        "links": [],
        "cross_references": []
      }
    },
    "diseases_processes_and_activities_linked_to_this_agent": {
      "other_information": {
        "original_name": "Other Information",
        "value": "No other related information on this agent was found.",
        "links": [],
        "cross_references": []
      }
    }
  },
  "cross_references": [
    {
      "type": "name_match",
      "text": "paresthesia",
      "confidence": 1.0,
      "uuid": "cf0020a9-92ed-4a41-8058-60a543f49836",
      "name": "paresthesia",
      "url": "https://haz-map.com/Findings/26",
      "category": "findings"
    },
    {
      "type": "name_match",
      "text": "tremor",
      "confidence": 1.0,
      "uuid": "5532ab3c-17c6-467e-a96a-d8807c63fb9e",
      "name": "tremor",
      "url": "https://haz-map.com/Findings/50",
      "category": "findings"
    },
    {
      "type": "name_match",
      "text": "weakness",
      "confidence": 1.0,
      "uuid": "44bfccd5-0f7a-48f7-b4eb-de9a6ef23064",
      "name": "weakness",
      "url": "https://haz-map.com/Findings/83",
      "category": "findings"
    },
    {
      "type": "name_match",
      "text": "tea",
      "confidence": 1.0,
      "uuid": "773409e5-ac1a-4c9e-9470-9667ca82091c",
      "name": "Tea",
      "url": "https://haz-map.com/Agents/878",
      "category": "agents"
    },
    {
      "type": "name_match",
      "text": "hydrogen",
      "confidence": 1.0,
      "uuid": "e2d9645f-5559-4d88-b820-fc4710c154f2",
      "name": "Hydrogen",
      "url": "https://haz-map.com/Agents/1070",
      "category": "agents"
    },
    {
      "type": "name_match",
      "text": "nitrogen",
      "confidence": 1.0,
      "uuid": "db5e90a9-06d2-45b9-8b81-f345a89b0bc0",
      "name": "Nitrogen",
      "url": "https://haz-map.com/Agents/1072",
      "category": "agents"
    },
    {
      "type": "name_match",
      "text": "ht",
      "confidence": 1.0,
      "uuid": "764df367-8d53-4a11-81a2-31ccfe122a8d",
      "name": "HT",
      "url": "https://haz-map.com/Agents/2168",
      "category": "agents"
    },
    {
      "type": "name_match",
      "text": "ammonium bromide",
      "confidence": 1.0,
      "uuid": "9ed368ff-5bf9-447c-bf6e-3a4acc39ad09",
      "name": "Ammonium bromide",
      "url": "https://haz-map.com/Agents/3649",
      "category": "agents"
    },
    {
      "type": "name_match",
      "text": "tetraethylammonium bromide",
      "confidence": 1.0,
      "uuid": "73757f8f-05f4-4ed8-967a-4c091a7f1207",
      "name": "Tetraethylammonium bromide",
      "url": "https://haz-map.com/Agents/17415",
      "category": "agents"
    },
    {
      "type": "name_match",
      "text": "tetraethylammonium chloride",
      "confidence": 1.0,
      "uuid": "4157fd39-6c5a-4ab5-aef5-89ef64bfe5bd",
      "name": "Tetraethylammonium chloride",
      "url": "https://haz-map.com/Agents/17416",
      "category": "agents"
    }
  ],
  "all_links": [
    {
      "text": "Search PubMed",
      "url": "https://www.ncbi.nlm.nih.gov/pubmed?term=Tetraethylammonium+chloride%20AND%20human%5Bmh%5D%20AND%20%28Occupational%20Diseases%20%5Bmh%5D%20OR%20Occupational%20Exposure%20%5Bmh%5D%29%20%20AND%20%28tox%5Bsb%5D%29&cmd=search"
    }
  ]
}