{
  "metadata": {
    "scraped_from": "https://haz-map.com/Agents/4672",
    "entity_name": "Dehydroabietylamine",
    "category": "agents",
    "uuid": "41595f76-c710-4c5d-866c-30ceaf9f0c5d",
    "scraped_at": "2025-07-23T19:43:24.123553"
  },
  "parsed_at": "2025-07-24T01:05:51.958013",
  "title": "Dehydroabietylamine",
  "sections": {
    "general": {
      "agent_name": {
        "original_name": "Agent Name",
        "value": "Dehydroabietylamine",
        "links": [],
        "cross_references": [
          {
            "type": "name_match",
            "text": "dehydroabietylamine",
            "confidence": 1.0,
            "uuid": "41595f76-c710-4c5d-866c-30ceaf9f0c5d",
            "name": "Dehydroabietylamine",
            "url": "https://haz-map.com/Agents/4672",
            "category": "agents"
          }
        ]
      },
      "cas_number": {
        "original_name": "CAS Number",
        "value": "1446-61-3",
        "links": [],
        "cross_references": []
      },
      "formula": {
        "original_name": "Formula",
        "value": "C20-H31-N",
        "links": [],
        "cross_references": []
      },
      "major_category": {
        "original_name": "Major Category",
        "value": "Biological Agents",
        "links": [],
        "cross_references": []
      },
      "synonyms": {
        "original_name": "Synonyms",
        "value": "1-Phenanthrenemethanamine, 1,2,3,4,4a,9,10,10a-octahydro-1,4a-dimethyl-7-(1-methylethyl)-, (1R-(1alpha,4abeta,10aalpha))-; 13-Isopropylpodocarpa-8,11,13-trien-15-amine; Amine D; Podocarpa-8,11,13-trien-15-amine, 13-isopropyl-; [ChemIDplus]",
        "links": [],
        "cross_references": [
          {
            "type": "name_match",
            "text": "phenanthrene",
            "confidence": 1.0,
            "uuid": "46b9b367-bbde-4453-9fc0-b85eea1ca31a",
            "name": "Phenanthrene",
            "url": "https://haz-map.com/Agents/7861",
            "category": "agents"
          }
        ]
      },
      "category": {
        "original_name": "Category",
        "value": "Rosin and Derivatives",
        "links": [],
        "cross_references": []
      },
      "description": {
        "original_name": "Description",
        "value": "Pale yellow viscous liquid; [HSDB]",
        "links": [],
        "cross_references": []
      },
      "sourcesuses": {
        "original_name": "Sources/Uses",
        "value": "Used to make bactericides, fungicides, corrosion inhibitors, asphalt additives, and flotation agents; [HSDB]",
        "links": [],
        "cross_references": [
          {
            "type": "name_match",
            "text": "fungicides",
            "confidence": 1.0,
            "uuid": "f4a9c1e1-4d57-4480-be97-d3590d38ce39",
            "name": "FUNGICIDES",
            "url": "https://haz-map.com/Agents/763",
            "category": "agents"
          },
          {
            "type": "name_match",
            "text": "fungi",
            "confidence": 1.0,
            "uuid": "e0d489cb-bfee-4aee-b665-999c017268a2",
            "name": "Fungi",
            "url": "https://haz-map.com/Agents/1988",
            "category": "agents"
          }
        ]
      },
      "comments": {
        "original_name": "Comments",
        "value": "An irritant; May cause allergic skin reaction; [MP Biomedicals MSDS] Abietic acid is the active allergen present in colophony. [Marks, p. 80] See \"Abietic acid.\"",
        "links": [],
        "cross_references": [
          {
            "type": "name_match",
            "text": "colophony",
            "confidence": 1.0,
            "uuid": "f7490dc8-6d8e-4a51-a8a7-7ef25d16af8e",
            "name": "Colophony",
            "url": "https://haz-map.com/Agents/841",
            "category": "agents"
          },
          {
            "type": "name_match",
            "text": "abietic acid",
            "confidence": 1.0,
            "uuid": "12a7bd64-aed3-4633-9f8b-279d3fc2559b",
            "name": "Abietic acid",
            "url": "https://haz-map.com/Agents/7817",
            "category": "agents"
          }
        ]
      },
      "biomedical_references": {
        "original_name": "Biomedical References",
        "value": "Search PubMed",
        "links": [
          {
            "text": "Search PubMed",
            "url": "https://www.ncbi.nlm.nih.gov/pubmed?term=Dehydroabietylamine%20AND%20human%5Bmh%5D%20AND%20%28Occupational%20Diseases%20%5Bmh%5D%20OR%20Occupational%20Exposure%20%5Bmh%5D%29%20%20AND%20%28tox%5Bsb%5D%29&cmd=search"
          }
        ],
        "cross_references": []
      }
    },
    "exposure_assessment": {
      "vapor_pressure": {
        "original_name": "Vapor Pressure",
        "value": "4.2E-06 mm Hg",
        "links": [],
        "cross_references": []
      }
    },
    "diseases_processes_and_activities_linked_to_this_agent": {
      "other_information": {
        "original_name": "Other Information",
        "value": "No other related information on this agent was found.",
        "links": [],
        "cross_references": []
      }
    }
  },
  "cross_references": [
    {
      "type": "name_match",
      "text": "fungicides",
      "confidence": 1.0,
      "uuid": "f4a9c1e1-4d57-4480-be97-d3590d38ce39",
      "name": "FUNGICIDES",
      "url": "https://haz-map.com/Agents/763",
      "category": "agents"
    },
    {
      "type": "name_match",
      "text": "colophony",
      "confidence": 1.0,
      "uuid": "f7490dc8-6d8e-4a51-a8a7-7ef25d16af8e",
      "name": "Colophony",
      "url": "https://haz-map.com/Agents/841",
      "category": "agents"
    },
    {
      "type": "name_match",
      "text": "fungi",
      "confidence": 1.0,
      "uuid": "e0d489cb-bfee-4aee-b665-999c017268a2",
      "name": "Fungi",
      "url": "https://haz-map.com/Agents/1988",
      "category": "agents"
    },
    {
      "type": "name_match",
      "text": "dehydroabietylamine",
      "confidence": 1.0,
      "uuid": "41595f76-c710-4c5d-866c-30ceaf9f0c5d",
      "name": "Dehydroabietylamine",
      "url": "https://haz-map.com/Agents/4672",
      "category": "agents"
    },
    {
      "type": "name_match",
      "text": "abietic acid",
      "confidence": 1.0,
      "uuid": "12a7bd64-aed3-4633-9f8b-279d3fc2559b",
      "name": "Abietic acid",
      "url": "https://haz-map.com/Agents/7817",
      "category": "agents"
    },
    {
      "type": "name_match",
      "text": "phenanthrene",
      "confidence": 1.0,
      "uuid": "46b9b367-bbde-4453-9fc0-b85eea1ca31a",
      "name": "Phenanthrene",
      "url": "https://haz-map.com/Agents/7861",
      "category": "agents"
    }
  ],
  "all_links": [
    {
      "text": "Search PubMed",
      "url": "https://www.ncbi.nlm.nih.gov/pubmed?term=Dehydroabietylamine%20AND%20human%5Bmh%5D%20AND%20%28Occupational%20Diseases%20%5Bmh%5D%20OR%20Occupational%20Exposure%20%5Bmh%5D%29%20%20AND%20%28tox%5Bsb%5D%29&cmd=search"
    }
  ]
}