{
  "metadata": {
    "scraped_from": "https://haz-map.com/Agents/19286",
    "entity_name": "1,5-Dichloro-1,4-cyclooctadiene",
    "category": "agents",
    "uuid": "416e4a4c-40b1-40d0-ae47-7ae00a1a0e8a",
    "scraped_at": "2025-07-23T22:03:00.124876"
  },
  "parsed_at": "2025-07-24T00:54:48.124977",
  "title": "1,5-Dichloro-1,4-cyclooctadiene",
  "sections": {
    "general": {
      "agent_name": {
        "original_name": "Agent Name",
        "value": "1,5-Dichloro-1,4-cyclooctadiene",
        "links": [],
        "cross_references": [
          {
            "type": "name_match",
            "text": "octadiene",
            "confidence": 1.0,
            "uuid": "1c5a8b36-be1a-4a27-beee-c85bdd9789c7",
            "name": "Octadiene",
            "url": "https://haz-map.com/Agents/16220",
            "category": "agents"
          },
          {
            "type": "name_match",
            "text": "1,5-dichloro-1,4-cyclooctadiene",
            "confidence": 1.0,
            "uuid": "416e4a4c-40b1-40d0-ae47-7ae00a1a0e8a",
            "name": "1,5-Dichloro-1,4-cyclooctadiene",
            "url": "https://haz-map.com/Agents/19286",
            "category": "agents"
          }
        ]
      },
      "cas_number": {
        "original_name": "CAS Number",
        "value": "83682-65-9",
        "links": [],
        "cross_references": []
      },
      "formula": {
        "original_name": "Formula",
        "value": "C8-H10-Cl2",
        "links": [],
        "cross_references": []
      },
      "major_category": {
        "original_name": "Major Category",
        "value": "Other Classes",
        "links": [],
        "cross_references": []
      },
      "category": {
        "original_name": "Category",
        "value": "Halogenated Aliphatics, Unsaturated",
        "links": [],
        "cross_references": []
      },
      "comments": {
        "original_name": "Comments",
        "value": "See \"1,5-Cyclooctadiene.\"",
        "links": [],
        "cross_references": [
          {
            "type": "name_match",
            "text": "1,5-cyclooctadiene",
            "confidence": 1.0,
            "uuid": "668cc648-7db8-4108-9e44-da73ab927dff",
            "name": "1,5-Cyclooctadiene",
            "url": "https://haz-map.com/Agents/2214",
            "category": "agents"
          },
          {
            "type": "name_match",
            "text": "octadiene",
            "confidence": 1.0,
            "uuid": "1c5a8b36-be1a-4a27-beee-c85bdd9789c7",
            "name": "Octadiene",
            "url": "https://haz-map.com/Agents/16220",
            "category": "agents"
          }
        ]
      },
      "biomedical_references": {
        "original_name": "Biomedical References",
        "value": "Search PubMed",
        "links": [
          {
            "text": "Search PubMed",
            "url": "https://www.ncbi.nlm.nih.gov/pubmed?term=1%2c5-Dichloro-1%2c4-cyclooctadiene%20AND%20human%5Bmh%5D%20AND%20%28Occupational%20Diseases%20%5Bmh%5D%20OR%20Occupational%20Exposure%20%5Bmh%5D%29%20%20AND%20%28tox%5Bsb%5D%29&cmd=search"
          }
        ],
        "cross_references": []
      }
    },
    "exposure_assessment": {
      "vapor_pressure": {
        "original_name": "Vapor Pressure",
        "value": "0.391 mm Hg",
        "links": [],
        "cross_references": []
      }
    },
    "diseases_processes_and_activities_linked_to_this_agent": {
      "other_information": {
        "original_name": "Other Information",
        "value": "No other related information on this agent was found.",
        "links": [],
        "cross_references": []
      }
    }
  },
  "cross_references": [
    {
      "type": "name_match",
      "text": "1,5-cyclooctadiene",
      "confidence": 1.0,
      "uuid": "668cc648-7db8-4108-9e44-da73ab927dff",
      "name": "1,5-Cyclooctadiene",
      "url": "https://haz-map.com/Agents/2214",
      "category": "agents"
    },
    {
      "type": "name_match",
      "text": "octadiene",
      "confidence": 1.0,
      "uuid": "1c5a8b36-be1a-4a27-beee-c85bdd9789c7",
      "name": "Octadiene",
      "url": "https://haz-map.com/Agents/16220",
      "category": "agents"
    },
    {
      "type": "name_match",
      "text": "1,5-dichloro-1,4-cyclooctadiene",
      "confidence": 1.0,
      "uuid": "416e4a4c-40b1-40d0-ae47-7ae00a1a0e8a",
      "name": "1,5-Dichloro-1,4-cyclooctadiene",
      "url": "https://haz-map.com/Agents/19286",
      "category": "agents"
    }
  ],
  "all_links": [
    {
      "text": "Search PubMed",
      "url": "https://www.ncbi.nlm.nih.gov/pubmed?term=1%2c5-Dichloro-1%2c4-cyclooctadiene%20AND%20human%5Bmh%5D%20AND%20%28Occupational%20Diseases%20%5Bmh%5D%20OR%20Occupational%20Exposure%20%5Bmh%5D%29%20%20AND%20%28tox%5Bsb%5D%29&cmd=search"
    }
  ]
}