{
  "metadata": {
    "scraped_from": "https://haz-map.com/Agents/18458",
    "entity_name": "Tropolone",
    "category": "agents",
    "uuid": "418f62bd-8808-488b-9494-d507f65c94ad",
    "scraped_at": "2025-07-23T21:55:51.644119"
  },
  "parsed_at": "2025-07-24T01:17:24.735062",
  "title": "Tropolone",
  "sections": {
    "general": {
      "agent_name": {
        "original_name": "Agent Name",
        "value": "Tropolone",
        "links": [],
        "cross_references": [
          {
            "type": "name_match",
            "text": "tropolone",
            "confidence": 1.0,
            "uuid": "418f62bd-8808-488b-9494-d507f65c94ad",
            "name": "Tropolone",
            "url": "https://haz-map.com/Agents/18458",
            "category": "agents"
          }
        ]
      },
      "cas_number": {
        "original_name": "CAS Number",
        "value": "533-75-5",
        "links": [],
        "cross_references": []
      },
      "formula": {
        "original_name": "Formula",
        "value": "C7-H6-O2",
        "links": [],
        "cross_references": []
      },
      "major_category": {
        "original_name": "Major Category",
        "value": "Other Uses",
        "links": [],
        "cross_references": []
      },
      "synonyms": {
        "original_name": "Synonyms",
        "value": "2,4,6-Cycloheptatrien-1-one, 2-hydroxy-; 2-Hydroxycyclohepta-2,4,6-trienone; 2-Hydroxytropone; Purpurocatechol; [ChemIDplus] 2-Hydroxy2,4,6-cycloheptatrien-1-one; [Merck Index] 2-Hydroxy2,4,6-cycloheptatrienone; [Acros Organics MSDS]",
        "links": [],
        "cross_references": [
          {
            "type": "name_match",
            "text": "catechol",
            "confidence": 1.0,
            "uuid": "f171132b-f7fb-42b9-ba76-091eb240fa4a",
            "name": "Catechol",
            "url": "https://haz-map.com/Agents/346",
            "category": "agents"
          }
        ]
      },
      "category": {
        "original_name": "Category",
        "value": "Biochemical Research",
        "links": [],
        "cross_references": [
          {
            "type": "name_match",
            "text": "mica",
            "confidence": 1.0,
            "uuid": "433f26f1-c399-4596-b179-ce3843cfd465",
            "name": "Mica",
            "url": "https://haz-map.com/Agents/621",
            "category": "agents"
          }
        ]
      },
      "description": {
        "original_name": "Description",
        "value": "Colorless solid; [Merck Index] Light yellow to cream hygroscopic solid; [Acros Organics MSDS]",
        "links": [],
        "cross_references": [
          {
            "type": "name_match",
            "text": "ht",
            "confidence": 1.0,
            "uuid": "764df367-8d53-4a11-81a2-31ccfe122a8d",
            "name": "HT",
            "url": "https://haz-map.com/Agents/2168",
            "category": "agents"
          }
        ]
      },
      "sourcesuses": {
        "original_name": "Sources/Uses",
        "value": "A natural antibiotic; The seven-carbon ring structure is a prototype for a group of natural bioactive products known as tropolonoids; Used as a ligand for cell radiolabeling; [Merck Index]",
        "links": [],
        "cross_references": [
          {
            "type": "name_match",
            "text": "carbon",
            "confidence": 1.0,
            "uuid": "b53f8815-ee80-40ef-b4aa-3b000e17dab5",
            "name": "Carbon",
            "url": "https://haz-map.com/Agents/1891",
            "category": "agents"
          }
        ]
      },
      "comments": {
        "original_name": "Comments",
        "value": "Causes convulsions and rigidity (including catalepsy) in intraperitoneal lethal-dose studies of mice and rats; [RTECS] May cause irritation; [Acros Organics MSDS]",
        "links": [],
        "cross_references": [
          {
            "type": "name_match",
            "text": "convulsion",
            "confidence": 1.0,
            "uuid": "af2c36f8-707a-48e3-a62b-1aa07adc9b72",
            "name": "convulsion",
            "url": "https://haz-map.com/Findings/14",
            "category": "findings"
          },
          {
            "type": "name_match",
            "text": "rigidity",
            "confidence": 1.0,
            "uuid": "ca99ef05-6a4b-40d6-a0a3-52902650761c",
            "name": "rigidity",
            "url": "https://haz-map.com/Findings/243",
            "category": "findings"
          }
        ]
      },
      "biomedical_references": {
        "original_name": "Biomedical References",
        "value": "Search PubMed",
        "links": [
          {
            "text": "Search PubMed",
            "url": "https://www.ncbi.nlm.nih.gov/pubmed?term=Tropolone%20AND%20human%5Bmh%5D%20AND%20%28Occupational%20Diseases%20%5Bmh%5D%20OR%20Occupational%20Exposure%20%5Bmh%5D%29%20%20AND%20%28tox%5Bsb%5D%29&cmd=search"
          }
        ],
        "cross_references": []
      }
    },
    "exposure_assessment": {
      "vapor_pressure": {
        "original_name": "Vapor Pressure",
        "value": "0.000679 mm Hg",
        "links": [],
        "cross_references": []
      }
    },
    "diseases_processes_and_activities_linked_to_this_agent": {
      "other_information": {
        "original_name": "Other Information",
        "value": "No other related information on this agent was found.",
        "links": [],
        "cross_references": []
      }
    }
  },
  "cross_references": [
    {
      "type": "name_match",
      "text": "convulsion",
      "confidence": 1.0,
      "uuid": "af2c36f8-707a-48e3-a62b-1aa07adc9b72",
      "name": "convulsion",
      "url": "https://haz-map.com/Findings/14",
      "category": "findings"
    },
    {
      "type": "name_match",
      "text": "rigidity",
      "confidence": 1.0,
      "uuid": "ca99ef05-6a4b-40d6-a0a3-52902650761c",
      "name": "rigidity",
      "url": "https://haz-map.com/Findings/243",
      "category": "findings"
    },
    {
      "type": "name_match",
      "text": "catechol",
      "confidence": 1.0,
      "uuid": "f171132b-f7fb-42b9-ba76-091eb240fa4a",
      "name": "Catechol",
      "url": "https://haz-map.com/Agents/346",
      "category": "agents"
    },
    {
      "type": "name_match",
      "text": "mica",
      "confidence": 1.0,
      "uuid": "433f26f1-c399-4596-b179-ce3843cfd465",
      "name": "Mica",
      "url": "https://haz-map.com/Agents/621",
      "category": "agents"
    },
    {
      "type": "name_match",
      "text": "carbon",
      "confidence": 1.0,
      "uuid": "b53f8815-ee80-40ef-b4aa-3b000e17dab5",
      "name": "Carbon",
      "url": "https://haz-map.com/Agents/1891",
      "category": "agents"
    },
    {
      "type": "name_match",
      "text": "ht",
      "confidence": 1.0,
      "uuid": "764df367-8d53-4a11-81a2-31ccfe122a8d",
      "name": "HT",
      "url": "https://haz-map.com/Agents/2168",
      "category": "agents"
    },
    {
      "type": "name_match",
      "text": "tropolone",
      "confidence": 1.0,
      "uuid": "418f62bd-8808-488b-9494-d507f65c94ad",
      "name": "Tropolone",
      "url": "https://haz-map.com/Agents/18458",
      "category": "agents"
    }
  ],
  "all_links": [
    {
      "text": "Search PubMed",
      "url": "https://www.ncbi.nlm.nih.gov/pubmed?term=Tropolone%20AND%20human%5Bmh%5D%20AND%20%28Occupational%20Diseases%20%5Bmh%5D%20OR%20Occupational%20Exposure%20%5Bmh%5D%29%20%20AND%20%28tox%5Bsb%5D%29&cmd=search"
    }
  ]
}