{
  "metadata": {
    "scraped_from": "https://haz-map.com/Agents/4533",
    "entity_name": "Crimidine",
    "category": "agents",
    "uuid": "41e955a4-da4a-45bd-bf90-673b09bf5ff3",
    "scraped_at": "2025-07-23T19:41:50.030767"
  },
  "parsed_at": "2025-07-24T00:59:57.353944",
  "title": "Crimidine",
  "sections": {
    "general": {
      "agent_name": {
        "original_name": "Agent Name",
        "value": "Crimidine",
        "links": [],
        "cross_references": [
          {
            "type": "name_match",
            "text": "crimidine",
            "confidence": 1.0,
            "uuid": "41e955a4-da4a-45bd-bf90-673b09bf5ff3",
            "name": "Crimidine",
            "url": "https://haz-map.com/Agents/4533",
            "category": "agents"
          }
        ]
      },
      "cas_number": {
        "original_name": "CAS Number",
        "value": "535-89-7",
        "links": [],
        "cross_references": []
      },
      "formula": {
        "original_name": "Formula",
        "value": "C7-H10-Cl-N3",
        "links": [],
        "cross_references": []
      },
      "major_category": {
        "original_name": "Major Category",
        "value": "Pesticides",
        "links": [],
        "cross_references": []
      },
      "synonyms": {
        "original_name": "Synonyms",
        "value": "2-Chloor-4-dimethylamino-6-methyl-pyrimidine [Dutch]; 2-Chlor-4-dimethylamino-6-methylpyrimidin [German]; 2-Chloro-4-dimethylamino-6-methyl-pyrimidine; 2-Chloro-4-methyl-6-dimethylaminopyrimidine; 2-Chloro-N,N,6-trimethylpyrimidin-4-ylamine; 2-Chloro-N,N-6-trimethyl-4-pyrimidinamine; 2-Cloro-4-dimetilamino-6-metil-pirimidina [Italian]; 4-Pyrimidinamine, 2-chloro-N,N,6-trimethyl-; Castrix; Crimidin [German]; Crimidina [Italian]; Crimidine [ISO:BSI]; Pyrimidine, 2-chloro-4-(dimethylamino)-6-methyl-; W 491; W-491; [ChemIDplus]",
        "links": [],
        "cross_references": [
          {
            "type": "name_match",
            "text": "tali",
            "confidence": 1.0,
            "uuid": "8c3a0f99-2143-4122-b539-ec5cc49596b0",
            "name": "Tali",
            "url": "https://haz-map.com/Agents/1128",
            "category": "agents"
          },
          {
            "type": "name_match",
            "text": "crimidine",
            "confidence": 1.0,
            "uuid": "41e955a4-da4a-45bd-bf90-673b09bf5ff3",
            "name": "Crimidine",
            "url": "https://haz-map.com/Agents/4533",
            "category": "agents"
          },
          {
            "type": "name_match",
            "text": "pyrimidine",
            "confidence": 1.0,
            "uuid": "8c810e75-fc30-4402-838c-43fcd0d46a84",
            "name": "Pyrimidine",
            "url": "https://haz-map.com/Agents/9521",
            "category": "agents"
          }
        ]
      },
      "category": {
        "original_name": "Category",
        "value": "Rodenticides",
        "links": [],
        "cross_references": []
      },
      "description": {
        "original_name": "Description",
        "value": "Colorless solid; Commercial product is brown and waxy; [HSDB] Colorless odorless crystalline solid; [MSDSonline]",
        "links": [],
        "cross_references": [
          {
            "type": "fuzzy_match",
            "text": "crystalline",
            "matched_name": "Silica, crystalline",
            "confidence": 0.7061403508771931,
            "uuid": "f920e8a2-46df-41b7-af8d-0368a777251e",
            "category": "agents",
            "url": "https://haz-map.com/Agents/427"
          }
        ]
      },
      "sourcesuses": {
        "original_name": "Sources/Uses",
        "value": "Used as rodenticide (rapidly induces convulsions); Likely discontinued for pesticide use worldwide; [HSDB]",
        "links": [],
        "cross_references": [
          {
            "type": "name_match",
            "text": "convulsion",
            "confidence": 1.0,
            "uuid": "af2c36f8-707a-48e3-a62b-1aa07adc9b72",
            "name": "convulsion",
            "url": "https://haz-map.com/Findings/14",
            "category": "findings"
          }
        ]
      },
      "comments": {
        "original_name": "Comments",
        "value": "A pyridoxine antagonist that causes convulsions 20-40 minutes after ingestion of less than 5 mg/kg or less than 7 drops; A skin, eye, nose, and throat irritant; May cause burns to skin and eyes; [HSDB] May cause serious damage to CNS; [CAMEO] An irritant; May cause serious eye injury; May cause skin sensitization; Effects in high-dose animal studies include convulsions; [MSDSonline]",
        "links": [],
        "cross_references": [
          {
            "type": "name_match",
            "text": "convulsion",
            "confidence": 1.0,
            "uuid": "af2c36f8-707a-48e3-a62b-1aa07adc9b72",
            "name": "convulsion",
            "url": "https://haz-map.com/Findings/14",
            "category": "findings"
          },
          {
            "type": "name_match",
            "text": "burn",
            "confidence": 1.0,
            "uuid": "63665de5-6376-4918-8dbf-4c10c4d63837",
            "name": "burn",
            "url": "https://haz-map.com/Findings/204",
            "category": "findings"
          },
          {
            "type": "name_match",
            "text": "pyridoxine",
            "confidence": 1.0,
            "uuid": "d18fa8ac-e5f3-461f-af5f-8f90de5fe52d",
            "name": "Pyridoxine",
            "url": "https://haz-map.com/Agents/17041",
            "category": "agents"
          }
        ]
      },
      "restricted": {
        "original_name": "Restricted",
        "value": "Not registered with the EPA for use as pesticide in the US; [CAMEO] Banned in the EU for use as pesticide; [eChemPortal: ESIS]",
        "links": [],
        "cross_references": []
      },
      "biomedical_references": {
        "original_name": "Biomedical References",
        "value": "Search PubMed",
        "links": [
          {
            "text": "Search PubMed",
            "url": "https://www.ncbi.nlm.nih.gov/pubmed?term=Crimidine%20AND%20human%5Bmh%5D%20AND%20%28Occupational%20Diseases%20%5Bmh%5D%20OR%20Occupational%20Exposure%20%5Bmh%5D%29%20%20AND%20%28tox%5Bsb%5D%29&cmd=search"
          }
        ],
        "cross_references": []
      }
    },
    "exposure_assessment": {
      "vapor_pressure": {
        "original_name": "Vapor Pressure",
        "value": "0.023 mm Hg",
        "links": [],
        "cross_references": []
      },
      "explanatory_notes": {
        "original_name": "Explanatory Notes",
        "value": "VP from ChemIDplus;",
        "links": [],
        "cross_references": []
      }
    },
    "adverse_effects": {
      "neurotoxin": {
        "original_name": "Neurotoxin",
        "value": "Other CNS neurotoxin",
        "links": [],
        "cross_references": []
      }
    },
    "diseases_processes_and_activities_linked_to_this_agent": {
      "processes": {
        "original_name": "Processes",
        "value": "Industrial Processes with risk of exposure: Farming (Pesticides)",
        "links": [
          {
            "text": "Farming (Pesticides)",
            "url": "https://haz-map.com/Processes/218"
          }
        ],
        "cross_references": [
          {
            "type": "url_match",
            "text": "Farming (Pesticides)",
            "url": "https://haz-map.com/Processes/218",
            "confidence": 1.0,
            "uuid": "cf1e5815-c9bb-4917-82a5-391848170b7e",
            "name": "Farming (Pesticides)",
            "category": "processes"
          }
        ]
      }
    }
  },
  "cross_references": [
    {
      "type": "url_match",
      "text": "Farming (Pesticides)",
      "url": "https://haz-map.com/Processes/218",
      "confidence": 1.0,
      "uuid": "cf1e5815-c9bb-4917-82a5-391848170b7e",
      "name": "Farming (Pesticides)",
      "category": "processes"
    },
    {
      "type": "name_match",
      "text": "convulsion",
      "confidence": 1.0,
      "uuid": "af2c36f8-707a-48e3-a62b-1aa07adc9b72",
      "name": "convulsion",
      "url": "https://haz-map.com/Findings/14",
      "category": "findings"
    },
    {
      "type": "name_match",
      "text": "burn",
      "confidence": 1.0,
      "uuid": "63665de5-6376-4918-8dbf-4c10c4d63837",
      "name": "burn",
      "url": "https://haz-map.com/Findings/204",
      "category": "findings"
    },
    {
      "type": "name_match",
      "text": "tali",
      "confidence": 1.0,
      "uuid": "8c3a0f99-2143-4122-b539-ec5cc49596b0",
      "name": "Tali",
      "url": "https://haz-map.com/Agents/1128",
      "category": "agents"
    },
    {
      "type": "name_match",
      "text": "crimidine",
      "confidence": 1.0,
      "uuid": "41e955a4-da4a-45bd-bf90-673b09bf5ff3",
      "name": "Crimidine",
      "url": "https://haz-map.com/Agents/4533",
      "category": "agents"
    },
    {
      "type": "name_match",
      "text": "pyrimidine",
      "confidence": 1.0,
      "uuid": "8c810e75-fc30-4402-838c-43fcd0d46a84",
      "name": "Pyrimidine",
      "url": "https://haz-map.com/Agents/9521",
      "category": "agents"
    },
    {
      "type": "name_match",
      "text": "pyridoxine",
      "confidence": 1.0,
      "uuid": "d18fa8ac-e5f3-461f-af5f-8f90de5fe52d",
      "name": "Pyridoxine",
      "url": "https://haz-map.com/Agents/17041",
      "category": "agents"
    },
    {
      "type": "fuzzy_match",
      "text": "crystalline",
      "matched_name": "Silica, crystalline",
      "confidence": 0.7061403508771931,
      "uuid": "f920e8a2-46df-41b7-af8d-0368a777251e",
      "category": "agents",
      "url": "https://haz-map.com/Agents/427"
    }
  ],
  "all_links": [
    {
      "text": "Search PubMed",
      "url": "https://www.ncbi.nlm.nih.gov/pubmed?term=Crimidine%20AND%20human%5Bmh%5D%20AND%20%28Occupational%20Diseases%20%5Bmh%5D%20OR%20Occupational%20Exposure%20%5Bmh%5D%29%20%20AND%20%28tox%5Bsb%5D%29&cmd=search"
    },
    {
      "text": "Farming (Pesticides)",
      "url": "https://haz-map.com/Processes/218"
    }
  ]
}