{
  "metadata": {
    "scraped_from": "https://haz-map.com/Agents/20523",
    "entity_name": "d-Camphoric acid",
    "category": "agents",
    "uuid": "4213635c-f512-456e-9927-3797eedaa0c4",
    "scraped_at": "2025-07-23T22:26:45.687225"
  },
  "parsed_at": "2025-07-24T01:13:34.977840",
  "title": "d-Camphoric acid",
  "sections": {
    "general": {
      "agent_name": {
        "original_name": "Agent Name",
        "value": "d-Camphoric acid",
        "links": [],
        "cross_references": [
          {
            "type": "name_match",
            "text": "d-camphor",
            "confidence": 1.0,
            "uuid": "78afe51e-dee9-43cd-8f6f-c6030a83f95b",
            "name": "D-Camphor",
            "url": "https://haz-map.com/Agents/10984",
            "category": "agents"
          },
          {
            "type": "name_match",
            "text": "d-camphoric acid",
            "confidence": 1.0,
            "uuid": "4213635c-f512-456e-9927-3797eedaa0c4",
            "name": "d-Camphoric acid",
            "url": "https://haz-map.com/Agents/20523",
            "category": "agents"
          }
        ]
      },
      "cas_number": {
        "original_name": "CAS Number",
        "value": "124-83-4",
        "links": [],
        "cross_references": []
      },
      "formula": {
        "original_name": "Formula",
        "value": "C10-H16-O4",
        "links": [],
        "cross_references": []
      },
      "major_category": {
        "original_name": "Major Category",
        "value": "Other Classes",
        "links": [],
        "cross_references": []
      },
      "synonyms": {
        "original_name": "Synonyms",
        "value": "Camphoric acid, (+)-; 1,2,2-Trimethyl-1,3-cyclopentanedicarboxylic acid, (1R-cis)-; 1,3-Cyclopentanedicarboxylic acid, 1,2,2-trimethyl-, (1R,3S)-; 1,3-Cyclopentanedicarboxylic acid, 1,2,2-trimethyl-, (1R-cis)-; [ChemIDplus] (1R,3S)-Camphoric acid; Dextrocamphoric acid; [Merck Index] (1R,3S)-(+)-Camphoric acid; (+)-Camphoric acid; (1R,3S)-1,2,2-Trimethyl-1,3-cyclopentanedicarboxylic acid; [Sigma-Aldrich MSDS]",
        "links": [],
        "cross_references": [
          {
            "type": "name_match",
            "text": "cyclopentane",
            "confidence": 1.0,
            "uuid": "6480e7e3-674a-4296-afdc-a9ce8b2f2850",
            "name": "Cyclopentane",
            "url": "https://haz-map.com/Agents/387",
            "category": "agents"
          }
        ]
      },
      "category": {
        "original_name": "Category",
        "value": "Organic Acids",
        "links": [],
        "cross_references": []
      },
      "description": {
        "original_name": "Description",
        "value": "Solid; [Merck Index] Beige powder; [Sigma-Aldrich MSDS]",
        "links": [],
        "cross_references": []
      },
      "sourcesuses": {
        "original_name": "Sources/Uses",
        "value": "Used as a reagent in organic synthesis; [Merck Index]",
        "links": [],
        "cross_references": []
      },
      "comments": {
        "original_name": "Comments",
        "value": "May cause irritation; Harmful by ingestion; [Sigma-Aldrich MSDS]",
        "links": [],
        "cross_references": []
      },
      "biomedical_references": {
        "original_name": "Biomedical References",
        "value": "Search PubMed",
        "links": [
          {
            "text": "Search PubMed",
            "url": "https://www.ncbi.nlm.nih.gov/pubmed?term=d-Camphoric+acid%20AND%20human%5Bmh%5D%20AND%20%28Occupational%20Diseases%20%5Bmh%5D%20OR%20Occupational%20Exposure%20%5Bmh%5D%29%20%20AND%20%28tox%5Bsb%5D%29&cmd=search"
          }
        ],
        "cross_references": []
      }
    },
    "exposure_assessment": {
      "vapor_pressure": {
        "original_name": "Vapor Pressure",
        "value": "1.51E-05 mm Hg",
        "links": [],
        "cross_references": []
      }
    },
    "diseases_processes_and_activities_linked_to_this_agent": {
      "other_information": {
        "original_name": "Other Information",
        "value": "No other related information on this agent was found.",
        "links": [],
        "cross_references": []
      }
    }
  },
  "cross_references": [
    {
      "type": "name_match",
      "text": "cyclopentane",
      "confidence": 1.0,
      "uuid": "6480e7e3-674a-4296-afdc-a9ce8b2f2850",
      "name": "Cyclopentane",
      "url": "https://haz-map.com/Agents/387",
      "category": "agents"
    },
    {
      "type": "name_match",
      "text": "d-camphor",
      "confidence": 1.0,
      "uuid": "78afe51e-dee9-43cd-8f6f-c6030a83f95b",
      "name": "D-Camphor",
      "url": "https://haz-map.com/Agents/10984",
      "category": "agents"
    },
    {
      "type": "name_match",
      "text": "d-camphoric acid",
      "confidence": 1.0,
      "uuid": "4213635c-f512-456e-9927-3797eedaa0c4",
      "name": "d-Camphoric acid",
      "url": "https://haz-map.com/Agents/20523",
      "category": "agents"
    }
  ],
  "all_links": [
    {
      "text": "Search PubMed",
      "url": "https://www.ncbi.nlm.nih.gov/pubmed?term=d-Camphoric+acid%20AND%20human%5Bmh%5D%20AND%20%28Occupational%20Diseases%20%5Bmh%5D%20OR%20Occupational%20Exposure%20%5Bmh%5D%29%20%20AND%20%28tox%5Bsb%5D%29&cmd=search"
    }
  ]
}