{
  "metadata": {
    "scraped_from": "https://haz-map.com/Agents/1164",
    "entity_name": "Bromochlorosalicylanilide",
    "category": "agents",
    "uuid": "421e0e0b-1c35-42a4-9380-2424d98bf655",
    "scraped_at": "2025-07-23T18:53:39.149250"
  },
  "parsed_at": "2025-07-24T00:59:07.809429",
  "title": "Bromochlorosalicylanilide",
  "sections": {
    "general": {
      "agent_name": {
        "original_name": "Agent Name",
        "value": "Bromochlorosalicylanilide",
        "links": [],
        "cross_references": [
          {
            "type": "name_match",
            "text": "bromochlorosalicylanilide",
            "confidence": 1.0,
            "uuid": "421e0e0b-1c35-42a4-9380-2424d98bf655",
            "name": "Bromochlorosalicylanilide",
            "url": "https://haz-map.com/Agents/1164",
            "category": "agents"
          },
          {
            "type": "name_match",
            "text": "salicylanilide",
            "confidence": 1.0,
            "uuid": "2a453a82-716c-452e-83fb-dfd662b6980b",
            "name": "Salicylanilide",
            "url": "https://haz-map.com/Agents/17177",
            "category": "agents"
          }
        ]
      },
      "alternative_name": {
        "original_name": "Alternative Name",
        "value": "Salifungin",
        "links": [],
        "cross_references": [
          {
            "type": "name_match",
            "text": "fungi",
            "confidence": 1.0,
            "uuid": "e0d489cb-bfee-4aee-b665-999c017268a2",
            "name": "Fungi",
            "url": "https://haz-map.com/Agents/1988",
            "category": "agents"
          }
        ]
      },
      "cas_number": {
        "original_name": "CAS Number",
        "value": "3679-64-9",
        "links": [],
        "cross_references": []
      },
      "formula": {
        "original_name": "Formula",
        "value": "C13-H9-Br-Cl-N-O2",
        "links": [],
        "cross_references": []
      },
      "major_category": {
        "original_name": "Major Category",
        "value": "Other Classes",
        "links": [],
        "cross_references": []
      },
      "synonyms": {
        "original_name": "Synonyms",
        "value": "5-Bromosalicyl-4-chloroanilide; Multifungin (VAN); Salifungen; Salifungin; 5-Bromo-4'-chlorosalicylanilide; Benzamide, 5-bromo-N-(4-chlorophenyl)-2-hydroxy- (9CI); Salicylanilide, 5-bromo-4'-chloro- (8CI); [ChemIDplus]",
        "links": [],
        "cross_references": [
          {
            "type": "name_match",
            "text": "fungi",
            "confidence": 1.0,
            "uuid": "e0d489cb-bfee-4aee-b665-999c017268a2",
            "name": "Fungi",
            "url": "https://haz-map.com/Agents/1988",
            "category": "agents"
          },
          {
            "type": "name_match",
            "text": "benzamide",
            "confidence": 1.0,
            "uuid": "8900c544-7f26-477e-a4c1-ff24fcc01b2c",
            "name": "Benzamide",
            "url": "https://haz-map.com/Agents/3828",
            "category": "agents"
          },
          {
            "type": "name_match",
            "text": "salicylanilide",
            "confidence": 1.0,
            "uuid": "2a453a82-716c-452e-83fb-dfd662b6980b",
            "name": "Salicylanilide",
            "url": "https://haz-map.com/Agents/17177",
            "category": "agents"
          }
        ]
      },
      "category": {
        "original_name": "Category",
        "value": "Halogenated Salicylanilides",
        "links": [],
        "cross_references": [
          {
            "type": "name_match",
            "text": "salicylanilide",
            "confidence": 1.0,
            "uuid": "2a453a82-716c-452e-83fb-dfd662b6980b",
            "name": "Salicylanilide",
            "url": "https://haz-map.com/Agents/17177",
            "category": "agents"
          }
        ]
      },
      "sourcesuses": {
        "original_name": "Sources/Uses",
        "value": "Used as an antifungal agent; [ChemIDplus]",
        "links": [],
        "cross_references": []
      },
      "comments": {
        "original_name": "Comments",
        "value": "The halogenated salicylanilides may cause photoallergic contact dermatitis (PACD). Patients with PACD note the appearance of a eczematous rash, usually on the face, neck, dorsum of the hands, and sun-exposed areas on the arms with sparing of areas under the chin and upper eyelids. [LaDou, p. 334]",
        "links": [],
        "cross_references": [
          {
            "type": "name_match",
            "text": "dermatitis",
            "confidence": 1.0,
            "uuid": "fe9c05f2-b19f-4ceb-ac7a-ffb7d7a0cae0",
            "name": "dermatitis",
            "url": "https://haz-map.com/Findings/59",
            "category": "findings"
          },
          {
            "type": "name_match",
            "text": "ash",
            "confidence": 1.0,
            "uuid": "68b360f1-5ad0-4337-bea0-d7adca2961b5",
            "name": "Ash",
            "url": "https://haz-map.com/Agents/965",
            "category": "agents"
          },
          {
            "type": "name_match",
            "text": "salicylanilide",
            "confidence": 1.0,
            "uuid": "2a453a82-716c-452e-83fb-dfd662b6980b",
            "name": "Salicylanilide",
            "url": "https://haz-map.com/Agents/17177",
            "category": "agents"
          },
          {
            "type": "fuzzy_match",
            "text": "contact dermatitis",
            "matched_name": "Contact dermatitis, allergic",
            "confidence": 0.7214285714285715,
            "uuid": "c9499de0-9aa1-41bf-8753-cd5b28a63e29",
            "category": "diseases",
            "url": "https://haz-map.com/Diseases/18"
          }
        ]
      },
      "biomedical_references": {
        "original_name": "Biomedical References",
        "value": "Search PubMed",
        "links": [
          {
            "text": "Search PubMed",
            "url": "https://www.ncbi.nlm.nih.gov/pubmed?term=Bromochlorosalicylanilide%20AND%20human%5Bmh%5D%20AND%20%28Occupational%20Diseases%20%5Bmh%5D%20OR%20Occupational%20Exposure%20%5Bmh%5D%29%20%20AND%20%28tox%5Bsb%5D%29&cmd=search"
          }
        ],
        "cross_references": []
      }
    },
    "exposure_assessment": {
      "vapor_pressure": {
        "original_name": "Vapor Pressure",
        "value": "6E-10 mm Hg",
        "links": [],
        "cross_references": []
      }
    },
    "adverse_effects": {
      "dermatotoxin": {
        "original_name": "Dermatotoxin",
        "value": "PACD (photoallergic contact dermatitis)",
        "links": [],
        "cross_references": [
          {
            "type": "name_match",
            "text": "dermatitis",
            "confidence": 1.0,
            "uuid": "fe9c05f2-b19f-4ceb-ac7a-ffb7d7a0cae0",
            "name": "dermatitis",
            "url": "https://haz-map.com/Findings/59",
            "category": "findings"
          },
          {
            "type": "fuzzy_match",
            "text": "contact dermatitis",
            "matched_name": "Contact dermatitis, allergic",
            "confidence": 0.7214285714285715,
            "uuid": "c9499de0-9aa1-41bf-8753-cd5b28a63e29",
            "category": "diseases",
            "url": "https://haz-map.com/Diseases/18"
          }
        ]
      }
    },
    "diseases_processes_and_activities_linked_to_this_agent": {
      "diseases": {
        "original_name": "Diseases",
        "value": "Occupational diseases associated with exposure to this agent: Contact dermatitis, photoallergic",
        "links": [
          {
            "text": "Contact dermatitis, photoallergic",
            "url": "https://haz-map.com/Diseases/267"
          }
        ],
        "cross_references": [
          {
            "type": "url_match",
            "text": "Contact dermatitis, photoallergic",
            "url": "https://haz-map.com/Diseases/267",
            "confidence": 1.0,
            "uuid": "fdc85231-99c5-48ea-8f71-fbd9ad09e496",
            "name": "Contact dermatitis, photoallergic",
            "category": "diseases"
          },
          {
            "type": "name_match",
            "text": "dermatitis",
            "confidence": 1.0,
            "uuid": "fe9c05f2-b19f-4ceb-ac7a-ffb7d7a0cae0",
            "name": "dermatitis",
            "url": "https://haz-map.com/Findings/59",
            "category": "findings"
          },
          {
            "type": "fuzzy_match",
            "text": "contact dermatitis",
            "matched_name": "Contact dermatitis, allergic",
            "confidence": 0.7214285714285715,
            "uuid": "c9499de0-9aa1-41bf-8753-cd5b28a63e29",
            "category": "diseases",
            "url": "https://haz-map.com/Diseases/18"
          }
        ]
      }
    }
  },
  "cross_references": [
    {
      "type": "url_match",
      "text": "Contact dermatitis, photoallergic",
      "url": "https://haz-map.com/Diseases/267",
      "confidence": 1.0,
      "uuid": "fdc85231-99c5-48ea-8f71-fbd9ad09e496",
      "name": "Contact dermatitis, photoallergic",
      "category": "diseases"
    },
    {
      "type": "name_match",
      "text": "dermatitis",
      "confidence": 1.0,
      "uuid": "fe9c05f2-b19f-4ceb-ac7a-ffb7d7a0cae0",
      "name": "dermatitis",
      "url": "https://haz-map.com/Findings/59",
      "category": "findings"
    },
    {
      "type": "name_match",
      "text": "ash",
      "confidence": 1.0,
      "uuid": "68b360f1-5ad0-4337-bea0-d7adca2961b5",
      "name": "Ash",
      "url": "https://haz-map.com/Agents/965",
      "category": "agents"
    },
    {
      "type": "name_match",
      "text": "bromochlorosalicylanilide",
      "confidence": 1.0,
      "uuid": "421e0e0b-1c35-42a4-9380-2424d98bf655",
      "name": "Bromochlorosalicylanilide",
      "url": "https://haz-map.com/Agents/1164",
      "category": "agents"
    },
    {
      "type": "name_match",
      "text": "fungi",
      "confidence": 1.0,
      "uuid": "e0d489cb-bfee-4aee-b665-999c017268a2",
      "name": "Fungi",
      "url": "https://haz-map.com/Agents/1988",
      "category": "agents"
    },
    {
      "type": "name_match",
      "text": "benzamide",
      "confidence": 1.0,
      "uuid": "8900c544-7f26-477e-a4c1-ff24fcc01b2c",
      "name": "Benzamide",
      "url": "https://haz-map.com/Agents/3828",
      "category": "agents"
    },
    {
      "type": "name_match",
      "text": "salicylanilide",
      "confidence": 1.0,
      "uuid": "2a453a82-716c-452e-83fb-dfd662b6980b",
      "name": "Salicylanilide",
      "url": "https://haz-map.com/Agents/17177",
      "category": "agents"
    },
    {
      "type": "fuzzy_match",
      "text": "contact dermatitis",
      "matched_name": "Contact dermatitis, allergic",
      "confidence": 0.7214285714285715,
      "uuid": "c9499de0-9aa1-41bf-8753-cd5b28a63e29",
      "category": "diseases",
      "url": "https://haz-map.com/Diseases/18"
    }
  ],
  "all_links": [
    {
      "text": "Search PubMed",
      "url": "https://www.ncbi.nlm.nih.gov/pubmed?term=Bromochlorosalicylanilide%20AND%20human%5Bmh%5D%20AND%20%28Occupational%20Diseases%20%5Bmh%5D%20OR%20Occupational%20Exposure%20%5Bmh%5D%29%20%20AND%20%28tox%5Bsb%5D%29&cmd=search"
    },
    {
      "text": "Contact dermatitis, photoallergic",
      "url": "https://haz-map.com/Diseases/267"
    }
  ]
}