{
  "metadata": {
    "scraped_from": "https://haz-map.com/Agents/15819",
    "entity_name": "N-Aminopiperidine",
    "category": "agents",
    "uuid": "425b888b-5247-449b-ae4f-1a3c0ba341cf",
    "scraped_at": "2025-07-23T21:32:48.478886"
  },
  "parsed_at": "2025-07-24T01:18:35.578635",
  "title": "N-Aminopiperidine",
  "sections": {
    "general": {
      "agent_name": {
        "original_name": "Agent Name",
        "value": "N-Aminopiperidine",
        "links": [],
        "cross_references": [
          {
            "type": "name_match",
            "text": "piperidine",
            "confidence": 1.0,
            "uuid": "622e458e-e32f-4d3a-80d2-7455291a8a04",
            "name": "Piperidine",
            "url": "https://haz-map.com/Agents/1427",
            "category": "agents"
          },
          {
            "type": "name_match",
            "text": "n-aminopiperidine",
            "confidence": 1.0,
            "uuid": "425b888b-5247-449b-ae4f-1a3c0ba341cf",
            "name": "N-Aminopiperidine",
            "url": "https://haz-map.com/Agents/15819",
            "category": "agents"
          }
        ]
      },
      "cas_number": {
        "original_name": "CAS Number",
        "value": "2213-43-6",
        "links": [],
        "cross_references": []
      },
      "formula": {
        "original_name": "Formula",
        "value": "C5-H12-N2",
        "links": [],
        "cross_references": []
      },
      "major_category": {
        "original_name": "Major Category",
        "value": "Nitrogen Compounds",
        "links": [],
        "cross_references": [
          {
            "type": "name_match",
            "text": "nitrogen",
            "confidence": 1.0,
            "uuid": "db5e90a9-06d2-45b9-8b81-f345a89b0bc0",
            "name": "Nitrogen",
            "url": "https://haz-map.com/Agents/1072",
            "category": "agents"
          }
        ]
      },
      "synonyms": {
        "original_name": "Synonyms",
        "value": "1-Aminopiperidine; 1-Piperidinamine (9CI); N-Piperidylamine; Piperidine, 1-amino-; [ChemIDplus]",
        "links": [],
        "cross_references": [
          {
            "type": "name_match",
            "text": "piperidine",
            "confidence": 1.0,
            "uuid": "622e458e-e32f-4d3a-80d2-7455291a8a04",
            "name": "Piperidine",
            "url": "https://haz-map.com/Agents/1427",
            "category": "agents"
          }
        ]
      },
      "category": {
        "original_name": "Category",
        "value": "Amines, Cyclic",
        "links": [],
        "cross_references": []
      },
      "description": {
        "original_name": "Description",
        "value": "Colorless liquid; [Alfa Aesar MSDS]",
        "links": [],
        "cross_references": []
      },
      "comments": {
        "original_name": "Comments",
        "value": "Causes burns; Inhalation may cause corrosive injuries to upper respiratory tract and lungs; [Alfa Aesar MSDS] See \"Piperidine.\"",
        "links": [],
        "cross_references": [
          {
            "type": "name_match",
            "text": "burn",
            "confidence": 1.0,
            "uuid": "63665de5-6376-4918-8dbf-4c10c4d63837",
            "name": "burn",
            "url": "https://haz-map.com/Findings/204",
            "category": "findings"
          },
          {
            "type": "name_match",
            "text": "piperidine",
            "confidence": 1.0,
            "uuid": "622e458e-e32f-4d3a-80d2-7455291a8a04",
            "name": "Piperidine",
            "url": "https://haz-map.com/Agents/1427",
            "category": "agents"
          }
        ]
      },
      "biomedical_references": {
        "original_name": "Biomedical References",
        "value": "Search PubMed",
        "links": [
          {
            "text": "Search PubMed",
            "url": "https://www.ncbi.nlm.nih.gov/pubmed?term=N-Aminopiperidine%20AND%20human%5Bmh%5D%20AND%20%28Occupational%20Diseases%20%5Bmh%5D%20OR%20Occupational%20Exposure%20%5Bmh%5D%29%20%20AND%20%28tox%5Bsb%5D%29&cmd=search"
          }
        ],
        "cross_references": []
      }
    },
    "exposure_assessment": {
      "vapor_pressure": {
        "original_name": "Vapor Pressure",
        "value": "3.18 mm Hg",
        "links": [],
        "cross_references": []
      },
      "explanatory_notes": {
        "original_name": "Explanatory Notes",
        "value": "VP from ChemIDplus;",
        "links": [],
        "cross_references": []
      }
    },
    "adverse_effects": {
      "toxic_pneumonitis": {
        "original_name": "Toxic Pneumonitis",
        "value": "Yes",
        "links": [],
        "cross_references": []
      },
      "dermatotoxin": {
        "original_name": "Dermatotoxin",
        "value": "Skin burns",
        "links": [],
        "cross_references": [
          {
            "type": "name_match",
            "text": "burn",
            "confidence": 1.0,
            "uuid": "63665de5-6376-4918-8dbf-4c10c4d63837",
            "name": "burn",
            "url": "https://haz-map.com/Findings/204",
            "category": "findings"
          }
        ]
      }
    },
    "diseases_processes_and_activities_linked_to_this_agent": {
      "other_information": {
        "original_name": "Other Information",
        "value": "No other related information on this agent was found.",
        "links": [],
        "cross_references": []
      }
    }
  },
  "cross_references": [
    {
      "type": "name_match",
      "text": "burn",
      "confidence": 1.0,
      "uuid": "63665de5-6376-4918-8dbf-4c10c4d63837",
      "name": "burn",
      "url": "https://haz-map.com/Findings/204",
      "category": "findings"
    },
    {
      "type": "name_match",
      "text": "nitrogen",
      "confidence": 1.0,
      "uuid": "db5e90a9-06d2-45b9-8b81-f345a89b0bc0",
      "name": "Nitrogen",
      "url": "https://haz-map.com/Agents/1072",
      "category": "agents"
    },
    {
      "type": "name_match",
      "text": "piperidine",
      "confidence": 1.0,
      "uuid": "622e458e-e32f-4d3a-80d2-7455291a8a04",
      "name": "Piperidine",
      "url": "https://haz-map.com/Agents/1427",
      "category": "agents"
    },
    {
      "type": "name_match",
      "text": "n-aminopiperidine",
      "confidence": 1.0,
      "uuid": "425b888b-5247-449b-ae4f-1a3c0ba341cf",
      "name": "N-Aminopiperidine",
      "url": "https://haz-map.com/Agents/15819",
      "category": "agents"
    }
  ],
  "all_links": [
    {
      "text": "Search PubMed",
      "url": "https://www.ncbi.nlm.nih.gov/pubmed?term=N-Aminopiperidine%20AND%20human%5Bmh%5D%20AND%20%28Occupational%20Diseases%20%5Bmh%5D%20OR%20Occupational%20Exposure%20%5Bmh%5D%29%20%20AND%20%28tox%5Bsb%5D%29&cmd=search"
    }
  ]
}