{
  "metadata": {
    "scraped_from": "https://haz-map.com/Agents/2658",
    "entity_name": "Isobutyraldehyde",
    "category": "agents",
    "uuid": "42a46bc4-2080-4dda-9800-9d563359a27f",
    "scraped_at": "2025-07-23T19:17:10.062812"
  },
  "parsed_at": "2025-07-24T01:08:01.597140",
  "title": "Isobutyraldehyde",
  "sections": {
    "general": {
      "agent_name": {
        "original_name": "Agent Name",
        "value": "Isobutyraldehyde",
        "links": [],
        "cross_references": [
          {
            "type": "name_match",
            "text": "butyraldehyde",
            "confidence": 1.0,
            "uuid": "5cb82d44-2f0e-4e91-bea2-82e946b8ff2e",
            "name": "Butyraldehyde",
            "url": "https://haz-map.com/Agents/96",
            "category": "agents"
          },
          {
            "type": "name_match",
            "text": "isobutyraldehyde",
            "confidence": 1.0,
            "uuid": "42a46bc4-2080-4dda-9800-9d563359a27f",
            "name": "Isobutyraldehyde",
            "url": "https://haz-map.com/Agents/2658",
            "category": "agents"
          }
        ]
      },
      "cas_number": {
        "original_name": "CAS Number",
        "value": "78-84-2",
        "links": [],
        "cross_references": []
      },
      "formula": {
        "original_name": "Formula",
        "value": "C4-H8-O",
        "links": [],
        "cross_references": []
      },
      "major_category": {
        "original_name": "Major Category",
        "value": "Other Classes",
        "links": [],
        "cross_references": []
      },
      "synonyms": {
        "original_name": "Synonyms",
        "value": "2-Methyl-1-propanal; 2-Methylpropanal; 2-Methylpropionaldehyde; Isobutaldehyde; Isobutanal; Isobutylaldehyde; Isobutyral; Isobutyraldehyd [Czech]; Isobutyraldehyde (natural); Isobutyric aldehyde; Isobutyryl aldehyde; Isopropyl aldehyde; Isopropyl formaldehyde; Isopropylaldehyde; Isopropylformaldehyde; Methyl propanal; Methylpropanal; Propanal, 2-methyl-; Propionaldehyde, 2-methyl-; Valine aldehyde; alpha-Methylpropionaldehyde; [ChemIDplus] UN2045",
        "links": [],
        "cross_references": [
          {
            "type": "name_match",
            "text": "butyraldehyde",
            "confidence": 1.0,
            "uuid": "5cb82d44-2f0e-4e91-bea2-82e946b8ff2e",
            "name": "Butyraldehyde",
            "url": "https://haz-map.com/Agents/96",
            "category": "agents"
          },
          {
            "type": "name_match",
            "text": "propionaldehyde",
            "confidence": 1.0,
            "uuid": "bd19a1f0-19d2-4374-a727-484287733d4e",
            "name": "Propionaldehyde",
            "url": "https://haz-map.com/Agents/102",
            "category": "agents"
          },
          {
            "type": "name_match",
            "text": "formaldehyde",
            "confidence": 1.0,
            "uuid": "272252b9-c18e-43df-b652-787210f00a3e",
            "name": "Formaldehyde",
            "url": "https://haz-map.com/Agents/271",
            "category": "agents"
          },
          {
            "type": "name_match",
            "text": "isobutyraldehyde",
            "confidence": 1.0,
            "uuid": "42a46bc4-2080-4dda-9800-9d563359a27f",
            "name": "Isobutyraldehyde",
            "url": "https://haz-map.com/Agents/2658",
            "category": "agents"
          },
          {
            "type": "name_match",
            "text": "valine",
            "confidence": 1.0,
            "uuid": "2284e5a1-ea67-4774-8b4e-3eaa65e20c4f",
            "name": "Valine",
            "url": "https://haz-map.com/Agents/18597",
            "category": "agents"
          }
        ]
      },
      "category": {
        "original_name": "Category",
        "value": "Aldehydes",
        "links": [],
        "cross_references": [
          {
            "type": "name_match",
            "text": "aldehydes",
            "confidence": 1.0,
            "uuid": "60ff52e0-7c53-4dd0-99cf-f775cfcfed59",
            "name": "ALDEHYDES",
            "url": "https://haz-map.com/Agents/719",
            "category": "agents"
          }
        ]
      },
      "description": {
        "original_name": "Description",
        "value": "Clear liquid with pungent odor; [Hawley] Colorless liquid; [MSDSonline]",
        "links": [],
        "cross_references": []
      },
      "sourcesuses": {
        "original_name": "Sources/Uses",
        "value": "Used in organic synthesis (pantothenic acid, valine, leucine, cellulose esters, perfumes, flavors, plasticizers, resins, and gasoline additives); [Merck Index] Used as a chemical intermediate; [Hawley] An FDA-approved flavoring agent and it occurs naturally in foods; [AIHA]",
        "links": [],
        "cross_references": [
          {
            "type": "name_match",
            "text": "cellulose",
            "confidence": 1.0,
            "uuid": "b9b1b190-806c-4622-8201-8f09b0a87eca",
            "name": "Cellulose",
            "url": "https://haz-map.com/Agents/347",
            "category": "agents"
          },
          {
            "type": "name_match",
            "text": "gasoline",
            "confidence": 1.0,
            "uuid": "af15c833-3eae-46c5-9af4-2214858d7282",
            "name": "Gasoline",
            "url": "https://haz-map.com/Agents/410",
            "category": "agents"
          },
          {
            "type": "name_match",
            "text": "mica",
            "confidence": 1.0,
            "uuid": "433f26f1-c399-4596-b179-ce3843cfd465",
            "name": "Mica",
            "url": "https://haz-map.com/Agents/621",
            "category": "agents"
          },
          {
            "type": "name_match",
            "text": "leucine",
            "confidence": 1.0,
            "uuid": "ba733437-a503-4dd6-9f58-9ce7cb505d48",
            "name": "Leucine",
            "url": "https://haz-map.com/Agents/15162",
            "category": "agents"
          },
          {
            "type": "name_match",
            "text": "valine",
            "confidence": 1.0,
            "uuid": "2284e5a1-ea67-4774-8b4e-3eaa65e20c4f",
            "name": "Valine",
            "url": "https://haz-map.com/Agents/18597",
            "category": "agents"
          },
          {
            "type": "name_match",
            "text": "pantothenic acid",
            "confidence": 1.0,
            "uuid": "0ca2da63-5360-4975-9f36-77d3b446b2ef",
            "name": "Pantothenic acid",
            "url": "https://haz-map.com/Agents/19045",
            "category": "agents"
          }
        ]
      },
      "comments": {
        "original_name": "Comments",
        "value": "A corrosive substance that can cause pulmonary edema; Can cause skin burns; Can cause severe burns to eyes; [ICSC] Inhalation of high concentrations can cause CNS depression; [HSDB] An irritant; [MSDSonline] No irritation in 15 volunteers exposed to 210 ppm, but two became nauseated; [AIHA]",
        "links": [],
        "cross_references": [
          {
            "type": "name_match",
            "text": "pulmonary edema",
            "confidence": 1.0,
            "uuid": "ee39114e-c922-40fd-9588-a532de404962",
            "name": "pulmonary edema",
            "url": "https://haz-map.com/Findings/186",
            "category": "findings"
          },
          {
            "type": "name_match",
            "text": "burn",
            "confidence": 1.0,
            "uuid": "63665de5-6376-4918-8dbf-4c10c4d63837",
            "name": "burn",
            "url": "https://haz-map.com/Findings/204",
            "category": "findings"
          }
        ]
      },
      "biomedical_references": {
        "original_name": "Biomedical References",
        "value": "Search PubMed",
        "links": [
          {
            "text": "Search PubMed",
            "url": "https://www.ncbi.nlm.nih.gov/pubmed?term=Isobutyraldehyde%20AND%20human%5Bmh%5D%20AND%20%28Occupational%20Diseases%20%5Bmh%5D%20OR%20Occupational%20Exposure%20%5Bmh%5D%29%20%20AND%20%28tox%5Bsb%5D%29&cmd=search"
          }
        ],
        "cross_references": []
      }
    },
    "exposure_assessment": {
      "vapor_pressure": {
        "original_name": "Vapor Pressure",
        "value": "173 mm Hg",
        "links": [],
        "cross_references": []
      },
      "odor_threshold_low": {
        "original_name": "Odor Threshold Low",
        "value": "0.14 ppm",
        "links": [],
        "cross_references": []
      },
      "odor_threshold_high": {
        "original_name": "Odor Threshold High",
        "value": "0.3 ppm",
        "links": [],
        "cross_references": []
      },
      "lethal_concentration": {
        "original_name": "Lethal Concentration",
        "value": "LCLo (rat) = 8,000 ppm/4h",
        "links": [],
        "cross_references": []
      },
      "explanatory_notes": {
        "original_name": "Explanatory Notes",
        "value": "Flash point = -25 deg C; [ICSC] Odor threshold (recognition) from CHEMINFO; VP from ChemIDplus;",
        "links": [],
        "cross_references": [
          {
            "type": "name_match",
            "text": "ash",
            "confidence": 1.0,
            "uuid": "68b360f1-5ad0-4337-bea0-d7adca2961b5",
            "name": "Ash",
            "url": "https://haz-map.com/Agents/965",
            "category": "agents"
          }
        ]
      },
      "nfpa": {
        "original_name": "NFPA",
        "value": "may ignite at ambient temp",
        "links": [],
        "cross_references": []
      },
      "weel": {
        "original_name": "WEEL",
        "value": "25 ppm",
        "links": [],
        "cross_references": []
      }
    },
    "adverse_effects": {
      "toxic_pneumonitis": {
        "original_name": "Toxic Pneumonitis",
        "value": "Yes",
        "links": [],
        "cross_references": []
      },
      "dermatotoxin": {
        "original_name": "Dermatotoxin",
        "value": "Skin burns",
        "links": [],
        "cross_references": [
          {
            "type": "name_match",
            "text": "burn",
            "confidence": 1.0,
            "uuid": "63665de5-6376-4918-8dbf-4c10c4d63837",
            "name": "burn",
            "url": "https://haz-map.com/Findings/204",
            "category": "findings"
          }
        ]
      }
    },
    "diseases_processes_and_activities_linked_to_this_agent": {
      "other_information": {
        "original_name": "Other Information",
        "value": "No other related information on this agent was found.",
        "links": [],
        "cross_references": []
      }
    }
  },
  "cross_references": [
    {
      "type": "name_match",
      "text": "pulmonary edema",
      "confidence": 1.0,
      "uuid": "ee39114e-c922-40fd-9588-a532de404962",
      "name": "pulmonary edema",
      "url": "https://haz-map.com/Findings/186",
      "category": "findings"
    },
    {
      "type": "name_match",
      "text": "burn",
      "confidence": 1.0,
      "uuid": "63665de5-6376-4918-8dbf-4c10c4d63837",
      "name": "burn",
      "url": "https://haz-map.com/Findings/204",
      "category": "findings"
    },
    {
      "type": "name_match",
      "text": "butyraldehyde",
      "confidence": 1.0,
      "uuid": "5cb82d44-2f0e-4e91-bea2-82e946b8ff2e",
      "name": "Butyraldehyde",
      "url": "https://haz-map.com/Agents/96",
      "category": "agents"
    },
    {
      "type": "name_match",
      "text": "propionaldehyde",
      "confidence": 1.0,
      "uuid": "bd19a1f0-19d2-4374-a727-484287733d4e",
      "name": "Propionaldehyde",
      "url": "https://haz-map.com/Agents/102",
      "category": "agents"
    },
    {
      "type": "name_match",
      "text": "formaldehyde",
      "confidence": 1.0,
      "uuid": "272252b9-c18e-43df-b652-787210f00a3e",
      "name": "Formaldehyde",
      "url": "https://haz-map.com/Agents/271",
      "category": "agents"
    },
    {
      "type": "name_match",
      "text": "cellulose",
      "confidence": 1.0,
      "uuid": "b9b1b190-806c-4622-8201-8f09b0a87eca",
      "name": "Cellulose",
      "url": "https://haz-map.com/Agents/347",
      "category": "agents"
    },
    {
      "type": "name_match",
      "text": "gasoline",
      "confidence": 1.0,
      "uuid": "af15c833-3eae-46c5-9af4-2214858d7282",
      "name": "Gasoline",
      "url": "https://haz-map.com/Agents/410",
      "category": "agents"
    },
    {
      "type": "name_match",
      "text": "mica",
      "confidence": 1.0,
      "uuid": "433f26f1-c399-4596-b179-ce3843cfd465",
      "name": "Mica",
      "url": "https://haz-map.com/Agents/621",
      "category": "agents"
    },
    {
      "type": "name_match",
      "text": "aldehydes",
      "confidence": 1.0,
      "uuid": "60ff52e0-7c53-4dd0-99cf-f775cfcfed59",
      "name": "ALDEHYDES",
      "url": "https://haz-map.com/Agents/719",
      "category": "agents"
    },
    {
      "type": "name_match",
      "text": "ash",
      "confidence": 1.0,
      "uuid": "68b360f1-5ad0-4337-bea0-d7adca2961b5",
      "name": "Ash",
      "url": "https://haz-map.com/Agents/965",
      "category": "agents"
    },
    {
      "type": "name_match",
      "text": "isobutyraldehyde",
      "confidence": 1.0,
      "uuid": "42a46bc4-2080-4dda-9800-9d563359a27f",
      "name": "Isobutyraldehyde",
      "url": "https://haz-map.com/Agents/2658",
      "category": "agents"
    },
    {
      "type": "name_match",
      "text": "leucine",
      "confidence": 1.0,
      "uuid": "ba733437-a503-4dd6-9f58-9ce7cb505d48",
      "name": "Leucine",
      "url": "https://haz-map.com/Agents/15162",
      "category": "agents"
    },
    {
      "type": "name_match",
      "text": "valine",
      "confidence": 1.0,
      "uuid": "2284e5a1-ea67-4774-8b4e-3eaa65e20c4f",
      "name": "Valine",
      "url": "https://haz-map.com/Agents/18597",
      "category": "agents"
    },
    {
      "type": "name_match",
      "text": "pantothenic acid",
      "confidence": 1.0,
      "uuid": "0ca2da63-5360-4975-9f36-77d3b446b2ef",
      "name": "Pantothenic acid",
      "url": "https://haz-map.com/Agents/19045",
      "category": "agents"
    }
  ],
  "all_links": [
    {
      "text": "Search PubMed",
      "url": "https://www.ncbi.nlm.nih.gov/pubmed?term=Isobutyraldehyde%20AND%20human%5Bmh%5D%20AND%20%28Occupational%20Diseases%20%5Bmh%5D%20OR%20Occupational%20Exposure%20%5Bmh%5D%29%20%20AND%20%28tox%5Bsb%5D%29&cmd=search"
    }
  ]
}