{
  "metadata": {
    "scraped_from": "https://haz-map.com/Agents/1159",
    "entity_name": "Dichlorophen",
    "category": "agents",
    "uuid": "43441a9d-e8c4-49f1-8bbf-52d24da33df3",
    "scraped_at": "2025-07-23T18:53:32.618364"
  },
  "parsed_at": "2025-07-24T01:14:58.205953",
  "title": "Dichlorophen",
  "sections": {
    "general": {
      "agent_name": {
        "original_name": "Agent Name",
        "value": "Dichlorophen",
        "links": [],
        "cross_references": [
          {
            "type": "name_match",
            "text": "dichlorophen",
            "confidence": 1.0,
            "uuid": "43441a9d-e8c4-49f1-8bbf-52d24da33df3",
            "name": "Dichlorophen",
            "url": "https://haz-map.com/Agents/1159",
            "category": "agents"
          }
        ]
      },
      "cas_number": {
        "original_name": "CAS Number",
        "value": "97-23-4",
        "links": [],
        "cross_references": []
      },
      "formula": {
        "original_name": "Formula",
        "value": "C13-H10-Cl2-O2",
        "links": [],
        "cross_references": []
      },
      "major_category": {
        "original_name": "Major Category",
        "value": "Other Uses",
        "links": [],
        "cross_references": []
      },
      "synonyms": {
        "original_name": "Synonyms",
        "value": "((Dihydroxydichloro)diphenyl)methane; 2,2'-Dihydroxy-5,5'-dichlorodiphenylmethane; 2,2'-Methylenebis(4-chlorophenol); 4,4'-Dichloro-2,2'-methylenediphenol; 5,5'-Dichloro-2,2'-dihydroxydiphenylmethane; Anthiphen; Antifen; Antiphen; Bis(2-hydroxy-5-chlorophenyl)methane; Bis(5-chlor-2-hydroxyphenyl)-methan [German]; Bis(5-chloro-2-hydroxyphenyl)methane; Bis(chlorohydroxyphenyl)methane; Bis-2-hydroxy-5-chlorfenylmethan [Czech]; Cordocel; DDDM; DDM; DDM (VAN); Di-(5-chloro-2-hydroxyphenyl)methane; Di-phentane-70; Dicestal; Dichloorfeen [Dutch]; Dichlorofen; Dichlorofen [Czech]; Dichlorophen; Dichlorophen B; Dichlorophene; Dichlorophene 10; Dichlorophene [INN-French]; Dichlorophene [ISO-French]; Dichlorophenum [INN-Latin]; Dichlorphen; Diclorofeno [INN-Spanish]; Didroxan; Didroxane; Difentan; Diphenthane 70; Embephen; Fungicide GM; Fungicide M; G 4; G 4 (VAN); G-4; Gefir; Gingivit; Giv Gard G 4-40; Halenol; Hyosan; Korium; O,O-Methyleen-bis(4-chloorfenol) [Dutch]; O,O-Metilen-bis(4-cloro-fenolo) [Italian]; Palacel; Panacide; Parabis; Phenol, 2,2'-methylenebis(4-chloro-; Plath-lyse; Prevental; Preventol GD; Preventol GDC; Sandocide; Sindar G 4; Super mosstox; Taeniatol; Teniathane; Teniatol; Teniotol; Trivex; Vermithana; Wespuril; o,o-Methyleen-bis(4-chloorfenol) [Dutch]; o,o-Metilen-bis(4-cloro-fenolo) [Italian]; [ChemIDplus]",
        "links": [],
        "cross_references": [
          {
            "type": "name_match",
            "text": "phenol",
            "confidence": 1.0,
            "uuid": "03141a03-a7df-4f51-9a37-adde1a7c4b31",
            "name": "Phenol",
            "url": "https://haz-map.com/Agents/84",
            "category": "agents"
          },
          {
            "type": "name_match",
            "text": "methane",
            "confidence": 1.0,
            "uuid": "5018bf73-24be-4353-8643-c351d5f52186",
            "name": "Methane",
            "url": "https://haz-map.com/Agents/1074",
            "category": "agents"
          },
          {
            "type": "name_match",
            "text": "ethane",
            "confidence": 1.0,
            "uuid": "5162cc8c-dfb9-4060-81ac-38a8cec7f9dd",
            "name": "Ethane",
            "url": "https://haz-map.com/Agents/1075",
            "category": "agents"
          },
          {
            "type": "name_match",
            "text": "ethylene",
            "confidence": 1.0,
            "uuid": "958eacc0-5135-4b62-bb93-6df972bf552f",
            "name": "Ethylene",
            "url": "https://haz-map.com/Agents/1076",
            "category": "agents"
          },
          {
            "type": "name_match",
            "text": "tali",
            "confidence": 1.0,
            "uuid": "8c3a0f99-2143-4122-b539-ec5cc49596b0",
            "name": "Tali",
            "url": "https://haz-map.com/Agents/1128",
            "category": "agents"
          },
          {
            "type": "name_match",
            "text": "dichlorophen",
            "confidence": 1.0,
            "uuid": "43441a9d-e8c4-49f1-8bbf-52d24da33df3",
            "name": "Dichlorophen",
            "url": "https://haz-map.com/Agents/1159",
            "category": "agents"
          },
          {
            "type": "name_match",
            "text": "ddd",
            "confidence": 1.0,
            "uuid": "8a5ebfb0-ac26-44b5-a4f1-9952a03b4025",
            "name": "DDD",
            "url": "https://haz-map.com/Agents/1524",
            "category": "agents"
          },
          {
            "type": "name_match",
            "text": "fungi",
            "confidence": 1.0,
            "uuid": "e0d489cb-bfee-4aee-b665-999c017268a2",
            "name": "Fungi",
            "url": "https://haz-map.com/Agents/1988",
            "category": "agents"
          },
          {
            "type": "name_match",
            "text": "diphenylmethane",
            "confidence": 1.0,
            "uuid": "c9ade740-3515-4581-86c9-0a45936d5f72",
            "name": "Diphenylmethane",
            "url": "https://haz-map.com/Agents/2699",
            "category": "agents"
          },
          {
            "type": "name_match",
            "text": "4-chlorophenol",
            "confidence": 1.0,
            "uuid": "68860eb9-ad59-4031-9952-3aa0643ccf34",
            "name": "4-Chlorophenol",
            "url": "https://haz-map.com/Agents/3294",
            "category": "agents"
          },
          {
            "type": "name_match",
            "text": "chlorodiphenylmethane",
            "confidence": 1.0,
            "uuid": "d96b418e-422c-4791-93a4-122854feefe3",
            "name": "Chlorodiphenylmethane",
            "url": "https://haz-map.com/Agents/4336",
            "category": "agents"
          }
        ]
      },
      "category": {
        "original_name": "Category",
        "value": "Biocides/Disinfectants",
        "links": [],
        "cross_references": []
      },
      "description": {
        "original_name": "Description",
        "value": "White slightly cream or light pink-colored powder; [CAMEO]",
        "links": [],
        "cross_references": [
          {
            "type": "name_match",
            "text": "ht",
            "confidence": 1.0,
            "uuid": "764df367-8d53-4a11-81a2-31ccfe122a8d",
            "name": "HT",
            "url": "https://haz-map.com/Agents/2168",
            "category": "agents"
          }
        ]
      },
      "sourcesuses": {
        "original_name": "Sources/Uses",
        "value": "Used as a veterinary fungicide, anthelmintic, and antiprotozoan. [Merck Index # 3071] Used as a fungicide on negatives in photographic development; [Kanerva, p. 1637] Used as a biocide, algaecide, fungicide, and disinfectant (textiles, oilfield operations, cement additive, leather, paper, cutting oils, toothpaste, soaps, lawn furniture, dermatological products,",
        "links": [],
        "cross_references": [
          {
            "type": "name_match",
            "text": "fungi",
            "confidence": 1.0,
            "uuid": "e0d489cb-bfee-4aee-b665-999c017268a2",
            "name": "Fungi",
            "url": "https://haz-map.com/Agents/1988",
            "category": "agents"
          }
        ]
      },
      "comments": {
        "original_name": "Comments",
        "value": "One of the common contact allergens in antiseptics; [HSDB] One of the skin allergen of photographers and photo-lab workers; [Kanerva, p. 1637]",
        "links": [],
        "cross_references": [
          {
            "type": "name_match",
            "text": "photographers",
            "confidence": 1.0,
            "uuid": "321925e7-46a1-43b4-bbc0-794bf085f21d",
            "name": "Photographers",
            "url": "https://haz-map.com/Jobs/378",
            "category": "jobs"
          }
        ]
      },
      "restricted": {
        "original_name": "Restricted",
        "value": "As of 1998, no longer present in any registered pesticide products in the United States; [HSDB]",
        "links": [],
        "cross_references": []
      },
      "biomedical_references": {
        "original_name": "Biomedical References",
        "value": "Search PubMed",
        "links": [
          {
            "text": "Search PubMed",
            "url": "https://www.ncbi.nlm.nih.gov/pubmed?term=Dichlorophen%20AND%20human%5Bmh%5D%20AND%20%28Occupational%20Diseases%20%5Bmh%5D%20OR%20Occupational%20Exposure%20%5Bmh%5D%29%20%20AND%20%28tox%5Bsb%5D%29&cmd=search"
          }
        ],
        "cross_references": []
      }
    },
    "exposure_assessment": {
      "vapor_pressure": {
        "original_name": "Vapor Pressure",
        "value": "9.75E-11 mm Hg",
        "links": [],
        "cross_references": []
      },
      "explanatory_notes": {
        "original_name": "Explanatory Notes",
        "value": "VP from HSDB;",
        "links": [],
        "cross_references": []
      }
    },
    "adverse_effects": {
      "skin_sensitizer": {
        "original_name": "Skin Sensitizer",
        "value": "Yes",
        "links": [],
        "cross_references": []
      }
    },
    "diseases_processes_and_activities_linked_to_this_agent": {
      "diseases": {
        "original_name": "Diseases",
        "value": "Occupational diseases associated with exposure to this agent: Contact dermatitis, allergic",
        "links": [
          {
            "text": "Contact dermatitis, allergic",
            "url": "https://haz-map.com/Diseases/18"
          }
        ],
        "cross_references": [
          {
            "type": "url_match",
            "text": "Contact dermatitis, allergic",
            "url": "https://haz-map.com/Diseases/18",
            "confidence": 1.0,
            "uuid": "c9499de0-9aa1-41bf-8753-cd5b28a63e29",
            "name": "Contact dermatitis, allergic",
            "category": "diseases"
          },
          {
            "type": "name_match",
            "text": "dermatitis",
            "confidence": 1.0,
            "uuid": "fe9c05f2-b19f-4ceb-ac7a-ffb7d7a0cae0",
            "name": "dermatitis",
            "url": "https://haz-map.com/Findings/59",
            "category": "findings"
          }
        ]
      },
      "processes": {
        "original_name": "Processes",
        "value": "Industrial Processes with risk of exposure: Cement Producing Photographic Processing",
        "links": [
          {
            "text": "Cement Producing",
            "url": "https://haz-map.com/Processes/234"
          },
          {
            "text": "Photographic Processing",
            "url": "https://haz-map.com/Processes/231"
          }
        ],
        "cross_references": []
      }
    }
  },
  "cross_references": [
    {
      "type": "url_match",
      "text": "Contact dermatitis, allergic",
      "url": "https://haz-map.com/Diseases/18",
      "confidence": 1.0,
      "uuid": "c9499de0-9aa1-41bf-8753-cd5b28a63e29",
      "name": "Contact dermatitis, allergic",
      "category": "diseases"
    },
    {
      "type": "name_match",
      "text": "dermatitis",
      "confidence": 1.0,
      "uuid": "fe9c05f2-b19f-4ceb-ac7a-ffb7d7a0cae0",
      "name": "dermatitis",
      "url": "https://haz-map.com/Findings/59",
      "category": "findings"
    },
    {
      "type": "name_match",
      "text": "photographers",
      "confidence": 1.0,
      "uuid": "321925e7-46a1-43b4-bbc0-794bf085f21d",
      "name": "Photographers",
      "url": "https://haz-map.com/Jobs/378",
      "category": "jobs"
    },
    {
      "type": "name_match",
      "text": "phenol",
      "confidence": 1.0,
      "uuid": "03141a03-a7df-4f51-9a37-adde1a7c4b31",
      "name": "Phenol",
      "url": "https://haz-map.com/Agents/84",
      "category": "agents"
    },
    {
      "type": "name_match",
      "text": "methane",
      "confidence": 1.0,
      "uuid": "5018bf73-24be-4353-8643-c351d5f52186",
      "name": "Methane",
      "url": "https://haz-map.com/Agents/1074",
      "category": "agents"
    },
    {
      "type": "name_match",
      "text": "ethane",
      "confidence": 1.0,
      "uuid": "5162cc8c-dfb9-4060-81ac-38a8cec7f9dd",
      "name": "Ethane",
      "url": "https://haz-map.com/Agents/1075",
      "category": "agents"
    },
    {
      "type": "name_match",
      "text": "ethylene",
      "confidence": 1.0,
      "uuid": "958eacc0-5135-4b62-bb93-6df972bf552f",
      "name": "Ethylene",
      "url": "https://haz-map.com/Agents/1076",
      "category": "agents"
    },
    {
      "type": "name_match",
      "text": "tali",
      "confidence": 1.0,
      "uuid": "8c3a0f99-2143-4122-b539-ec5cc49596b0",
      "name": "Tali",
      "url": "https://haz-map.com/Agents/1128",
      "category": "agents"
    },
    {
      "type": "name_match",
      "text": "dichlorophen",
      "confidence": 1.0,
      "uuid": "43441a9d-e8c4-49f1-8bbf-52d24da33df3",
      "name": "Dichlorophen",
      "url": "https://haz-map.com/Agents/1159",
      "category": "agents"
    },
    {
      "type": "name_match",
      "text": "ddd",
      "confidence": 1.0,
      "uuid": "8a5ebfb0-ac26-44b5-a4f1-9952a03b4025",
      "name": "DDD",
      "url": "https://haz-map.com/Agents/1524",
      "category": "agents"
    },
    {
      "type": "name_match",
      "text": "fungi",
      "confidence": 1.0,
      "uuid": "e0d489cb-bfee-4aee-b665-999c017268a2",
      "name": "Fungi",
      "url": "https://haz-map.com/Agents/1988",
      "category": "agents"
    },
    {
      "type": "name_match",
      "text": "ht",
      "confidence": 1.0,
      "uuid": "764df367-8d53-4a11-81a2-31ccfe122a8d",
      "name": "HT",
      "url": "https://haz-map.com/Agents/2168",
      "category": "agents"
    },
    {
      "type": "name_match",
      "text": "diphenylmethane",
      "confidence": 1.0,
      "uuid": "c9ade740-3515-4581-86c9-0a45936d5f72",
      "name": "Diphenylmethane",
      "url": "https://haz-map.com/Agents/2699",
      "category": "agents"
    },
    {
      "type": "name_match",
      "text": "4-chlorophenol",
      "confidence": 1.0,
      "uuid": "68860eb9-ad59-4031-9952-3aa0643ccf34",
      "name": "4-Chlorophenol",
      "url": "https://haz-map.com/Agents/3294",
      "category": "agents"
    },
    {
      "type": "name_match",
      "text": "chlorodiphenylmethane",
      "confidence": 1.0,
      "uuid": "d96b418e-422c-4791-93a4-122854feefe3",
      "name": "Chlorodiphenylmethane",
      "url": "https://haz-map.com/Agents/4336",
      "category": "agents"
    }
  ],
  "all_links": [
    {
      "text": "Search PubMed",
      "url": "https://www.ncbi.nlm.nih.gov/pubmed?term=Dichlorophen%20AND%20human%5Bmh%5D%20AND%20%28Occupational%20Diseases%20%5Bmh%5D%20OR%20Occupational%20Exposure%20%5Bmh%5D%29%20%20AND%20%28tox%5Bsb%5D%29&cmd=search"
    },
    {
      "text": "Contact dermatitis, allergic",
      "url": "https://haz-map.com/Diseases/18"
    },
    {
      "text": "Cement Producing",
      "url": "https://haz-map.com/Processes/234"
    },
    {
      "text": "Photographic Processing",
      "url": "https://haz-map.com/Processes/231"
    }
  ]
}