{
  "metadata": {
    "scraped_from": "https://haz-map.com/Agents/9247",
    "entity_name": "Chlorotriethylsilane",
    "category": "agents",
    "uuid": "4372c2d9-ded1-4407-85a0-10e99f91eab7",
    "scraped_at": "2025-07-23T20:34:08.028284"
  },
  "parsed_at": "2025-07-24T00:53:08.681863",
  "title": "Chlorotriethylsilane",
  "sections": {
    "general": {
      "agent_name": {
        "original_name": "Agent Name",
        "value": "Chlorotriethylsilane",
        "links": [],
        "cross_references": [
          {
            "type": "name_match",
            "text": "chlorotriethylsilane",
            "confidence": 1.0,
            "uuid": "4372c2d9-ded1-4407-85a0-10e99f91eab7",
            "name": "Chlorotriethylsilane",
            "url": "https://haz-map.com/Agents/9247",
            "category": "agents"
          },
          {
            "type": "name_match",
            "text": "triethylsilane",
            "confidence": 1.0,
            "uuid": "0e46ab89-eeec-491f-a344-e728699321b3",
            "name": "Triethylsilane",
            "url": "https://haz-map.com/Agents/19905",
            "category": "agents"
          }
        ]
      },
      "cas_number": {
        "original_name": "CAS Number",
        "value": "994-30-9",
        "links": [],
        "cross_references": []
      },
      "formula": {
        "original_name": "Formula",
        "value": "C6-H15-Cl-Si",
        "links": [],
        "cross_references": []
      },
      "major_category": {
        "original_name": "Major Category",
        "value": "Toxic Gases & Vapors",
        "links": [],
        "cross_references": []
      },
      "synonyms": {
        "original_name": "Synonyms",
        "value": "Triethylchlorosilane; Silane, chlorotriethyl-; [ChemIDplus] UN2986",
        "links": [],
        "cross_references": []
      },
      "category": {
        "original_name": "Category",
        "value": "Chlorosilanes",
        "links": [],
        "cross_references": [
          {
            "type": "name_match",
            "text": "chlorosilanes",
            "confidence": 1.0,
            "uuid": "9067acc8-066c-4a06-8282-d403262ae462",
            "name": "CHLOROSILANES",
            "url": "https://haz-map.com/Agents/1584",
            "category": "agents"
          }
        ]
      },
      "description": {
        "original_name": "Description",
        "value": "Colorless liquid; [MSDSonline]",
        "links": [],
        "cross_references": []
      },
      "comments": {
        "original_name": "Comments",
        "value": "Corrosive to skin and eyes; [eChemPortal: ERMA] Reacts with water; A corrosive substance that can cause injury to the skin, eyes, and respiratory tract; Inhalation may cause chemical pneumonitis; [MSDSonline] See \"CHLOROSILANES.\"",
        "links": [],
        "cross_references": [
          {
            "type": "name_match",
            "text": "mica",
            "confidence": 1.0,
            "uuid": "433f26f1-c399-4596-b179-ce3843cfd465",
            "name": "Mica",
            "url": "https://haz-map.com/Agents/621",
            "category": "agents"
          },
          {
            "type": "name_match",
            "text": "chlorosilanes",
            "confidence": 1.0,
            "uuid": "9067acc8-066c-4a06-8282-d403262ae462",
            "name": "CHLOROSILANES",
            "url": "https://haz-map.com/Agents/1584",
            "category": "agents"
          },
          {
            "type": "name_match",
            "text": "water",
            "confidence": 1.0,
            "uuid": "6f2a7557-dfd2-49bc-9b4b-a93cd8e225d4",
            "name": "Water",
            "url": "https://haz-map.com/Agents/18668",
            "category": "agents"
          }
        ]
      },
      "biomedical_references": {
        "original_name": "Biomedical References",
        "value": "Search PubMed",
        "links": [
          {
            "text": "Search PubMed",
            "url": "https://www.ncbi.nlm.nih.gov/pubmed?term=Chlorotriethylsilane%20AND%20human%5Bmh%5D%20AND%20%28Occupational%20Diseases%20%5Bmh%5D%20OR%20Occupational%20Exposure%20%5Bmh%5D%29%20%20AND%20%28tox%5Bsb%5D%29&cmd=search"
          }
        ],
        "cross_references": []
      }
    },
    "exposure_assessment": {
      "tih": {
        "original_name": "TIH",
        "value": "Yes",
        "links": [],
        "cross_references": []
      },
      "dangerous_when_wet": {
        "original_name": "Dangerous When Wet",
        "value": "Yes",
        "links": [],
        "cross_references": []
      },
      "vapor_pressure": {
        "original_name": "Vapor Pressure",
        "value": "6.77 mm Hg",
        "links": [],
        "cross_references": []
      },
      "explanatory_notes": {
        "original_name": "Explanatory Notes",
        "value": "The Guide in the Emergency Response Guidebook is for \"Chlorosilanes, corrosive, flammable, n.o.s.\" Not TIH in land-based spills, but TiH substance released when spilled in water; [ERG 2016] VP from ChemIDplus;",
        "links": [],
        "cross_references": [
          {
            "type": "name_match",
            "text": "chlorosilanes",
            "confidence": 1.0,
            "uuid": "9067acc8-066c-4a06-8282-d403262ae462",
            "name": "CHLOROSILANES",
            "url": "https://haz-map.com/Agents/1584",
            "category": "agents"
          },
          {
            "type": "name_match",
            "text": "water",
            "confidence": 1.0,
            "uuid": "6f2a7557-dfd2-49bc-9b4b-a93cd8e225d4",
            "name": "Water",
            "url": "https://haz-map.com/Agents/18668",
            "category": "agents"
          }
        ]
      }
    },
    "adverse_effects": {
      "toxic_pneumonitis": {
        "original_name": "Toxic Pneumonitis",
        "value": "Yes",
        "links": [],
        "cross_references": []
      },
      "dermatotoxin": {
        "original_name": "Dermatotoxin",
        "value": "Skin burns",
        "links": [],
        "cross_references": [
          {
            "type": "name_match",
            "text": "burn",
            "confidence": 1.0,
            "uuid": "63665de5-6376-4918-8dbf-4c10c4d63837",
            "name": "burn",
            "url": "https://haz-map.com/Findings/204",
            "category": "findings"
          }
        ]
      }
    },
    "diseases_processes_and_activities_linked_to_this_agent": {
      "diseases": {
        "original_name": "Diseases",
        "value": "Occupational diseases associated with exposure to this agent: Pneumonitis, toxic",
        "links": [
          {
            "text": "Pneumonitis, toxic",
            "url": "https://haz-map.com/Diseases/306"
          }
        ],
        "cross_references": [
          {
            "type": "url_match",
            "text": "Pneumonitis, toxic",
            "url": "https://haz-map.com/Diseases/306",
            "confidence": 1.0,
            "uuid": "cd799281-0284-450d-bb82-ed6b675616ac",
            "name": "Pneumonitis, toxic",
            "category": "diseases"
          }
        ]
      },
      "processes": {
        "original_name": "Processes",
        "value": "Industrial Processes with risk of exposure: Toxic Gas from Spilling Chemical in Water",
        "links": [
          {
            "text": "Toxic Gas from Spilling Chemical in Water",
            "url": "https://haz-map.com/Processes/256"
          }
        ],
        "cross_references": [
          {
            "type": "name_match",
            "text": "mica",
            "confidence": 1.0,
            "uuid": "433f26f1-c399-4596-b179-ce3843cfd465",
            "name": "Mica",
            "url": "https://haz-map.com/Agents/621",
            "category": "agents"
          },
          {
            "type": "name_match",
            "text": "water",
            "confidence": 1.0,
            "uuid": "6f2a7557-dfd2-49bc-9b4b-a93cd8e225d4",
            "name": "Water",
            "url": "https://haz-map.com/Agents/18668",
            "category": "agents"
          }
        ]
      }
    }
  },
  "cross_references": [
    {
      "type": "url_match",
      "text": "Pneumonitis, toxic",
      "url": "https://haz-map.com/Diseases/306",
      "confidence": 1.0,
      "uuid": "cd799281-0284-450d-bb82-ed6b675616ac",
      "name": "Pneumonitis, toxic",
      "category": "diseases"
    },
    {
      "type": "name_match",
      "text": "burn",
      "confidence": 1.0,
      "uuid": "63665de5-6376-4918-8dbf-4c10c4d63837",
      "name": "burn",
      "url": "https://haz-map.com/Findings/204",
      "category": "findings"
    },
    {
      "type": "name_match",
      "text": "mica",
      "confidence": 1.0,
      "uuid": "433f26f1-c399-4596-b179-ce3843cfd465",
      "name": "Mica",
      "url": "https://haz-map.com/Agents/621",
      "category": "agents"
    },
    {
      "type": "name_match",
      "text": "chlorosilanes",
      "confidence": 1.0,
      "uuid": "9067acc8-066c-4a06-8282-d403262ae462",
      "name": "CHLOROSILANES",
      "url": "https://haz-map.com/Agents/1584",
      "category": "agents"
    },
    {
      "type": "name_match",
      "text": "chlorotriethylsilane",
      "confidence": 1.0,
      "uuid": "4372c2d9-ded1-4407-85a0-10e99f91eab7",
      "name": "Chlorotriethylsilane",
      "url": "https://haz-map.com/Agents/9247",
      "category": "agents"
    },
    {
      "type": "name_match",
      "text": "water",
      "confidence": 1.0,
      "uuid": "6f2a7557-dfd2-49bc-9b4b-a93cd8e225d4",
      "name": "Water",
      "url": "https://haz-map.com/Agents/18668",
      "category": "agents"
    },
    {
      "type": "name_match",
      "text": "triethylsilane",
      "confidence": 1.0,
      "uuid": "0e46ab89-eeec-491f-a344-e728699321b3",
      "name": "Triethylsilane",
      "url": "https://haz-map.com/Agents/19905",
      "category": "agents"
    }
  ],
  "all_links": [
    {
      "text": "Search PubMed",
      "url": "https://www.ncbi.nlm.nih.gov/pubmed?term=Chlorotriethylsilane%20AND%20human%5Bmh%5D%20AND%20%28Occupational%20Diseases%20%5Bmh%5D%20OR%20Occupational%20Exposure%20%5Bmh%5D%29%20%20AND%20%28tox%5Bsb%5D%29&cmd=search"
    },
    {
      "text": "Pneumonitis, toxic",
      "url": "https://haz-map.com/Diseases/306"
    },
    {
      "text": "Toxic Gas from Spilling Chemical in Water",
      "url": "https://haz-map.com/Processes/256"
    }
  ]
}