{
  "metadata": {
    "scraped_from": "https://haz-map.com/Agents/10410",
    "entity_name": "2,5-Pyrrolidinedione, 1-methyl-",
    "category": "agents",
    "uuid": "43c5bca6-9c5f-4a1e-a601-6d10ecd94883",
    "scraped_at": "2025-07-23T20:47:10.829795"
  },
  "parsed_at": "2025-07-24T01:02:38.838403",
  "title": "2,5-Pyrrolidinedione, 1-methyl-",
  "sections": {
    "general": {
      "agent_name": {
        "original_name": "Agent Name",
        "value": "2,5-Pyrrolidinedione, 1-methyl-",
        "links": [],
        "cross_references": [
          {
            "type": "name_match",
            "text": "pyrrolidine",
            "confidence": 1.0,
            "uuid": "2d5875c0-8966-4b9b-8176-e71ea453a10c",
            "name": "Pyrrolidine",
            "url": "https://haz-map.com/Agents/1429",
            "category": "agents"
          },
          {
            "type": "name_match",
            "text": "2,5-pyrrolidinedione, 1-methyl-",
            "confidence": 1.0,
            "uuid": "43c5bca6-9c5f-4a1e-a601-6d10ecd94883",
            "name": "2,5-Pyrrolidinedione, 1-methyl-",
            "url": "https://haz-map.com/Agents/10410",
            "category": "agents"
          }
        ]
      },
      "cas_number": {
        "original_name": "CAS Number",
        "value": "1121-07-9",
        "links": [],
        "cross_references": []
      },
      "formula": {
        "original_name": "Formula",
        "value": "C5-H7-N-O2",
        "links": [],
        "cross_references": []
      },
      "major_category": {
        "original_name": "Major Category",
        "value": "Nitrogen Compounds",
        "links": [],
        "cross_references": [
          {
            "type": "name_match",
            "text": "nitrogen",
            "confidence": 1.0,
            "uuid": "db5e90a9-06d2-45b9-8b81-f345a89b0bc0",
            "name": "Nitrogen",
            "url": "https://haz-map.com/Agents/1072",
            "category": "agents"
          }
        ]
      },
      "synonyms": {
        "original_name": "Synonyms",
        "value": "N-Methylsuccinimide; [Alfa Aesar MSDS]",
        "links": [],
        "cross_references": []
      },
      "category": {
        "original_name": "Category",
        "value": "Succinimides",
        "links": [],
        "cross_references": []
      },
      "description": {
        "original_name": "Description",
        "value": "White crystalline solid; [Alfa Aesar MSDS]",
        "links": [],
        "cross_references": [
          {
            "type": "fuzzy_match",
            "text": "crystalline",
            "matched_name": "Silica, crystalline",
            "confidence": 0.7061403508771931,
            "uuid": "f920e8a2-46df-41b7-af8d-0368a777251e",
            "category": "agents",
            "url": "https://haz-map.com/Agents/427"
          }
        ]
      },
      "comments": {
        "original_name": "Comments",
        "value": "Causes changes in food intake in 10-day and 13-day oral studies of rats; [RTECS] An irritant; [Alfa Aesar MSDS]",
        "links": [],
        "cross_references": []
      },
      "biomedical_references": {
        "original_name": "Biomedical References",
        "value": "Search PubMed",
        "links": [
          {
            "text": "Search PubMed",
            "url": "https://www.ncbi.nlm.nih.gov/pubmed?term=2%2c5-Pyrrolidinedione%2c+1-methyl-%20AND%20human%5Bmh%5D%20AND%20%28Occupational%20Diseases%20%5Bmh%5D%20OR%20Occupational%20Exposure%20%5Bmh%5D%29%20%20AND%20%28tox%5Bsb%5D%29&cmd=search"
          }
        ],
        "cross_references": []
      }
    },
    "exposure_assessment": {
      "vapor_pressure": {
        "original_name": "Vapor Pressure",
        "value": "0.000192 mm Hg",
        "links": [],
        "cross_references": []
      }
    },
    "diseases_processes_and_activities_linked_to_this_agent": {
      "other_information": {
        "original_name": "Other Information",
        "value": "No other related information on this agent was found.",
        "links": [],
        "cross_references": []
      }
    }
  },
  "cross_references": [
    {
      "type": "name_match",
      "text": "nitrogen",
      "confidence": 1.0,
      "uuid": "db5e90a9-06d2-45b9-8b81-f345a89b0bc0",
      "name": "Nitrogen",
      "url": "https://haz-map.com/Agents/1072",
      "category": "agents"
    },
    {
      "type": "name_match",
      "text": "pyrrolidine",
      "confidence": 1.0,
      "uuid": "2d5875c0-8966-4b9b-8176-e71ea453a10c",
      "name": "Pyrrolidine",
      "url": "https://haz-map.com/Agents/1429",
      "category": "agents"
    },
    {
      "type": "name_match",
      "text": "2,5-pyrrolidinedione, 1-methyl-",
      "confidence": 1.0,
      "uuid": "43c5bca6-9c5f-4a1e-a601-6d10ecd94883",
      "name": "2,5-Pyrrolidinedione, 1-methyl-",
      "url": "https://haz-map.com/Agents/10410",
      "category": "agents"
    },
    {
      "type": "fuzzy_match",
      "text": "crystalline",
      "matched_name": "Silica, crystalline",
      "confidence": 0.7061403508771931,
      "uuid": "f920e8a2-46df-41b7-af8d-0368a777251e",
      "category": "agents",
      "url": "https://haz-map.com/Agents/427"
    }
  ],
  "all_links": [
    {
      "text": "Search PubMed",
      "url": "https://www.ncbi.nlm.nih.gov/pubmed?term=2%2c5-Pyrrolidinedione%2c+1-methyl-%20AND%20human%5Bmh%5D%20AND%20%28Occupational%20Diseases%20%5Bmh%5D%20OR%20Occupational%20Exposure%20%5Bmh%5D%29%20%20AND%20%28tox%5Bsb%5D%29&cmd=search"
    }
  ]
}