{
  "metadata": {
    "scraped_from": "https://haz-map.com/Agents/8550",
    "entity_name": "Perfluorohexane",
    "category": "agents",
    "uuid": "43e78352-1eaa-4f36-b658-26f963325793",
    "scraped_at": "2025-07-23T20:28:42.729367"
  },
  "parsed_at": "2025-07-24T01:07:09.343207",
  "title": "Perfluorohexane",
  "sections": {
    "general": {
      "agent_name": {
        "original_name": "Agent Name",
        "value": "Perfluorohexane",
        "links": [],
        "cross_references": [
          {
            "type": "name_match",
            "text": "perfluorohexane",
            "confidence": 1.0,
            "uuid": "43e78352-1eaa-4f36-b658-26f963325793",
            "name": "Perfluorohexane",
            "url": "https://haz-map.com/Agents/8550",
            "category": "agents"
          }
        ]
      },
      "cas_number": {
        "original_name": "CAS Number",
        "value": "355-42-0",
        "links": [],
        "cross_references": []
      },
      "formula": {
        "original_name": "Formula",
        "value": "C6-F14",
        "links": [],
        "cross_references": []
      },
      "major_category": {
        "original_name": "Major Category",
        "value": "Other Classes",
        "links": [],
        "cross_references": []
      },
      "synonyms": {
        "original_name": "Synonyms",
        "value": "Fluorinert FC72; Flutec PP1; Hexane, tetradecafluoro-; Perflexane; Perfluoro-n-hexane; Tetradecafluorohexane; n-Tetradecafluorohexane; [ChemIDplus]",
        "links": [],
        "cross_references": [
          {
            "type": "name_match",
            "text": "n-hexane",
            "confidence": 1.0,
            "uuid": "17cca64b-b503-423c-a841-9aff067c5671",
            "name": "n-Hexane",
            "url": "https://haz-map.com/Agents/105",
            "category": "agents"
          },
          {
            "type": "name_match",
            "text": "fluorine",
            "confidence": 1.0,
            "uuid": "bcff09a2-d008-4bb9-9ea2-9945e4426940",
            "name": "Fluorine",
            "url": "https://haz-map.com/Agents/494",
            "category": "agents"
          },
          {
            "type": "name_match",
            "text": "lexan",
            "confidence": 1.0,
            "uuid": "8ae789a4-21a0-4560-b0e8-beb6217a518c",
            "name": "Lexan",
            "url": "https://haz-map.com/Agents/15170",
            "category": "agents"
          }
        ]
      },
      "category": {
        "original_name": "Category",
        "value": "Halogenated Aliphatics, Saturated",
        "links": [],
        "cross_references": []
      },
      "description": {
        "original_name": "Description",
        "value": "Transparent solid; [Merck Index] Clear colorless liquid; [MSDSonline] Perfluoroalkanes are chemically stable, nonflammable, and physiologically inert; [Ullmann]",
        "links": [],
        "cross_references": [
          {
            "type": "name_match",
            "text": "mica",
            "confidence": 1.0,
            "uuid": "433f26f1-c399-4596-b179-ce3843cfd465",
            "name": "Mica",
            "url": "https://haz-map.com/Agents/621",
            "category": "agents"
          }
        ]
      },
      "sourcesuses": {
        "original_name": "Sources/Uses",
        "value": "Used as a coolant (electronics), inert reaction medium (non-toxic and non-ozone-depleting), and ultrasound contrast agent; [Merck Index] Perfluoroalkanes, e.g., perfluorodecalin, are used to produce blood substitutes. [Ullmann]",
        "links": [],
        "cross_references": [
          {
            "type": "name_match",
            "text": "ozone",
            "confidence": 1.0,
            "uuid": "51922743-c4bf-490f-a638-9e4b33624111",
            "name": "Ozone",
            "url": "https://haz-map.com/Agents/68",
            "category": "agents"
          }
        ]
      },
      "comments": {
        "original_name": "Comments",
        "value": "An irritant; [MSDSonline] See \"Perfluoro compounds, C5-18.\"",
        "links": [],
        "cross_references": [
          {
            "type": "name_match",
            "text": "perfluoro compounds, c5-18",
            "confidence": 1.0,
            "uuid": "b947004f-ba27-48c5-baa1-c60280842427",
            "name": "Perfluoro compounds, C5-18",
            "url": "https://haz-map.com/Agents/6594",
            "category": "agents"
          }
        ]
      },
      "biomedical_references": {
        "original_name": "Biomedical References",
        "value": "Search PubMed",
        "links": [
          {
            "text": "Search PubMed",
            "url": "https://www.ncbi.nlm.nih.gov/pubmed?term=Perfluorohexane%20AND%20human%5Bmh%5D%20AND%20%28Occupational%20Diseases%20%5Bmh%5D%20OR%20Occupational%20Exposure%20%5Bmh%5D%29%20%20AND%20%28tox%5Bsb%5D%29&cmd=search"
          }
        ],
        "cross_references": []
      }
    },
    "exposure_assessment": {
      "vapor_pressure": {
        "original_name": "Vapor Pressure",
        "value": "218 mm Hg",
        "links": [],
        "cross_references": []
      },
      "lethal_concentration": {
        "original_name": "Lethal Concentration",
        "value": "LC (rat) > 40,000 ppm/6h",
        "links": [],
        "cross_references": []
      },
      "explanatory_notes": {
        "original_name": "Explanatory Notes",
        "value": "VP from ChemIDplus;",
        "links": [],
        "cross_references": []
      }
    },
    "diseases_processes_and_activities_linked_to_this_agent": {
      "other_information": {
        "original_name": "Other Information",
        "value": "No other related information on this agent was found.",
        "links": [],
        "cross_references": []
      }
    }
  },
  "cross_references": [
    {
      "type": "name_match",
      "text": "ozone",
      "confidence": 1.0,
      "uuid": "51922743-c4bf-490f-a638-9e4b33624111",
      "name": "Ozone",
      "url": "https://haz-map.com/Agents/68",
      "category": "agents"
    },
    {
      "type": "name_match",
      "text": "n-hexane",
      "confidence": 1.0,
      "uuid": "17cca64b-b503-423c-a841-9aff067c5671",
      "name": "n-Hexane",
      "url": "https://haz-map.com/Agents/105",
      "category": "agents"
    },
    {
      "type": "name_match",
      "text": "fluorine",
      "confidence": 1.0,
      "uuid": "bcff09a2-d008-4bb9-9ea2-9945e4426940",
      "name": "Fluorine",
      "url": "https://haz-map.com/Agents/494",
      "category": "agents"
    },
    {
      "type": "name_match",
      "text": "mica",
      "confidence": 1.0,
      "uuid": "433f26f1-c399-4596-b179-ce3843cfd465",
      "name": "Mica",
      "url": "https://haz-map.com/Agents/621",
      "category": "agents"
    },
    {
      "type": "name_match",
      "text": "perfluoro compounds, c5-18",
      "confidence": 1.0,
      "uuid": "b947004f-ba27-48c5-baa1-c60280842427",
      "name": "Perfluoro compounds, C5-18",
      "url": "https://haz-map.com/Agents/6594",
      "category": "agents"
    },
    {
      "type": "name_match",
      "text": "perfluorohexane",
      "confidence": 1.0,
      "uuid": "43e78352-1eaa-4f36-b658-26f963325793",
      "name": "Perfluorohexane",
      "url": "https://haz-map.com/Agents/8550",
      "category": "agents"
    },
    {
      "type": "name_match",
      "text": "lexan",
      "confidence": 1.0,
      "uuid": "8ae789a4-21a0-4560-b0e8-beb6217a518c",
      "name": "Lexan",
      "url": "https://haz-map.com/Agents/15170",
      "category": "agents"
    }
  ],
  "all_links": [
    {
      "text": "Search PubMed",
      "url": "https://www.ncbi.nlm.nih.gov/pubmed?term=Perfluorohexane%20AND%20human%5Bmh%5D%20AND%20%28Occupational%20Diseases%20%5Bmh%5D%20OR%20Occupational%20Exposure%20%5Bmh%5D%29%20%20AND%20%28tox%5Bsb%5D%29&cmd=search"
    }
  ]
}