{
  "metadata": {
    "scraped_from": "https://haz-map.com/Agents/2773",
    "entity_name": "1,2-Hydrazinedicarboxamide",
    "category": "agents",
    "uuid": "4427dbde-fb9d-44e1-b80b-ddfc58b5a17b",
    "scraped_at": "2025-07-23T19:18:47.124069"
  },
  "parsed_at": "2025-07-24T01:16:05.427530",
  "title": "1,2-Hydrazinedicarboxamide",
  "sections": {
    "general": {
      "agent_name": {
        "original_name": "Agent Name",
        "value": "1,2-Hydrazinedicarboxamide",
        "links": [],
        "cross_references": [
          {
            "type": "name_match",
            "text": "hydrazine",
            "confidence": 1.0,
            "uuid": "72217956-0601-43f2-9d74-0d90d38fd09d",
            "name": "Hydrazine",
            "url": "https://haz-map.com/Agents/55",
            "category": "agents"
          },
          {
            "type": "name_match",
            "text": "1,2-hydrazinedicarboxamide",
            "confidence": 1.0,
            "uuid": "4427dbde-fb9d-44e1-b80b-ddfc58b5a17b",
            "name": "1,2-Hydrazinedicarboxamide",
            "url": "https://haz-map.com/Agents/2773",
            "category": "agents"
          },
          {
            "type": "name_match",
            "text": "oxamide",
            "confidence": 1.0,
            "uuid": "3b911451-e34f-4ab7-9228-2919a8e1aad5",
            "name": "Oxamide",
            "url": "https://haz-map.com/Agents/16307",
            "category": "agents"
          }
        ]
      },
      "cas_number": {
        "original_name": "CAS Number",
        "value": "110-21-4",
        "links": [],
        "cross_references": []
      },
      "formula": {
        "original_name": "Formula",
        "value": "C2-H6-N4-O2",
        "links": [],
        "cross_references": []
      },
      "major_category": {
        "original_name": "Major Category",
        "value": "Nitrogen Compounds",
        "links": [],
        "cross_references": [
          {
            "type": "name_match",
            "text": "nitrogen",
            "confidence": 1.0,
            "uuid": "db5e90a9-06d2-45b9-8b81-f345a89b0bc0",
            "name": "Nitrogen",
            "url": "https://haz-map.com/Agents/1072",
            "category": "agents"
          }
        ]
      },
      "synonyms": {
        "original_name": "Synonyms",
        "value": "1,1'-Hydrazobis(formamide); Bicarbamamide; Bicarbamimidic acid; Bicarbamimidic acid (VAN); Biurea; Formamide, 1,1'-hydrazobis-; Formimidic acid, 1-semicarbazido-; Hydradicarbonamide; Hydrazine, 1,2-bis(aminocarbonyl)-; Hydrazine, 1,2-dicarbamoyl-; Hydrazinecarboximidic acid, 2-(aminocarbonyl)-; Hydrazinedicarboxylic acid diamide; Hydrazocarbonamide; Hydrazodicarbonamide; Hydrazodicarboxamide; N,N'-Biscarbamoylhydrazine; Pseudourea, 3-ureido-; Semicarbazide, 1-(1-hydroxyformimidoyl)-; Semicarbazide, 1-carbamoyl-; Urea, ureido-; Ureidourea; Ureidoureacarboxamide; 1,1-Hydrazoformamide; [ChemIDplus]",
        "links": [],
        "cross_references": [
          {
            "type": "name_match",
            "text": "hydrazine",
            "confidence": 1.0,
            "uuid": "72217956-0601-43f2-9d74-0d90d38fd09d",
            "name": "Hydrazine",
            "url": "https://haz-map.com/Agents/55",
            "category": "agents"
          },
          {
            "type": "name_match",
            "text": "formamide",
            "confidence": 1.0,
            "uuid": "70c12f11-5fdc-417f-a614-4b4de0f81d0b",
            "name": "Formamide",
            "url": "https://haz-map.com/Agents/496",
            "category": "agents"
          },
          {
            "type": "name_match",
            "text": "mica",
            "confidence": 1.0,
            "uuid": "433f26f1-c399-4596-b179-ce3843cfd465",
            "name": "Mica",
            "url": "https://haz-map.com/Agents/621",
            "category": "agents"
          },
          {
            "type": "name_match",
            "text": "azodicarbonamide",
            "confidence": 1.0,
            "uuid": "dce3c113-8c3a-40d3-9ae8-95a36f203c5a",
            "name": "Azodicarbonamide",
            "url": "https://haz-map.com/Agents/751",
            "category": "agents"
          },
          {
            "type": "name_match",
            "text": "carbon",
            "confidence": 1.0,
            "uuid": "b53f8815-ee80-40ef-b4aa-3b000e17dab5",
            "name": "Carbon",
            "url": "https://haz-map.com/Agents/1891",
            "category": "agents"
          },
          {
            "type": "name_match",
            "text": "urea",
            "confidence": 1.0,
            "uuid": "a92a6129-bddd-4f79-9a78-136812ae610f",
            "name": "Urea",
            "url": "https://haz-map.com/Agents/2078",
            "category": "agents"
          },
          {
            "type": "name_match",
            "text": "aminocarb",
            "confidence": 1.0,
            "uuid": "5d9f60fe-2b75-4090-9f26-4057a66b2cf6",
            "name": "Aminocarb",
            "url": "https://haz-map.com/Agents/3627",
            "category": "agents"
          },
          {
            "type": "name_match",
            "text": "diamide",
            "confidence": 1.0,
            "uuid": "9ef6c163-7996-4c0d-9f51-af32859c168a",
            "name": "Diamide",
            "url": "https://haz-map.com/Agents/13707",
            "category": "agents"
          },
          {
            "type": "name_match",
            "text": "oxamide",
            "confidence": 1.0,
            "uuid": "3b911451-e34f-4ab7-9228-2919a8e1aad5",
            "name": "Oxamide",
            "url": "https://haz-map.com/Agents/16307",
            "category": "agents"
          },
          {
            "type": "name_match",
            "text": "semicarbazide",
            "confidence": 1.0,
            "uuid": "5d71f37a-a077-43bd-b8cb-898edc9c1b65",
            "name": "Semicarbazide",
            "url": "https://haz-map.com/Agents/17241",
            "category": "agents"
          }
        ]
      },
      "category": {
        "original_name": "Category",
        "value": "Other Nitrogen Compounds",
        "links": [],
        "cross_references": [
          {
            "type": "name_match",
            "text": "nitrogen",
            "confidence": 1.0,
            "uuid": "db5e90a9-06d2-45b9-8b81-f345a89b0bc0",
            "name": "Nitrogen",
            "url": "https://haz-map.com/Agents/1072",
            "category": "agents"
          }
        ]
      },
      "description": {
        "original_name": "Description",
        "value": "White solid; [CAMEO]",
        "links": [],
        "cross_references": []
      },
      "sourcesuses": {
        "original_name": "Sources/Uses",
        "value": "Used as a chemical intermediate in the production of azodicarbonamide (a high volume chemical blowing agent); [HSDB]",
        "links": [],
        "cross_references": [
          {
            "type": "name_match",
            "text": "mica",
            "confidence": 1.0,
            "uuid": "433f26f1-c399-4596-b179-ce3843cfd465",
            "name": "Mica",
            "url": "https://haz-map.com/Agents/621",
            "category": "agents"
          },
          {
            "type": "name_match",
            "text": "azodicarbonamide",
            "confidence": 1.0,
            "uuid": "dce3c113-8c3a-40d3-9ae8-95a36f203c5a",
            "name": "Azodicarbonamide",
            "url": "https://haz-map.com/Agents/751",
            "category": "agents"
          },
          {
            "type": "name_match",
            "text": "carbon",
            "confidence": 1.0,
            "uuid": "b53f8815-ee80-40ef-b4aa-3b000e17dab5",
            "name": "Carbon",
            "url": "https://haz-map.com/Agents/1891",
            "category": "agents"
          }
        ]
      },
      "comments": {
        "original_name": "Comments",
        "value": "May cause irritation; [MSDSonline]",
        "links": [],
        "cross_references": []
      },
      "biomedical_references": {
        "original_name": "Biomedical References",
        "value": "Search PubMed",
        "links": [
          {
            "text": "Search PubMed",
            "url": "https://www.ncbi.nlm.nih.gov/pubmed?term=1%2c2-Hydrazinedicarboxamide%20AND%20human%5Bmh%5D%20AND%20%28Occupational%20Diseases%20%5Bmh%5D%20OR%20Occupational%20Exposure%20%5Bmh%5D%29%20%20AND%20%28tox%5Bsb%5D%29&cmd=search"
          }
        ],
        "cross_references": []
      }
    },
    "exposure_assessment": {
      "vapor_pressure": {
        "original_name": "Vapor Pressure",
        "value": "5.95E-05 mm Hg",
        "links": [],
        "cross_references": []
      }
    },
    "diseases_processes_and_activities_linked_to_this_agent": {
      "other_information": {
        "original_name": "Other Information",
        "value": "No other related information on this agent was found.",
        "links": [],
        "cross_references": []
      }
    }
  },
  "cross_references": [
    {
      "type": "name_match",
      "text": "hydrazine",
      "confidence": 1.0,
      "uuid": "72217956-0601-43f2-9d74-0d90d38fd09d",
      "name": "Hydrazine",
      "url": "https://haz-map.com/Agents/55",
      "category": "agents"
    },
    {
      "type": "name_match",
      "text": "formamide",
      "confidence": 1.0,
      "uuid": "70c12f11-5fdc-417f-a614-4b4de0f81d0b",
      "name": "Formamide",
      "url": "https://haz-map.com/Agents/496",
      "category": "agents"
    },
    {
      "type": "name_match",
      "text": "mica",
      "confidence": 1.0,
      "uuid": "433f26f1-c399-4596-b179-ce3843cfd465",
      "name": "Mica",
      "url": "https://haz-map.com/Agents/621",
      "category": "agents"
    },
    {
      "type": "name_match",
      "text": "azodicarbonamide",
      "confidence": 1.0,
      "uuid": "dce3c113-8c3a-40d3-9ae8-95a36f203c5a",
      "name": "Azodicarbonamide",
      "url": "https://haz-map.com/Agents/751",
      "category": "agents"
    },
    {
      "type": "name_match",
      "text": "nitrogen",
      "confidence": 1.0,
      "uuid": "db5e90a9-06d2-45b9-8b81-f345a89b0bc0",
      "name": "Nitrogen",
      "url": "https://haz-map.com/Agents/1072",
      "category": "agents"
    },
    {
      "type": "name_match",
      "text": "carbon",
      "confidence": 1.0,
      "uuid": "b53f8815-ee80-40ef-b4aa-3b000e17dab5",
      "name": "Carbon",
      "url": "https://haz-map.com/Agents/1891",
      "category": "agents"
    },
    {
      "type": "name_match",
      "text": "urea",
      "confidence": 1.0,
      "uuid": "a92a6129-bddd-4f79-9a78-136812ae610f",
      "name": "Urea",
      "url": "https://haz-map.com/Agents/2078",
      "category": "agents"
    },
    {
      "type": "name_match",
      "text": "1,2-hydrazinedicarboxamide",
      "confidence": 1.0,
      "uuid": "4427dbde-fb9d-44e1-b80b-ddfc58b5a17b",
      "name": "1,2-Hydrazinedicarboxamide",
      "url": "https://haz-map.com/Agents/2773",
      "category": "agents"
    },
    {
      "type": "name_match",
      "text": "aminocarb",
      "confidence": 1.0,
      "uuid": "5d9f60fe-2b75-4090-9f26-4057a66b2cf6",
      "name": "Aminocarb",
      "url": "https://haz-map.com/Agents/3627",
      "category": "agents"
    },
    {
      "type": "name_match",
      "text": "diamide",
      "confidence": 1.0,
      "uuid": "9ef6c163-7996-4c0d-9f51-af32859c168a",
      "name": "Diamide",
      "url": "https://haz-map.com/Agents/13707",
      "category": "agents"
    },
    {
      "type": "name_match",
      "text": "oxamide",
      "confidence": 1.0,
      "uuid": "3b911451-e34f-4ab7-9228-2919a8e1aad5",
      "name": "Oxamide",
      "url": "https://haz-map.com/Agents/16307",
      "category": "agents"
    },
    {
      "type": "name_match",
      "text": "semicarbazide",
      "confidence": 1.0,
      "uuid": "5d71f37a-a077-43bd-b8cb-898edc9c1b65",
      "name": "Semicarbazide",
      "url": "https://haz-map.com/Agents/17241",
      "category": "agents"
    }
  ],
  "all_links": [
    {
      "text": "Search PubMed",
      "url": "https://www.ncbi.nlm.nih.gov/pubmed?term=1%2c2-Hydrazinedicarboxamide%20AND%20human%5Bmh%5D%20AND%20%28Occupational%20Diseases%20%5Bmh%5D%20OR%20Occupational%20Exposure%20%5Bmh%5D%29%20%20AND%20%28tox%5Bsb%5D%29&cmd=search"
    }
  ]
}