{
  "metadata": {
    "scraped_from": "https://haz-map.com/Agents/19225",
    "entity_name": "1,3,5-Benzenetricarboxylic acid",
    "category": "agents",
    "uuid": "445469dd-2980-4edc-8e55-c789647c9aa5",
    "scraped_at": "2025-07-23T22:01:48.511299"
  },
  "parsed_at": "2025-07-24T00:56:01.140367",
  "title": "1,3,5-Benzenetricarboxylic acid",
  "sections": {
    "general": {
      "agent_name": {
        "original_name": "Agent Name",
        "value": "1,3,5-Benzenetricarboxylic acid",
        "links": [],
        "cross_references": [
          {
            "type": "name_match",
            "text": "benzene",
            "confidence": 1.0,
            "uuid": "b05124de-5f34-4c14-8f04-ccb20c3780d9",
            "name": "Benzene",
            "url": "https://haz-map.com/Agents/5",
            "category": "agents"
          },
          {
            "type": "name_match",
            "text": "1,3,5-benzenetricarboxylic acid",
            "confidence": 1.0,
            "uuid": "445469dd-2980-4edc-8e55-c789647c9aa5",
            "name": "1,3,5-Benzenetricarboxylic acid",
            "url": "https://haz-map.com/Agents/19225",
            "category": "agents"
          }
        ]
      },
      "alternative_name": {
        "original_name": "Alternative Name",
        "value": "Trimesic acid",
        "links": [],
        "cross_references": []
      },
      "cas_number": {
        "original_name": "CAS Number",
        "value": "554-95-0",
        "links": [],
        "cross_references": []
      },
      "formula": {
        "original_name": "Formula",
        "value": "C9-H6-O6",
        "links": [],
        "cross_references": []
      },
      "major_category": {
        "original_name": "Major Category",
        "value": "Other Classes",
        "links": [],
        "cross_references": []
      },
      "synonyms": {
        "original_name": "Synonyms",
        "value": "1,3,5-Tricarboxybenzene; 5-Carboxyisophthalic acid; Trimesic acid; Trimesinic acid; Trimesitinic acid; [ChemIDplus]",
        "links": [],
        "cross_references": [
          {
            "type": "name_match",
            "text": "benzene",
            "confidence": 1.0,
            "uuid": "b05124de-5f34-4c14-8f04-ccb20c3780d9",
            "name": "Benzene",
            "url": "https://haz-map.com/Agents/5",
            "category": "agents"
          },
          {
            "type": "name_match",
            "text": "ht",
            "confidence": 1.0,
            "uuid": "764df367-8d53-4a11-81a2-31ccfe122a8d",
            "name": "HT",
            "url": "https://haz-map.com/Agents/2168",
            "category": "agents"
          },
          {
            "type": "name_match",
            "text": "isophthalic acid",
            "confidence": 1.0,
            "uuid": "4a855e70-5bbb-46f6-95bc-efb8e34ba28e",
            "name": "Isophthalic acid",
            "url": "https://haz-map.com/Agents/5708",
            "category": "agents"
          },
          {
            "type": "name_match",
            "text": "phthalic acid",
            "confidence": 1.0,
            "uuid": "f19ac6b5-df06-48aa-81e6-825cdcfe8f9c",
            "name": "Phthalic acid",
            "url": "https://haz-map.com/Agents/6702",
            "category": "agents"
          }
        ]
      },
      "category": {
        "original_name": "Category",
        "value": "Organic Acids",
        "links": [],
        "cross_references": []
      },
      "description": {
        "original_name": "Description",
        "value": "White to cream crystalline powder; [Alfa Aesar MSDS]",
        "links": [],
        "cross_references": [
          {
            "type": "fuzzy_match",
            "text": "crystalline",
            "matched_name": "Silica, crystalline",
            "confidence": 0.7061403508771931,
            "uuid": "f920e8a2-46df-41b7-af8d-0368a777251e",
            "category": "agents",
            "url": "https://haz-map.com/Agents/427"
          }
        ]
      },
      "comments": {
        "original_name": "Comments",
        "value": "A skin, respiratory tract, and strong eye irritant; [Alfa Aesar MSDS]",
        "links": [],
        "cross_references": []
      },
      "biomedical_references": {
        "original_name": "Biomedical References",
        "value": "Search PubMed",
        "links": [
          {
            "text": "Search PubMed",
            "url": "https://www.ncbi.nlm.nih.gov/pubmed?term=1%2c3%2c5-Benzenetricarboxylic+acid%20AND%20human%5Bmh%5D%20AND%20%28Occupational%20Diseases%20%5Bmh%5D%20OR%20Occupational%20Exposure%20%5Bmh%5D%29%20%20AND%20%28tox%5Bsb%5D%29&cmd=search"
          }
        ],
        "cross_references": []
      }
    },
    "exposure_assessment": {
      "vapor_pressure": {
        "original_name": "Vapor Pressure",
        "value": "2.88E-08 mm Hg",
        "links": [],
        "cross_references": []
      }
    },
    "diseases_processes_and_activities_linked_to_this_agent": {
      "other_information": {
        "original_name": "Other Information",
        "value": "No other related information on this agent was found.",
        "links": [],
        "cross_references": []
      }
    }
  },
  "cross_references": [
    {
      "type": "name_match",
      "text": "benzene",
      "confidence": 1.0,
      "uuid": "b05124de-5f34-4c14-8f04-ccb20c3780d9",
      "name": "Benzene",
      "url": "https://haz-map.com/Agents/5",
      "category": "agents"
    },
    {
      "type": "name_match",
      "text": "ht",
      "confidence": 1.0,
      "uuid": "764df367-8d53-4a11-81a2-31ccfe122a8d",
      "name": "HT",
      "url": "https://haz-map.com/Agents/2168",
      "category": "agents"
    },
    {
      "type": "name_match",
      "text": "isophthalic acid",
      "confidence": 1.0,
      "uuid": "4a855e70-5bbb-46f6-95bc-efb8e34ba28e",
      "name": "Isophthalic acid",
      "url": "https://haz-map.com/Agents/5708",
      "category": "agents"
    },
    {
      "type": "name_match",
      "text": "phthalic acid",
      "confidence": 1.0,
      "uuid": "f19ac6b5-df06-48aa-81e6-825cdcfe8f9c",
      "name": "Phthalic acid",
      "url": "https://haz-map.com/Agents/6702",
      "category": "agents"
    },
    {
      "type": "name_match",
      "text": "1,3,5-benzenetricarboxylic acid",
      "confidence": 1.0,
      "uuid": "445469dd-2980-4edc-8e55-c789647c9aa5",
      "name": "1,3,5-Benzenetricarboxylic acid",
      "url": "https://haz-map.com/Agents/19225",
      "category": "agents"
    },
    {
      "type": "fuzzy_match",
      "text": "crystalline",
      "matched_name": "Silica, crystalline",
      "confidence": 0.7061403508771931,
      "uuid": "f920e8a2-46df-41b7-af8d-0368a777251e",
      "category": "agents",
      "url": "https://haz-map.com/Agents/427"
    }
  ],
  "all_links": [
    {
      "text": "Search PubMed",
      "url": "https://www.ncbi.nlm.nih.gov/pubmed?term=1%2c3%2c5-Benzenetricarboxylic+acid%20AND%20human%5Bmh%5D%20AND%20%28Occupational%20Diseases%20%5Bmh%5D%20OR%20Occupational%20Exposure%20%5Bmh%5D%29%20%20AND%20%28tox%5Bsb%5D%29&cmd=search"
    }
  ]
}