{
  "metadata": {
    "scraped_from": "https://haz-map.com/Agents/6426",
    "entity_name": "Octachlorodibenzo-p-dioxin",
    "category": "agents",
    "uuid": "4454e4a1-c767-4dc7-a19e-88ab53bf5ea9",
    "scraped_at": "2025-07-23T20:01:50.986306"
  },
  "parsed_at": "2025-07-24T01:18:56.998727",
  "title": "Octachlorodibenzo-p-dioxin",
  "sections": {
    "general": {
      "agent_name": {
        "original_name": "Agent Name",
        "value": "Octachlorodibenzo-p-dioxin",
        "links": [],
        "cross_references": [
          {
            "type": "name_match",
            "text": "dibenzo-p-dioxin",
            "confidence": 1.0,
            "uuid": "8bc7b9fd-d722-4be5-af1b-a8c4db467174",
            "name": "Dibenzo-p-dioxin",
            "url": "https://haz-map.com/Agents/4729",
            "category": "agents"
          },
          {
            "type": "name_match",
            "text": "octachlorodibenzo-p-dioxin",
            "confidence": 1.0,
            "uuid": "4454e4a1-c767-4dc7-a19e-88ab53bf5ea9",
            "name": "Octachlorodibenzo-p-dioxin",
            "url": "https://haz-map.com/Agents/6426",
            "category": "agents"
          }
        ]
      },
      "cas_number": {
        "original_name": "CAS Number",
        "value": "3268-87-9",
        "links": [],
        "cross_references": []
      },
      "formula": {
        "original_name": "Formula",
        "value": "C12-Cl8-O2",
        "links": [],
        "cross_references": []
      },
      "major_category": {
        "original_name": "Major Category",
        "value": "Other Classes",
        "links": [],
        "cross_references": []
      },
      "synonyms": {
        "original_name": "Synonyms",
        "value": "1,2,3,4,6,7,8,9-Octachlorodibenzo(1,4)dioxin; 1,2,3,4,6,7,8,9-Octachlorodibenzo(b,e)(1,4)dioxin; 1,2,3,4,6,7,8,9-Octachlorodibenzo-p-dioxin; 1,2,3,4,6,7,8,9-Octachlorodibenzodioxin; 1,2,3,4,6,7,8,9-Octachorodibenzo-p-dioxin; Dibenzo-p-dioxin, 1,2,3,4,6,7,8,9-octachloro-; OCDD; Octa polychlorinated dibenzo-p-dioxin; Octachloro-para-dibenzodioxin; Octachlorodibenzo(b,e)(1,4)dioxin; Octachlorodibenzo-4-dioxin; Octachlorodibenzodioxin; [ChemIDplus] UN2811",
        "links": [],
        "cross_references": [
          {
            "type": "name_match",
            "text": "dibenzo-p-dioxin",
            "confidence": 1.0,
            "uuid": "8bc7b9fd-d722-4be5-af1b-a8c4db467174",
            "name": "Dibenzo-p-dioxin",
            "url": "https://haz-map.com/Agents/4729",
            "category": "agents"
          },
          {
            "type": "name_match",
            "text": "octachlorodibenzo-p-dioxin",
            "confidence": 1.0,
            "uuid": "4454e4a1-c767-4dc7-a19e-88ab53bf5ea9",
            "name": "Octachlorodibenzo-p-dioxin",
            "url": "https://haz-map.com/Agents/6426",
            "category": "agents"
          },
          {
            "type": "name_match",
            "text": "chlorin",
            "confidence": 1.0,
            "uuid": "4a566fec-ec7e-42b0-9f14-ec586335e694",
            "name": "Chlorin",
            "url": "https://haz-map.com/Agents/20422",
            "category": "agents"
          }
        ]
      },
      "category": {
        "original_name": "Category",
        "value": "Halogenated Polyaromatics",
        "links": [],
        "cross_references": []
      },
      "description": {
        "original_name": "Description",
        "value": "Colorless or white solid; [CAMEO]",
        "links": [],
        "cross_references": []
      },
      "sourcesuses": {
        "original_name": "Sources/Uses",
        "value": "Not commercially manufactured; May exist as impurity in certain herbicides and fungicides; [HSDB]",
        "links": [],
        "cross_references": [
          {
            "type": "name_match",
            "text": "herbicides",
            "confidence": 1.0,
            "uuid": "195f29ae-3f15-47c5-836d-0a9791db3fc1",
            "name": "HERBICIDES",
            "url": "https://haz-map.com/Agents/703",
            "category": "agents"
          },
          {
            "type": "name_match",
            "text": "fungicides",
            "confidence": 1.0,
            "uuid": "f4a9c1e1-4d57-4480-be97-d3590d38ce39",
            "name": "FUNGICIDES",
            "url": "https://haz-map.com/Agents/763",
            "category": "agents"
          },
          {
            "type": "name_match",
            "text": "fungi",
            "confidence": 1.0,
            "uuid": "e0d489cb-bfee-4aee-b665-999c017268a2",
            "name": "Fungi",
            "url": "https://haz-map.com/Agents/1988",
            "category": "agents"
          }
        ]
      },
      "comments": {
        "original_name": "Comments",
        "value": "An eye irritant; May cause chloracne and liver damage; [CAMEO] See \"Dibenzo-p-dioxin.\" See \"2,3,7,8-Tetrachlorodibenzo-p-dioxin.\"",
        "links": [],
        "cross_references": [
          {
            "type": "name_match",
            "text": "chloracne",
            "confidence": 1.0,
            "uuid": "5bb01810-1c34-450f-986e-26a644748ce8",
            "name": "Chloracne",
            "url": "https://haz-map.com/Diseases/215",
            "category": "diseases"
          },
          {
            "type": "name_match",
            "text": "acne",
            "confidence": 1.0,
            "uuid": "f329eccb-9e30-4782-83cb-36dfe9817bbf",
            "name": "acne",
            "url": "https://haz-map.com/Findings/133",
            "category": "findings"
          },
          {
            "type": "name_match",
            "text": "2,3,7,8-tetrachlorodibenzo-p-dioxin",
            "confidence": 1.0,
            "uuid": "163dd479-9e9d-4fe3-87bc-9bb274c69bc1",
            "name": "2,3,7,8-Tetrachlorodibenzo-p-dioxin",
            "url": "https://haz-map.com/Agents/431",
            "category": "agents"
          },
          {
            "type": "name_match",
            "text": "dibenzo-p-dioxin",
            "confidence": 1.0,
            "uuid": "8bc7b9fd-d722-4be5-af1b-a8c4db467174",
            "name": "Dibenzo-p-dioxin",
            "url": "https://haz-map.com/Agents/4729",
            "category": "agents"
          },
          {
            "type": "name_match",
            "text": "tetrachlorodibenzo-p-dioxin",
            "confidence": 1.0,
            "uuid": "c540fc3f-af1e-43e1-a7ed-a72d9c5877b5",
            "name": "Tetrachlorodibenzo-p-dioxin",
            "url": "https://haz-map.com/Agents/7336",
            "category": "agents"
          }
        ]
      },
      "biomedical_references": {
        "original_name": "Biomedical References",
        "value": "Search PubMed",
        "links": [
          {
            "text": "Search PubMed",
            "url": "https://www.ncbi.nlm.nih.gov/pubmed?term=Octachlorodibenzo-p-dioxin%20AND%20human%5Bmh%5D%20AND%20%28Occupational%20Diseases%20%5Bmh%5D%20OR%20Occupational%20Exposure%20%5Bmh%5D%29%20%20AND%20%28tox%5Bsb%5D%29&cmd=search"
          }
        ],
        "cross_references": []
      }
    },
    "exposure_assessment": {
      "vapor_pressure": {
        "original_name": "Vapor Pressure",
        "value": "8.25E-13 mm Hg",
        "links": [],
        "cross_references": []
      },
      "explanatory_notes": {
        "original_name": "Explanatory Notes",
        "value": "The Guide in the Emergency Response Guidebook is for \"Toxic solid, organic, n.o.s.\"",
        "links": [],
        "cross_references": []
      }
    },
    "adverse_effects": {
      "hepatotoxin": {
        "original_name": "Hepatotoxin",
        "value": "Hepatoxic (a) from occupational exposure (secondary effect) or (b) in animal studies or in humans after ingestion",
        "links": [],
        "cross_references": []
      },
      "dermatotoxin": {
        "original_name": "Dermatotoxin",
        "value": "Chloracne",
        "links": [],
        "cross_references": [
          {
            "type": "name_match",
            "text": "chloracne",
            "confidence": 1.0,
            "uuid": "5bb01810-1c34-450f-986e-26a644748ce8",
            "name": "Chloracne",
            "url": "https://haz-map.com/Diseases/215",
            "category": "diseases"
          },
          {
            "type": "name_match",
            "text": "acne",
            "confidence": 1.0,
            "uuid": "f329eccb-9e30-4782-83cb-36dfe9817bbf",
            "name": "acne",
            "url": "https://haz-map.com/Findings/133",
            "category": "findings"
          }
        ]
      }
    },
    "diseases_processes_and_activities_linked_to_this_agent": {
      "diseases": {
        "original_name": "Diseases",
        "value": "Occupational diseases associated with exposure to this agent: Chloracne",
        "links": [
          {
            "text": "Chloracne",
            "url": "https://haz-map.com/Diseases/215"
          }
        ],
        "cross_references": [
          {
            "type": "url_match",
            "text": "Chloracne",
            "url": "https://haz-map.com/Diseases/215",
            "confidence": 1.0,
            "uuid": "5bb01810-1c34-450f-986e-26a644748ce8",
            "name": "Chloracne",
            "category": "diseases"
          },
          {
            "type": "name_match",
            "text": "acne",
            "confidence": 1.0,
            "uuid": "f329eccb-9e30-4782-83cb-36dfe9817bbf",
            "name": "acne",
            "url": "https://haz-map.com/Findings/133",
            "category": "findings"
          }
        ]
      },
      "processes": {
        "original_name": "Processes",
        "value": "Industrial Processes with risk of exposure: Farming (Pesticides)",
        "links": [
          {
            "text": "Farming (Pesticides)",
            "url": "https://haz-map.com/Processes/218"
          }
        ],
        "cross_references": [
          {
            "type": "url_match",
            "text": "Farming (Pesticides)",
            "url": "https://haz-map.com/Processes/218",
            "confidence": 1.0,
            "uuid": "cf1e5815-c9bb-4917-82a5-391848170b7e",
            "name": "Farming (Pesticides)",
            "category": "processes"
          }
        ]
      }
    }
  },
  "cross_references": [
    {
      "type": "url_match",
      "text": "Chloracne",
      "url": "https://haz-map.com/Diseases/215",
      "confidence": 1.0,
      "uuid": "5bb01810-1c34-450f-986e-26a644748ce8",
      "name": "Chloracne",
      "category": "diseases"
    },
    {
      "type": "url_match",
      "text": "Farming (Pesticides)",
      "url": "https://haz-map.com/Processes/218",
      "confidence": 1.0,
      "uuid": "cf1e5815-c9bb-4917-82a5-391848170b7e",
      "name": "Farming (Pesticides)",
      "category": "processes"
    },
    {
      "type": "name_match",
      "text": "acne",
      "confidence": 1.0,
      "uuid": "f329eccb-9e30-4782-83cb-36dfe9817bbf",
      "name": "acne",
      "url": "https://haz-map.com/Findings/133",
      "category": "findings"
    },
    {
      "type": "name_match",
      "text": "2,3,7,8-tetrachlorodibenzo-p-dioxin",
      "confidence": 1.0,
      "uuid": "163dd479-9e9d-4fe3-87bc-9bb274c69bc1",
      "name": "2,3,7,8-Tetrachlorodibenzo-p-dioxin",
      "url": "https://haz-map.com/Agents/431",
      "category": "agents"
    },
    {
      "type": "name_match",
      "text": "herbicides",
      "confidence": 1.0,
      "uuid": "195f29ae-3f15-47c5-836d-0a9791db3fc1",
      "name": "HERBICIDES",
      "url": "https://haz-map.com/Agents/703",
      "category": "agents"
    },
    {
      "type": "name_match",
      "text": "fungicides",
      "confidence": 1.0,
      "uuid": "f4a9c1e1-4d57-4480-be97-d3590d38ce39",
      "name": "FUNGICIDES",
      "url": "https://haz-map.com/Agents/763",
      "category": "agents"
    },
    {
      "type": "name_match",
      "text": "fungi",
      "confidence": 1.0,
      "uuid": "e0d489cb-bfee-4aee-b665-999c017268a2",
      "name": "Fungi",
      "url": "https://haz-map.com/Agents/1988",
      "category": "agents"
    },
    {
      "type": "name_match",
      "text": "dibenzo-p-dioxin",
      "confidence": 1.0,
      "uuid": "8bc7b9fd-d722-4be5-af1b-a8c4db467174",
      "name": "Dibenzo-p-dioxin",
      "url": "https://haz-map.com/Agents/4729",
      "category": "agents"
    },
    {
      "type": "name_match",
      "text": "octachlorodibenzo-p-dioxin",
      "confidence": 1.0,
      "uuid": "4454e4a1-c767-4dc7-a19e-88ab53bf5ea9",
      "name": "Octachlorodibenzo-p-dioxin",
      "url": "https://haz-map.com/Agents/6426",
      "category": "agents"
    },
    {
      "type": "name_match",
      "text": "tetrachlorodibenzo-p-dioxin",
      "confidence": 1.0,
      "uuid": "c540fc3f-af1e-43e1-a7ed-a72d9c5877b5",
      "name": "Tetrachlorodibenzo-p-dioxin",
      "url": "https://haz-map.com/Agents/7336",
      "category": "agents"
    },
    {
      "type": "name_match",
      "text": "chlorin",
      "confidence": 1.0,
      "uuid": "4a566fec-ec7e-42b0-9f14-ec586335e694",
      "name": "Chlorin",
      "url": "https://haz-map.com/Agents/20422",
      "category": "agents"
    }
  ],
  "all_links": [
    {
      "text": "Search PubMed",
      "url": "https://www.ncbi.nlm.nih.gov/pubmed?term=Octachlorodibenzo-p-dioxin%20AND%20human%5Bmh%5D%20AND%20%28Occupational%20Diseases%20%5Bmh%5D%20OR%20Occupational%20Exposure%20%5Bmh%5D%29%20%20AND%20%28tox%5Bsb%5D%29&cmd=search"
    },
    {
      "text": "Chloracne",
      "url": "https://haz-map.com/Diseases/215"
    },
    {
      "text": "Farming (Pesticides)",
      "url": "https://haz-map.com/Processes/218"
    }
  ]
}