{
  "metadata": {
    "scraped_from": "https://haz-map.com/Agents/19135",
    "entity_name": "L-alpha-Methylbenzylamine",
    "category": "agents",
    "uuid": "447ffbac-5459-45a2-98eb-4a80ddc41841",
    "scraped_at": "2025-07-23T22:00:10.608967"
  },
  "parsed_at": "2025-07-24T01:14:39.355164",
  "title": "L-alpha-Methylbenzylamine",
  "sections": {
    "general": {
      "agent_name": {
        "original_name": "Agent Name",
        "value": "L-alpha-Methylbenzylamine",
        "links": [],
        "cross_references": [
          {
            "type": "name_match",
            "text": "benzylamine",
            "confidence": 1.0,
            "uuid": "e3ff102c-c372-46ae-ab9f-a1fd3d630249",
            "name": "Benzylamine",
            "url": "https://haz-map.com/Agents/1380",
            "category": "agents"
          },
          {
            "type": "name_match",
            "text": "alpha-methylbenzylamine",
            "confidence": 1.0,
            "uuid": "21873f7f-505b-4a1f-8876-0d1d70289f95",
            "name": "alpha-Methylbenzylamine",
            "url": "https://haz-map.com/Agents/3588",
            "category": "agents"
          },
          {
            "type": "name_match",
            "text": "l-alpha-methylbenzylamine",
            "confidence": 1.0,
            "uuid": "447ffbac-5459-45a2-98eb-4a80ddc41841",
            "name": "L-alpha-Methylbenzylamine",
            "url": "https://haz-map.com/Agents/19135",
            "category": "agents"
          }
        ]
      },
      "cas_number": {
        "original_name": "CAS Number",
        "value": "2627-86-3",
        "links": [],
        "cross_references": []
      },
      "formula": {
        "original_name": "Formula",
        "value": "C8-H11-N",
        "links": [],
        "cross_references": []
      },
      "major_category": {
        "original_name": "Major Category",
        "value": "Nitrogen Compounds",
        "links": [],
        "cross_references": [
          {
            "type": "name_match",
            "text": "nitrogen",
            "confidence": 1.0,
            "uuid": "db5e90a9-06d2-45b9-8b81-f345a89b0bc0",
            "name": "Nitrogen",
            "url": "https://haz-map.com/Agents/1072",
            "category": "agents"
          }
        ]
      },
      "synonyms": {
        "original_name": "Synonyms",
        "value": "(S)-alpha-Methylbenzenemethanamine; Benzenemethanamine, alpha-methyl-, (alphaS)-; [ChemIDplus] (S)-(-)-alpha-Methylbenzylamine; (S)-(-)-1-Phenylethanamine; [Sigma-Aldrich MSDS] UN2922",
        "links": [],
        "cross_references": [
          {
            "type": "name_match",
            "text": "benzene",
            "confidence": 1.0,
            "uuid": "b05124de-5f34-4c14-8f04-ccb20c3780d9",
            "name": "Benzene",
            "url": "https://haz-map.com/Agents/5",
            "category": "agents"
          },
          {
            "type": "name_match",
            "text": "benzylamine",
            "confidence": 1.0,
            "uuid": "e3ff102c-c372-46ae-ab9f-a1fd3d630249",
            "name": "Benzylamine",
            "url": "https://haz-map.com/Agents/1380",
            "category": "agents"
          },
          {
            "type": "name_match",
            "text": "alpha-methylbenzylamine",
            "confidence": 1.0,
            "uuid": "21873f7f-505b-4a1f-8876-0d1d70289f95",
            "name": "alpha-Methylbenzylamine",
            "url": "https://haz-map.com/Agents/3588",
            "category": "agents"
          }
        ]
      },
      "category": {
        "original_name": "Category",
        "value": "Amines, Aromatic",
        "links": [],
        "cross_references": []
      },
      "description": {
        "original_name": "Description",
        "value": "Colorless hygroscopic liquid; [Sigma-Aldrich MSDS]",
        "links": [],
        "cross_references": []
      },
      "sourcesuses": {
        "original_name": "Sources/Uses",
        "value": "Used as an intermediate; [ECHA REACH Registrations]",
        "links": [],
        "cross_references": []
      },
      "comments": {
        "original_name": "Comments",
        "value": "Causes burns; Harmful by ingestion and skin absorption; [ECHA REACH Registrations] Causes burns; Inhalation may cause corrosive injuries to upper respiratory tract; Harmful by ingestion; Toxic by skin absorption; [Sigma-Aldrich MSDS] See \"N-Methylbenzylamine.\"",
        "links": [],
        "cross_references": [
          {
            "type": "name_match",
            "text": "burn",
            "confidence": 1.0,
            "uuid": "63665de5-6376-4918-8dbf-4c10c4d63837",
            "name": "burn",
            "url": "https://haz-map.com/Findings/204",
            "category": "findings"
          },
          {
            "type": "name_match",
            "text": "benzylamine",
            "confidence": 1.0,
            "uuid": "e3ff102c-c372-46ae-ab9f-a1fd3d630249",
            "name": "Benzylamine",
            "url": "https://haz-map.com/Agents/1380",
            "category": "agents"
          },
          {
            "type": "name_match",
            "text": "n-methylbenzylamine",
            "confidence": 1.0,
            "uuid": "2aae6079-8ade-4235-b669-7acbedcb721a",
            "name": "N-Methylbenzylamine",
            "url": "https://haz-map.com/Agents/15591",
            "category": "agents"
          }
        ]
      },
      "biomedical_references": {
        "original_name": "Biomedical References",
        "value": "Search PubMed",
        "links": [
          {
            "text": "Search PubMed",
            "url": "https://www.ncbi.nlm.nih.gov/pubmed?term=L-alpha-Methylbenzylamine%20AND%20human%5Bmh%5D%20AND%20%28Occupational%20Diseases%20%5Bmh%5D%20OR%20Occupational%20Exposure%20%5Bmh%5D%29%20%20AND%20%28tox%5Bsb%5D%29&cmd=search"
          }
        ],
        "cross_references": []
      }
    },
    "exposure_assessment": {
      "vapor_pressure": {
        "original_name": "Vapor Pressure",
        "value": "0.5 mm Hg",
        "links": [],
        "cross_references": []
      },
      "explanatory_notes": {
        "original_name": "Explanatory Notes",
        "value": "The Guide in the Emergency Response Guidebook is for \"Corrosive liquid, toxic, n.o.s.\"",
        "links": [],
        "cross_references": []
      }
    },
    "adverse_effects": {
      "dermatotoxin": {
        "original_name": "Dermatotoxin",
        "value": "Skin burns",
        "links": [],
        "cross_references": [
          {
            "type": "name_match",
            "text": "burn",
            "confidence": 1.0,
            "uuid": "63665de5-6376-4918-8dbf-4c10c4d63837",
            "name": "burn",
            "url": "https://haz-map.com/Findings/204",
            "category": "findings"
          }
        ]
      }
    },
    "diseases_processes_and_activities_linked_to_this_agent": {
      "other_information": {
        "original_name": "Other Information",
        "value": "No other related information on this agent was found.",
        "links": [],
        "cross_references": []
      }
    }
  },
  "cross_references": [
    {
      "type": "name_match",
      "text": "burn",
      "confidence": 1.0,
      "uuid": "63665de5-6376-4918-8dbf-4c10c4d63837",
      "name": "burn",
      "url": "https://haz-map.com/Findings/204",
      "category": "findings"
    },
    {
      "type": "name_match",
      "text": "benzene",
      "confidence": 1.0,
      "uuid": "b05124de-5f34-4c14-8f04-ccb20c3780d9",
      "name": "Benzene",
      "url": "https://haz-map.com/Agents/5",
      "category": "agents"
    },
    {
      "type": "name_match",
      "text": "nitrogen",
      "confidence": 1.0,
      "uuid": "db5e90a9-06d2-45b9-8b81-f345a89b0bc0",
      "name": "Nitrogen",
      "url": "https://haz-map.com/Agents/1072",
      "category": "agents"
    },
    {
      "type": "name_match",
      "text": "benzylamine",
      "confidence": 1.0,
      "uuid": "e3ff102c-c372-46ae-ab9f-a1fd3d630249",
      "name": "Benzylamine",
      "url": "https://haz-map.com/Agents/1380",
      "category": "agents"
    },
    {
      "type": "name_match",
      "text": "alpha-methylbenzylamine",
      "confidence": 1.0,
      "uuid": "21873f7f-505b-4a1f-8876-0d1d70289f95",
      "name": "alpha-Methylbenzylamine",
      "url": "https://haz-map.com/Agents/3588",
      "category": "agents"
    },
    {
      "type": "name_match",
      "text": "n-methylbenzylamine",
      "confidence": 1.0,
      "uuid": "2aae6079-8ade-4235-b669-7acbedcb721a",
      "name": "N-Methylbenzylamine",
      "url": "https://haz-map.com/Agents/15591",
      "category": "agents"
    },
    {
      "type": "name_match",
      "text": "l-alpha-methylbenzylamine",
      "confidence": 1.0,
      "uuid": "447ffbac-5459-45a2-98eb-4a80ddc41841",
      "name": "L-alpha-Methylbenzylamine",
      "url": "https://haz-map.com/Agents/19135",
      "category": "agents"
    }
  ],
  "all_links": [
    {
      "text": "Search PubMed",
      "url": "https://www.ncbi.nlm.nih.gov/pubmed?term=L-alpha-Methylbenzylamine%20AND%20human%5Bmh%5D%20AND%20%28Occupational%20Diseases%20%5Bmh%5D%20OR%20Occupational%20Exposure%20%5Bmh%5D%29%20%20AND%20%28tox%5Bsb%5D%29&cmd=search"
    }
  ]
}