{
  "metadata": {
    "scraped_from": "https://haz-map.com/Agents/15604",
    "entity_name": "Methylhexahydrophthalic anhydride",
    "category": "agents",
    "uuid": "44ed7e30-1d21-4051-97dc-d92f8b42186a",
    "scraped_at": "2025-07-23T21:31:03.832871"
  },
  "parsed_at": "2025-07-24T01:08:01.968482",
  "title": "Methylhexahydrophthalic anhydride",
  "sections": {
    "general": {
      "agent_name": {
        "original_name": "Agent Name",
        "value": "Methylhexahydrophthalic anhydride",
        "links": [],
        "cross_references": [
          {
            "type": "name_match",
            "text": "phthalic anhydride",
            "confidence": 1.0,
            "uuid": "1bda4d65-bf7f-4775-add4-a93906dcc2db",
            "name": "Phthalic anhydride",
            "url": "https://haz-map.com/Agents/599",
            "category": "agents"
          },
          {
            "type": "name_match",
            "text": "ht",
            "confidence": 1.0,
            "uuid": "764df367-8d53-4a11-81a2-31ccfe122a8d",
            "name": "HT",
            "url": "https://haz-map.com/Agents/2168",
            "category": "agents"
          },
          {
            "type": "name_match",
            "text": "methylhexahydrophthalic anhydride",
            "confidence": 1.0,
            "uuid": "44ed7e30-1d21-4051-97dc-d92f8b42186a",
            "name": "Methylhexahydrophthalic anhydride",
            "url": "https://haz-map.com/Agents/15604",
            "category": "agents"
          },
          {
            "type": "fuzzy_match",
            "text": "hexahydrophthalic anhydride",
            "matched_name": "Hexahydrophthalic anhydride, all isomers",
            "confidence": 0.7541666666666667,
            "uuid": "0bd9c855-7d15-4461-89a4-d5c43b0be99a",
            "category": "agents",
            "url": "https://haz-map.com/Agents/797"
          }
        ]
      },
      "cas_number": {
        "original_name": "CAS Number",
        "value": "25550-51-0",
        "links": [],
        "cross_references": []
      },
      "formula": {
        "original_name": "Formula",
        "value": "C9-H12-O3",
        "links": [],
        "cross_references": []
      },
      "major_category": {
        "original_name": "Major Category",
        "value": "Plastics & Rubber",
        "links": [],
        "cross_references": []
      },
      "synonyms": {
        "original_name": "Synonyms",
        "value": "1,3-Isobenzofurandione, hexahydromethyl-; Hexahydromethylphthalic anhydride; 1,2-Cyclohexanedicarboxylic anhydride, methyl-; [ChemIDplus] Methylhexahydrophthalic acid anhydride; Hexahydromethylphthalic acid anhydride; MHHPA; [ICSC]",
        "links": [],
        "cross_references": [
          {
            "type": "name_match",
            "text": "cyclohexane",
            "confidence": 1.0,
            "uuid": "366fabd7-ac2f-461c-969f-62dfe3bf2377",
            "name": "Cyclohexane",
            "url": "https://haz-map.com/Agents/384",
            "category": "agents"
          },
          {
            "type": "name_match",
            "text": "phthalic anhydride",
            "confidence": 1.0,
            "uuid": "1bda4d65-bf7f-4775-add4-a93906dcc2db",
            "name": "Phthalic anhydride",
            "url": "https://haz-map.com/Agents/599",
            "category": "agents"
          },
          {
            "type": "name_match",
            "text": "furan",
            "confidence": 1.0,
            "uuid": "96da3d2e-f46b-4100-9000-704d1a86985b",
            "name": "Furan",
            "url": "https://haz-map.com/Agents/1477",
            "category": "agents"
          },
          {
            "type": "name_match",
            "text": "ht",
            "confidence": 1.0,
            "uuid": "764df367-8d53-4a11-81a2-31ccfe122a8d",
            "name": "HT",
            "url": "https://haz-map.com/Agents/2168",
            "category": "agents"
          },
          {
            "type": "name_match",
            "text": "benzofuran",
            "confidence": 1.0,
            "uuid": "433f9324-e799-4045-b9dc-d8468b9b9b05",
            "name": "Benzofuran",
            "url": "https://haz-map.com/Agents/3855",
            "category": "agents"
          },
          {
            "type": "name_match",
            "text": "phthalic acid",
            "confidence": 1.0,
            "uuid": "f19ac6b5-df06-48aa-81e6-825cdcfe8f9c",
            "name": "Phthalic acid",
            "url": "https://haz-map.com/Agents/6702",
            "category": "agents"
          },
          {
            "type": "name_match",
            "text": "hexahydrophthalic acid",
            "confidence": 1.0,
            "uuid": "9b3aa01a-e192-48e6-b29f-a207e3d85f7e",
            "name": "Hexahydrophthalic acid",
            "url": "https://haz-map.com/Agents/20999",
            "category": "agents"
          }
        ]
      },
      "category": {
        "original_name": "Category",
        "value": "Acid Anhydrides, Cyclic",
        "links": [],
        "cross_references": [
          {
            "type": "name_match",
            "text": "acid anhydrides",
            "confidence": 1.0,
            "uuid": "541f6a39-e623-4b95-8854-3d5fe27fdeca",
            "name": "ACID ANHYDRIDES",
            "url": "https://haz-map.com/Agents/744",
            "category": "agents"
          }
        ]
      },
      "description": {
        "original_name": "Description",
        "value": "Colorless liquid; [ICSC] Clear liquid; Irritating odor when hot; [Dixie Chemical MSDS]",
        "links": [],
        "cross_references": [
          {
            "type": "name_match",
            "text": "mica",
            "confidence": 1.0,
            "uuid": "433f26f1-c399-4596-b179-ce3843cfd465",
            "name": "Mica",
            "url": "https://haz-map.com/Agents/621",
            "category": "agents"
          }
        ]
      },
      "sourcesuses": {
        "original_name": "Sources/Uses",
        "value": "Cyclic acid anhydrides: Used to make polyester and alkyd resins, plasticizers, and as epoxy resin hardeners; [Reference #1]",
        "links": [],
        "cross_references": [
          {
            "type": "name_match",
            "text": "acid anhydrides",
            "confidence": 1.0,
            "uuid": "541f6a39-e623-4b95-8854-3d5fe27fdeca",
            "name": "ACID ANHYDRIDES",
            "url": "https://haz-map.com/Agents/744",
            "category": "agents"
          }
        ]
      },
      "comments": {
        "original_name": "Comments",
        "value": "Slowly decomposed by water forming acids; A skin and severe eye irritant; May cause skin and respiratory sensitization; [ICSC] Cyclic acid anhydrides can cause irritation and sensitization by dermal, mucous membrane, and inhalation from occupational exposure; The most common allergic diseases reported are rhinoconjunctivitis and asthma, allergic contact dermatitis is rare; [Reference #1] Reacts slowly with water; May cause severe eye irritation, corneal injury, and burns; Prolonged skin contact may cause severe irritation and burns; May cause skin and respiratory sensitization; Chronic inhalation exposure may cause bronchitis and asthma; [Dixie Chemical MSDS] See \"ACID ANHYDRIDES.\" See \"Hexahydrophthalic anhydride.\"",
        "links": [],
        "cross_references": [
          {
            "type": "name_match",
            "text": "dermatitis",
            "confidence": 1.0,
            "uuid": "fe9c05f2-b19f-4ceb-ac7a-ffb7d7a0cae0",
            "name": "dermatitis",
            "url": "https://haz-map.com/Findings/59",
            "category": "findings"
          },
          {
            "type": "name_match",
            "text": "burn",
            "confidence": 1.0,
            "uuid": "63665de5-6376-4918-8dbf-4c10c4d63837",
            "name": "burn",
            "url": "https://haz-map.com/Findings/204",
            "category": "findings"
          },
          {
            "type": "name_match",
            "text": "phthalic anhydride",
            "confidence": 1.0,
            "uuid": "1bda4d65-bf7f-4775-add4-a93906dcc2db",
            "name": "Phthalic anhydride",
            "url": "https://haz-map.com/Agents/599",
            "category": "agents"
          },
          {
            "type": "name_match",
            "text": "mica",
            "confidence": 1.0,
            "uuid": "433f26f1-c399-4596-b179-ce3843cfd465",
            "name": "Mica",
            "url": "https://haz-map.com/Agents/621",
            "category": "agents"
          },
          {
            "type": "name_match",
            "text": "acid anhydrides",
            "confidence": 1.0,
            "uuid": "541f6a39-e623-4b95-8854-3d5fe27fdeca",
            "name": "ACID ANHYDRIDES",
            "url": "https://haz-map.com/Agents/744",
            "category": "agents"
          },
          {
            "type": "name_match",
            "text": "ht",
            "confidence": 1.0,
            "uuid": "764df367-8d53-4a11-81a2-31ccfe122a8d",
            "name": "HT",
            "url": "https://haz-map.com/Agents/2168",
            "category": "agents"
          },
          {
            "type": "name_match",
            "text": "water",
            "confidence": 1.0,
            "uuid": "6f2a7557-dfd2-49bc-9b4b-a93cd8e225d4",
            "name": "Water",
            "url": "https://haz-map.com/Agents/18668",
            "category": "agents"
          },
          {
            "type": "fuzzy_match",
            "text": "hexahydrophthalic anhydride",
            "matched_name": "Hexahydrophthalic anhydride, all isomers",
            "confidence": 0.7541666666666667,
            "uuid": "0bd9c855-7d15-4461-89a4-d5c43b0be99a",
            "category": "agents",
            "url": "https://haz-map.com/Agents/797"
          },
          {
            "type": "fuzzy_match",
            "text": "contact dermatitis",
            "matched_name": "Contact dermatitis, allergic",
            "confidence": 0.7214285714285715,
            "uuid": "c9499de0-9aa1-41bf-8753-cd5b28a63e29",
            "category": "diseases",
            "url": "https://haz-map.com/Diseases/18"
          }
        ]
      },
      "reference_link_1": {
        "original_name": "Reference Link #1",
        "value": "INCHEM CICAD: Cyclic Acid Anhydrides - 2009",
        "links": [
          {
            "text": "INCHEM CICAD: Cyclic Acid Anhydrides - 2009",
            "url": "http://www.inchem.org/documents/cicads/cicads/cicad75.pdf"
          }
        ],
        "cross_references": [
          {
            "type": "name_match",
            "text": "acid anhydrides",
            "confidence": 1.0,
            "uuid": "541f6a39-e623-4b95-8854-3d5fe27fdeca",
            "name": "ACID ANHYDRIDES",
            "url": "https://haz-map.com/Agents/744",
            "category": "agents"
          }
        ]
      },
      "biomedical_references": {
        "original_name": "Biomedical References",
        "value": "Search PubMed",
        "links": [
          {
            "text": "Search PubMed",
            "url": "https://www.ncbi.nlm.nih.gov/pubmed?term=Methylhexahydrophthalic+anhydride%20AND%20human%5Bmh%5D%20AND%20%28Occupational%20Diseases%20%5Bmh%5D%20OR%20Occupational%20Exposure%20%5Bmh%5D%29%20%20AND%20%28tox%5Bsb%5D%29&cmd=search"
          }
        ],
        "cross_references": []
      }
    },
    "exposure_assessment": {
      "vapor_pressure": {
        "original_name": "Vapor Pressure",
        "value": "0.007 mm Hg",
        "links": [],
        "cross_references": []
      }
    },
    "adverse_effects": {
      "skin_sensitizer": {
        "original_name": "Skin Sensitizer",
        "value": "Yes",
        "links": [],
        "cross_references": []
      },
      "asthma": {
        "original_name": "Asthma",
        "value": "Yes",
        "links": [],
        "cross_references": []
      },
      "dermatotoxin": {
        "original_name": "Dermatotoxin",
        "value": "Skin burns",
        "links": [],
        "cross_references": [
          {
            "type": "name_match",
            "text": "burn",
            "confidence": 1.0,
            "uuid": "63665de5-6376-4918-8dbf-4c10c4d63837",
            "name": "burn",
            "url": "https://haz-map.com/Findings/204",
            "category": "findings"
          }
        ]
      }
    },
    "diseases_processes_and_activities_linked_to_this_agent": {
      "diseases": {
        "original_name": "Diseases",
        "value": "Occupational diseases associated with exposure to this agent: Asthma, occupational Contact dermatitis, allergic",
        "links": [
          {
            "text": "Asthma, occupational",
            "url": "https://haz-map.com/Diseases/23"
          },
          {
            "text": "Contact dermatitis, allergic",
            "url": "https://haz-map.com/Diseases/18"
          }
        ],
        "cross_references": [
          {
            "type": "url_match",
            "text": "Asthma, occupational",
            "url": "https://haz-map.com/Diseases/23",
            "confidence": 1.0,
            "uuid": "29c464cb-36b2-43d8-b6fc-e19a0ea695cb",
            "name": "Asthma, occupational",
            "category": "diseases"
          },
          {
            "type": "url_match",
            "text": "Contact dermatitis, allergic",
            "url": "https://haz-map.com/Diseases/18",
            "confidence": 1.0,
            "uuid": "c9499de0-9aa1-41bf-8753-cd5b28a63e29",
            "name": "Contact dermatitis, allergic",
            "category": "diseases"
          },
          {
            "type": "name_match",
            "text": "dermatitis",
            "confidence": 1.0,
            "uuid": "fe9c05f2-b19f-4ceb-ac7a-ffb7d7a0cae0",
            "name": "dermatitis",
            "url": "https://haz-map.com/Findings/59",
            "category": "findings"
          }
        ]
      },
      "processes": {
        "original_name": "Processes",
        "value": "Industrial Processes with risk of exposure: Plastic Composites Manufacturing",
        "links": [
          {
            "text": "Plastic Composites Manufacturing",
            "url": "https://haz-map.com/Processes/222"
          }
        ],
        "cross_references": [
          {
            "type": "url_match",
            "text": "Plastic Composites Manufacturing",
            "url": "https://haz-map.com/Processes/222",
            "confidence": 1.0,
            "uuid": "d4461b82-dc77-4172-8e3d-0a5e3b213911",
            "name": "Plastic Composites Manufacturing",
            "category": "processes"
          }
        ]
      }
    }
  },
  "cross_references": [
    {
      "type": "url_match",
      "text": "Asthma, occupational",
      "url": "https://haz-map.com/Diseases/23",
      "confidence": 1.0,
      "uuid": "29c464cb-36b2-43d8-b6fc-e19a0ea695cb",
      "name": "Asthma, occupational",
      "category": "diseases"
    },
    {
      "type": "url_match",
      "text": "Contact dermatitis, allergic",
      "url": "https://haz-map.com/Diseases/18",
      "confidence": 1.0,
      "uuid": "c9499de0-9aa1-41bf-8753-cd5b28a63e29",
      "name": "Contact dermatitis, allergic",
      "category": "diseases"
    },
    {
      "type": "url_match",
      "text": "Plastic Composites Manufacturing",
      "url": "https://haz-map.com/Processes/222",
      "confidence": 1.0,
      "uuid": "d4461b82-dc77-4172-8e3d-0a5e3b213911",
      "name": "Plastic Composites Manufacturing",
      "category": "processes"
    },
    {
      "type": "name_match",
      "text": "dermatitis",
      "confidence": 1.0,
      "uuid": "fe9c05f2-b19f-4ceb-ac7a-ffb7d7a0cae0",
      "name": "dermatitis",
      "url": "https://haz-map.com/Findings/59",
      "category": "findings"
    },
    {
      "type": "name_match",
      "text": "burn",
      "confidence": 1.0,
      "uuid": "63665de5-6376-4918-8dbf-4c10c4d63837",
      "name": "burn",
      "url": "https://haz-map.com/Findings/204",
      "category": "findings"
    },
    {
      "type": "name_match",
      "text": "cyclohexane",
      "confidence": 1.0,
      "uuid": "366fabd7-ac2f-461c-969f-62dfe3bf2377",
      "name": "Cyclohexane",
      "url": "https://haz-map.com/Agents/384",
      "category": "agents"
    },
    {
      "type": "name_match",
      "text": "phthalic anhydride",
      "confidence": 1.0,
      "uuid": "1bda4d65-bf7f-4775-add4-a93906dcc2db",
      "name": "Phthalic anhydride",
      "url": "https://haz-map.com/Agents/599",
      "category": "agents"
    },
    {
      "type": "name_match",
      "text": "mica",
      "confidence": 1.0,
      "uuid": "433f26f1-c399-4596-b179-ce3843cfd465",
      "name": "Mica",
      "url": "https://haz-map.com/Agents/621",
      "category": "agents"
    },
    {
      "type": "name_match",
      "text": "acid anhydrides",
      "confidence": 1.0,
      "uuid": "541f6a39-e623-4b95-8854-3d5fe27fdeca",
      "name": "ACID ANHYDRIDES",
      "url": "https://haz-map.com/Agents/744",
      "category": "agents"
    },
    {
      "type": "name_match",
      "text": "furan",
      "confidence": 1.0,
      "uuid": "96da3d2e-f46b-4100-9000-704d1a86985b",
      "name": "Furan",
      "url": "https://haz-map.com/Agents/1477",
      "category": "agents"
    },
    {
      "type": "name_match",
      "text": "ht",
      "confidence": 1.0,
      "uuid": "764df367-8d53-4a11-81a2-31ccfe122a8d",
      "name": "HT",
      "url": "https://haz-map.com/Agents/2168",
      "category": "agents"
    },
    {
      "type": "name_match",
      "text": "benzofuran",
      "confidence": 1.0,
      "uuid": "433f9324-e799-4045-b9dc-d8468b9b9b05",
      "name": "Benzofuran",
      "url": "https://haz-map.com/Agents/3855",
      "category": "agents"
    },
    {
      "type": "name_match",
      "text": "phthalic acid",
      "confidence": 1.0,
      "uuid": "f19ac6b5-df06-48aa-81e6-825cdcfe8f9c",
      "name": "Phthalic acid",
      "url": "https://haz-map.com/Agents/6702",
      "category": "agents"
    },
    {
      "type": "name_match",
      "text": "methylhexahydrophthalic anhydride",
      "confidence": 1.0,
      "uuid": "44ed7e30-1d21-4051-97dc-d92f8b42186a",
      "name": "Methylhexahydrophthalic anhydride",
      "url": "https://haz-map.com/Agents/15604",
      "category": "agents"
    },
    {
      "type": "name_match",
      "text": "water",
      "confidence": 1.0,
      "uuid": "6f2a7557-dfd2-49bc-9b4b-a93cd8e225d4",
      "name": "Water",
      "url": "https://haz-map.com/Agents/18668",
      "category": "agents"
    },
    {
      "type": "name_match",
      "text": "hexahydrophthalic acid",
      "confidence": 1.0,
      "uuid": "9b3aa01a-e192-48e6-b29f-a207e3d85f7e",
      "name": "Hexahydrophthalic acid",
      "url": "https://haz-map.com/Agents/20999",
      "category": "agents"
    },
    {
      "type": "fuzzy_match",
      "text": "hexahydrophthalic anhydride",
      "matched_name": "Hexahydrophthalic anhydride, all isomers",
      "confidence": 0.7541666666666667,
      "uuid": "0bd9c855-7d15-4461-89a4-d5c43b0be99a",
      "category": "agents",
      "url": "https://haz-map.com/Agents/797"
    }
  ],
  "all_links": [
    {
      "text": "INCHEM CICAD: Cyclic Acid Anhydrides - 2009",
      "url": "http://www.inchem.org/documents/cicads/cicads/cicad75.pdf"
    },
    {
      "text": "Search PubMed",
      "url": "https://www.ncbi.nlm.nih.gov/pubmed?term=Methylhexahydrophthalic+anhydride%20AND%20human%5Bmh%5D%20AND%20%28Occupational%20Diseases%20%5Bmh%5D%20OR%20Occupational%20Exposure%20%5Bmh%5D%29%20%20AND%20%28tox%5Bsb%5D%29&cmd=search"
    },
    {
      "text": "Asthma, occupational",
      "url": "https://haz-map.com/Diseases/23"
    },
    {
      "text": "Contact dermatitis, allergic",
      "url": "https://haz-map.com/Diseases/18"
    },
    {
      "text": "Plastic Composites Manufacturing",
      "url": "https://haz-map.com/Processes/222"
    }
  ]
}