{
  "metadata": {
    "scraped_from": "https://haz-map.com/Agents/6371",
    "entity_name": "N,N-Diethyl-p-phenylenediamine",
    "category": "agents",
    "uuid": "4503239f-ab1c-4e33-becb-69ddbe6052ec",
    "scraped_at": "2025-07-23T20:01:11.912471"
  },
  "parsed_at": "2025-07-24T01:18:38.820219",
  "title": "N,N-Diethyl-p-phenylenediamine",
  "sections": {
    "general": {
      "agent_name": {
        "original_name": "Agent Name",
        "value": "N,N-Diethyl-p-phenylenediamine",
        "links": [],
        "cross_references": [
          {
            "type": "name_match",
            "text": "p-phenylenediamine",
            "confidence": 1.0,
            "uuid": "6eea604e-32b5-4d94-9c0d-591b37a6c204",
            "name": "p-Phenylenediamine",
            "url": "https://haz-map.com/Agents/229",
            "category": "agents"
          },
          {
            "type": "name_match",
            "text": "n,n-diethyl-p-phenylenediamine",
            "confidence": 1.0,
            "uuid": "4503239f-ab1c-4e33-becb-69ddbe6052ec",
            "name": "N,N-Diethyl-p-phenylenediamine",
            "url": "https://haz-map.com/Agents/6371",
            "category": "agents"
          }
        ]
      },
      "cas_number": {
        "original_name": "CAS Number",
        "value": "93-05-0",
        "links": [],
        "cross_references": []
      },
      "formula": {
        "original_name": "Formula",
        "value": "C10-H16-N2",
        "links": [],
        "cross_references": []
      },
      "major_category": {
        "original_name": "Major Category",
        "value": "Nitrogen Compounds",
        "links": [],
        "cross_references": [
          {
            "type": "name_match",
            "text": "nitrogen",
            "confidence": 1.0,
            "uuid": "db5e90a9-06d2-45b9-8b81-f345a89b0bc0",
            "name": "Nitrogen",
            "url": "https://haz-map.com/Agents/1072",
            "category": "agents"
          }
        ]
      },
      "synonyms": {
        "original_name": "Synonyms",
        "value": "1,4-Benzenediamine, N,N-diethyl-; 4-(Diethylamino)aniline; 4-Amino-N,N-diethylaniline; Diethyl-p-phenylenediamine; Diethyl-para-phenylenediamine; Diethylaminoaniline; N,N-Diethyl-1,4-benzenediamine; N,N-Diethyl-4-aminoaniline; N,N-Diethyl-4-phenylenediamine; N,N-Diethyl-para-phenylenediamine; p-(Diethylamino)aniline; p-Amino-N,N-diethylaniline; p-Aminodiethylaniline; p-Phenylenediamine, N,N-diethyl-; para-Aminodiethylaniline; [ChemIDplus]",
        "links": [],
        "cross_references": [
          {
            "type": "name_match",
            "text": "benzene",
            "confidence": 1.0,
            "uuid": "b05124de-5f34-4c14-8f04-ccb20c3780d9",
            "name": "Benzene",
            "url": "https://haz-map.com/Agents/5",
            "category": "agents"
          },
          {
            "type": "name_match",
            "text": "p-phenylenediamine",
            "confidence": 1.0,
            "uuid": "6eea604e-32b5-4d94-9c0d-591b37a6c204",
            "name": "p-Phenylenediamine",
            "url": "https://haz-map.com/Agents/229",
            "category": "agents"
          },
          {
            "type": "name_match",
            "text": "aniline",
            "confidence": 1.0,
            "uuid": "e4932692-8d9c-4a98-8c5c-81e55b12aedf",
            "name": "Aniline",
            "url": "https://haz-map.com/Agents/296",
            "category": "agents"
          },
          {
            "type": "name_match",
            "text": "n,n-diethylaniline",
            "confidence": 1.0,
            "uuid": "5f6e596b-e07c-4398-9cef-52df5a8991b0",
            "name": "N,N-Diethylaniline",
            "url": "https://haz-map.com/Agents/8382",
            "category": "agents"
          }
        ]
      },
      "category": {
        "original_name": "Category",
        "value": "Amines, Aromatic",
        "links": [],
        "cross_references": []
      },
      "description": {
        "original_name": "Description",
        "value": "Pale yellow liquid; [HSDB] Reddish-brown or black liquid; [CAMEO] Pale yellow liquid; Turns dark brown on exposure to light and air; [CHEMINFO] Clear very deep brown liquid; [MSDSonline]",
        "links": [],
        "cross_references": [
          {
            "type": "name_match",
            "text": "ht",
            "confidence": 1.0,
            "uuid": "764df367-8d53-4a11-81a2-31ccfe122a8d",
            "name": "HT",
            "url": "https://haz-map.com/Agents/2168",
            "category": "agents"
          }
        ]
      },
      "sourcesuses": {
        "original_name": "Sources/Uses",
        "value": "Used as a dye intermediate and in diazo copying processes; [Hawley] Used as an antioxidant/antiozonant, as a developing agent in color photography, and in organic synthesis; [CHEMINFO]",
        "links": [],
        "cross_references": []
      },
      "comments": {
        "original_name": "Comments",
        "value": "May cause allergic dermatitis, irritation, and hemorrhage on skin contact; May induce methemoglobinemia; [HSDB] A severe eye irritant, based on animal studies; May cause skin sensitization after prolonged contact, based on a related compound; [CHEMINFO] Can cause burns; [eChemPortal: ESIS] A severe eye irritant; Causes general anesthesia, convulsions, and cyanosis in dermal lethal-dose study of rabbits; Causes convulsions in oral lethal-dose study of cats; [RTECS] Causes burns; Toxic if ingested; May be harmful if absorbed through skin; [Aldrich MSDS]",
        "links": [],
        "cross_references": [
          {
            "type": "name_match",
            "text": "convulsion",
            "confidence": 1.0,
            "uuid": "af2c36f8-707a-48e3-a62b-1aa07adc9b72",
            "name": "convulsion",
            "url": "https://haz-map.com/Findings/14",
            "category": "findings"
          },
          {
            "type": "name_match",
            "text": "dermatitis",
            "confidence": 1.0,
            "uuid": "fe9c05f2-b19f-4ceb-ac7a-ffb7d7a0cae0",
            "name": "dermatitis",
            "url": "https://haz-map.com/Findings/59",
            "category": "findings"
          },
          {
            "type": "name_match",
            "text": "burn",
            "confidence": 1.0,
            "uuid": "63665de5-6376-4918-8dbf-4c10c4d63837",
            "name": "burn",
            "url": "https://haz-map.com/Findings/204",
            "category": "findings"
          },
          {
            "type": "name_match",
            "text": "methemoglobin",
            "confidence": 1.0,
            "uuid": "afb7ebf5-d2a3-4e60-8d2e-3a19456344ee",
            "name": "Methemoglobin",
            "url": "https://haz-map.com/Agents/15467",
            "category": "agents"
          },
          {
            "type": "fuzzy_match",
            "text": "methemoglobinemia",
            "matched_name": "Methemoglobinemia, acute",
            "confidence": 0.7208333333333333,
            "uuid": "473a44bd-cf11-4710-a769-e8e2b25ba317",
            "category": "diseases",
            "url": "https://haz-map.com/Diseases/210"
          }
        ]
      },
      "biomedical_references": {
        "original_name": "Biomedical References",
        "value": "Search PubMed",
        "links": [
          {
            "text": "Search PubMed",
            "url": "https://www.ncbi.nlm.nih.gov/pubmed?term=N%2cN-Diethyl-p-phenylenediamine%20AND%20human%5Bmh%5D%20AND%20%28Occupational%20Diseases%20%5Bmh%5D%20OR%20Occupational%20Exposure%20%5Bmh%5D%29%20%20AND%20%28tox%5Bsb%5D%29&cmd=search"
          }
        ],
        "cross_references": []
      }
    },
    "exposure_assessment": {
      "vapor_pressure": {
        "original_name": "Vapor Pressure",
        "value": "0.00298 mm Hg",
        "links": [],
        "cross_references": []
      },
      "explanatory_notes": {
        "original_name": "Explanatory Notes",
        "value": "VP from ChemIDplus;",
        "links": [],
        "cross_references": []
      }
    },
    "adverse_effects": {
      "methemoglobinemia": {
        "original_name": "Methemoglobinemia",
        "value": "MetHgb is secondary toxic effect",
        "links": [],
        "cross_references": []
      },
      "dermatotoxin": {
        "original_name": "Dermatotoxin",
        "value": "Skin burns",
        "links": [],
        "cross_references": [
          {
            "type": "name_match",
            "text": "burn",
            "confidence": 1.0,
            "uuid": "63665de5-6376-4918-8dbf-4c10c4d63837",
            "name": "burn",
            "url": "https://haz-map.com/Findings/204",
            "category": "findings"
          }
        ]
      }
    },
    "diseases_processes_and_activities_linked_to_this_agent": {
      "processes": {
        "original_name": "Processes",
        "value": "Industrial Processes with risk of exposure: Photographic Processing",
        "links": [
          {
            "text": "Photographic Processing",
            "url": "https://haz-map.com/Processes/231"
          }
        ],
        "cross_references": []
      }
    }
  },
  "cross_references": [
    {
      "type": "name_match",
      "text": "convulsion",
      "confidence": 1.0,
      "uuid": "af2c36f8-707a-48e3-a62b-1aa07adc9b72",
      "name": "convulsion",
      "url": "https://haz-map.com/Findings/14",
      "category": "findings"
    },
    {
      "type": "name_match",
      "text": "dermatitis",
      "confidence": 1.0,
      "uuid": "fe9c05f2-b19f-4ceb-ac7a-ffb7d7a0cae0",
      "name": "dermatitis",
      "url": "https://haz-map.com/Findings/59",
      "category": "findings"
    },
    {
      "type": "name_match",
      "text": "burn",
      "confidence": 1.0,
      "uuid": "63665de5-6376-4918-8dbf-4c10c4d63837",
      "name": "burn",
      "url": "https://haz-map.com/Findings/204",
      "category": "findings"
    },
    {
      "type": "name_match",
      "text": "benzene",
      "confidence": 1.0,
      "uuid": "b05124de-5f34-4c14-8f04-ccb20c3780d9",
      "name": "Benzene",
      "url": "https://haz-map.com/Agents/5",
      "category": "agents"
    },
    {
      "type": "name_match",
      "text": "p-phenylenediamine",
      "confidence": 1.0,
      "uuid": "6eea604e-32b5-4d94-9c0d-591b37a6c204",
      "name": "p-Phenylenediamine",
      "url": "https://haz-map.com/Agents/229",
      "category": "agents"
    },
    {
      "type": "name_match",
      "text": "aniline",
      "confidence": 1.0,
      "uuid": "e4932692-8d9c-4a98-8c5c-81e55b12aedf",
      "name": "Aniline",
      "url": "https://haz-map.com/Agents/296",
      "category": "agents"
    },
    {
      "type": "name_match",
      "text": "nitrogen",
      "confidence": 1.0,
      "uuid": "db5e90a9-06d2-45b9-8b81-f345a89b0bc0",
      "name": "Nitrogen",
      "url": "https://haz-map.com/Agents/1072",
      "category": "agents"
    },
    {
      "type": "name_match",
      "text": "ht",
      "confidence": 1.0,
      "uuid": "764df367-8d53-4a11-81a2-31ccfe122a8d",
      "name": "HT",
      "url": "https://haz-map.com/Agents/2168",
      "category": "agents"
    },
    {
      "type": "name_match",
      "text": "n,n-diethyl-p-phenylenediamine",
      "confidence": 1.0,
      "uuid": "4503239f-ab1c-4e33-becb-69ddbe6052ec",
      "name": "N,N-Diethyl-p-phenylenediamine",
      "url": "https://haz-map.com/Agents/6371",
      "category": "agents"
    },
    {
      "type": "name_match",
      "text": "n,n-diethylaniline",
      "confidence": 1.0,
      "uuid": "5f6e596b-e07c-4398-9cef-52df5a8991b0",
      "name": "N,N-Diethylaniline",
      "url": "https://haz-map.com/Agents/8382",
      "category": "agents"
    },
    {
      "type": "name_match",
      "text": "methemoglobin",
      "confidence": 1.0,
      "uuid": "afb7ebf5-d2a3-4e60-8d2e-3a19456344ee",
      "name": "Methemoglobin",
      "url": "https://haz-map.com/Agents/15467",
      "category": "agents"
    },
    {
      "type": "fuzzy_match",
      "text": "methemoglobinemia",
      "matched_name": "Methemoglobinemia, acute",
      "confidence": 0.7208333333333333,
      "uuid": "473a44bd-cf11-4710-a769-e8e2b25ba317",
      "category": "diseases",
      "url": "https://haz-map.com/Diseases/210"
    }
  ],
  "all_links": [
    {
      "text": "Search PubMed",
      "url": "https://www.ncbi.nlm.nih.gov/pubmed?term=N%2cN-Diethyl-p-phenylenediamine%20AND%20human%5Bmh%5D%20AND%20%28Occupational%20Diseases%20%5Bmh%5D%20OR%20Occupational%20Exposure%20%5Bmh%5D%29%20%20AND%20%28tox%5Bsb%5D%29&cmd=search"
    },
    {
      "text": "Photographic Processing",
      "url": "https://haz-map.com/Processes/231"
    }
  ]
}