{
  "metadata": {
    "scraped_from": "https://haz-map.com/Agents/2693",
    "entity_name": "1,1,2,3,3-Pentamethylindan",
    "category": "agents",
    "uuid": "4558d054-2400-4a24-8efe-5f22bf08c00d",
    "scraped_at": "2025-07-23T19:17:38.775480"
  },
  "parsed_at": "2025-07-24T01:11:35.018082",
  "title": "1,1,2,3,3-Pentamethylindan",
  "sections": {
    "general": {
      "agent_name": {
        "original_name": "Agent Name",
        "value": "1,1,2,3,3-Pentamethylindan",
        "links": [],
        "cross_references": [
          {
            "type": "name_match",
            "text": "1,1,2,3,3-pentamethylindan",
            "confidence": 1.0,
            "uuid": "4558d054-2400-4a24-8efe-5f22bf08c00d",
            "name": "1,1,2,3,3-Pentamethylindan",
            "url": "https://haz-map.com/Agents/2693",
            "category": "agents"
          },
          {
            "type": "name_match",
            "text": "indan",
            "confidence": 1.0,
            "uuid": "ebba867b-a993-436a-85fb-f7d1183da941",
            "name": "Indan",
            "url": "https://haz-map.com/Agents/19450",
            "category": "agents"
          }
        ]
      },
      "cas_number": {
        "original_name": "CAS Number",
        "value": "1203-17-4",
        "links": [],
        "cross_references": []
      },
      "formula": {
        "original_name": "Formula",
        "value": "C14-H20",
        "links": [],
        "cross_references": []
      },
      "major_category": {
        "original_name": "Major Category",
        "value": "Other Classes",
        "links": [],
        "cross_references": []
      },
      "synonyms": {
        "original_name": "Synonyms",
        "value": "1H-Indene, 2,3-dihydro-1,1,2,3,3-pentamethyl-; Indan, 1,1,2,3,3-pentamethyl-; [ChemIDplus]",
        "links": [],
        "cross_references": [
          {
            "type": "name_match",
            "text": "indene",
            "confidence": 1.0,
            "uuid": "abe76b78-2986-4d49-b6e5-d1ce49774b99",
            "name": "Indene",
            "url": "https://haz-map.com/Agents/520",
            "category": "agents"
          },
          {
            "type": "name_match",
            "text": "indan",
            "confidence": 1.0,
            "uuid": "ebba867b-a993-436a-85fb-f7d1183da941",
            "name": "Indan",
            "url": "https://haz-map.com/Agents/19450",
            "category": "agents"
          }
        ]
      },
      "category": {
        "original_name": "Category",
        "value": "Aromatic Hydrocarbons",
        "links": [],
        "cross_references": [
          {
            "type": "name_match",
            "text": "carbon",
            "confidence": 1.0,
            "uuid": "b53f8815-ee80-40ef-b4aa-3b000e17dab5",
            "name": "Carbon",
            "url": "https://haz-map.com/Agents/1891",
            "category": "agents"
          },
          {
            "type": "fuzzy_match",
            "text": "aromatic hydrocarbons",
            "matched_name": "Aromatic hydrocarbons, C9-C11",
            "confidence": 0.7509578544061303,
            "uuid": "1e86d79b-784d-40c4-8412-39a4432a7a75",
            "category": "agents",
            "url": "https://haz-map.com/Agents/20258"
          },
          {
            "type": "fuzzy_match",
            "text": "hydrocarbons",
            "matched_name": "Hydrocarbons, C>3",
            "confidence": 0.7100840336134454,
            "uuid": "8eaa37ac-3931-44e4-9242-2734127fd661",
            "category": "agents",
            "url": "https://haz-map.com/Agents/14795"
          }
        ]
      },
      "description": {
        "original_name": "Description",
        "value": "Liquid; [IUCLID]",
        "links": [],
        "cross_references": []
      },
      "comments": {
        "original_name": "Comments",
        "value": "See \"1-Methyl-1H-indene.\"",
        "links": [],
        "cross_references": [
          {
            "type": "name_match",
            "text": "indene",
            "confidence": 1.0,
            "uuid": "abe76b78-2986-4d49-b6e5-d1ce49774b99",
            "name": "Indene",
            "url": "https://haz-map.com/Agents/520",
            "category": "agents"
          },
          {
            "type": "name_match",
            "text": "1-methyl-1h-indene",
            "confidence": 1.0,
            "uuid": "3bd2d848-6138-475c-b4f2-bf8c0c8d7c41",
            "name": "1-Methyl-1H-indene",
            "url": "https://haz-map.com/Agents/10200",
            "category": "agents"
          }
        ]
      },
      "biomedical_references": {
        "original_name": "Biomedical References",
        "value": "Search PubMed",
        "links": [
          {
            "text": "Search PubMed",
            "url": "https://www.ncbi.nlm.nih.gov/pubmed?term=1%2c1%2c2%2c3%2c3-Pentamethylindan%20AND%20human%5Bmh%5D%20AND%20%28Occupational%20Diseases%20%5Bmh%5D%20OR%20Occupational%20Exposure%20%5Bmh%5D%29%20%20AND%20%28tox%5Bsb%5D%29&cmd=search"
          }
        ],
        "cross_references": []
      }
    },
    "exposure_assessment": {
      "explanatory_notes": {
        "original_name": "Explanatory Notes",
        "value": "Flash point = 89 deg C; [eChemPortal: IUCLID]",
        "links": [],
        "cross_references": [
          {
            "type": "name_match",
            "text": "ash",
            "confidence": 1.0,
            "uuid": "68b360f1-5ad0-4337-bea0-d7adca2961b5",
            "name": "Ash",
            "url": "https://haz-map.com/Agents/965",
            "category": "agents"
          }
        ]
      }
    },
    "diseases_processes_and_activities_linked_to_this_agent": {
      "other_information": {
        "original_name": "Other Information",
        "value": "No other related information on this agent was found.",
        "links": [],
        "cross_references": []
      }
    }
  },
  "cross_references": [
    {
      "type": "name_match",
      "text": "indene",
      "confidence": 1.0,
      "uuid": "abe76b78-2986-4d49-b6e5-d1ce49774b99",
      "name": "Indene",
      "url": "https://haz-map.com/Agents/520",
      "category": "agents"
    },
    {
      "type": "name_match",
      "text": "ash",
      "confidence": 1.0,
      "uuid": "68b360f1-5ad0-4337-bea0-d7adca2961b5",
      "name": "Ash",
      "url": "https://haz-map.com/Agents/965",
      "category": "agents"
    },
    {
      "type": "name_match",
      "text": "carbon",
      "confidence": 1.0,
      "uuid": "b53f8815-ee80-40ef-b4aa-3b000e17dab5",
      "name": "Carbon",
      "url": "https://haz-map.com/Agents/1891",
      "category": "agents"
    },
    {
      "type": "name_match",
      "text": "1,1,2,3,3-pentamethylindan",
      "confidence": 1.0,
      "uuid": "4558d054-2400-4a24-8efe-5f22bf08c00d",
      "name": "1,1,2,3,3-Pentamethylindan",
      "url": "https://haz-map.com/Agents/2693",
      "category": "agents"
    },
    {
      "type": "name_match",
      "text": "1-methyl-1h-indene",
      "confidence": 1.0,
      "uuid": "3bd2d848-6138-475c-b4f2-bf8c0c8d7c41",
      "name": "1-Methyl-1H-indene",
      "url": "https://haz-map.com/Agents/10200",
      "category": "agents"
    },
    {
      "type": "name_match",
      "text": "indan",
      "confidence": 1.0,
      "uuid": "ebba867b-a993-436a-85fb-f7d1183da941",
      "name": "Indan",
      "url": "https://haz-map.com/Agents/19450",
      "category": "agents"
    },
    {
      "type": "fuzzy_match",
      "text": "aromatic hydrocarbons",
      "matched_name": "Aromatic hydrocarbons, C9-C11",
      "confidence": 0.7509578544061303,
      "uuid": "1e86d79b-784d-40c4-8412-39a4432a7a75",
      "category": "agents",
      "url": "https://haz-map.com/Agents/20258"
    },
    {
      "type": "fuzzy_match",
      "text": "hydrocarbons",
      "matched_name": "Hydrocarbons, C>3",
      "confidence": 0.7100840336134454,
      "uuid": "8eaa37ac-3931-44e4-9242-2734127fd661",
      "category": "agents",
      "url": "https://haz-map.com/Agents/14795"
    }
  ],
  "all_links": [
    {
      "text": "Search PubMed",
      "url": "https://www.ncbi.nlm.nih.gov/pubmed?term=1%2c1%2c2%2c3%2c3-Pentamethylindan%20AND%20human%5Bmh%5D%20AND%20%28Occupational%20Diseases%20%5Bmh%5D%20OR%20Occupational%20Exposure%20%5Bmh%5D%29%20%20AND%20%28tox%5Bsb%5D%29&cmd=search"
    }
  ]
}