{
  "metadata": {
    "scraped_from": "https://haz-map.com/Agents/1937",
    "entity_name": "Naphthacene",
    "category": "agents",
    "uuid": "45a773c8-c389-455d-96fd-2d083aa24b86",
    "scraped_at": "2025-07-23T19:07:06.884736"
  },
  "parsed_at": "2025-07-24T00:56:12.032614",
  "title": "Naphthacene",
  "sections": {
    "general": {
      "agent_name": {
        "original_name": "Agent Name",
        "value": "Naphthacene",
        "links": [],
        "cross_references": [
          {
            "type": "name_match",
            "text": "naphthacene",
            "confidence": 1.0,
            "uuid": "45a773c8-c389-455d-96fd-2d083aa24b86",
            "name": "Naphthacene",
            "url": "https://haz-map.com/Agents/1937",
            "category": "agents"
          },
          {
            "type": "name_match",
            "text": "ht",
            "confidence": 1.0,
            "uuid": "764df367-8d53-4a11-81a2-31ccfe122a8d",
            "name": "HT",
            "url": "https://haz-map.com/Agents/2168",
            "category": "agents"
          }
        ]
      },
      "cas_number": {
        "original_name": "CAS Number",
        "value": "92-24-0",
        "links": [],
        "cross_references": []
      },
      "formula": {
        "original_name": "Formula",
        "value": "C18-H12",
        "links": [],
        "cross_references": []
      },
      "major_category": {
        "original_name": "Major Category",
        "value": "Other Classes",
        "links": [],
        "cross_references": []
      },
      "synonyms": {
        "original_name": "Synonyms",
        "value": "2,3-Benzanthracene; 2,3-Benzanthrene; Benz(b)anthracene; Chrysogen; Naphthacene; Rubene; Tetracene (hydrocarbon); [ChemIDplus]",
        "links": [],
        "cross_references": [
          {
            "type": "name_match",
            "text": "carbon",
            "confidence": 1.0,
            "uuid": "b53f8815-ee80-40ef-b4aa-3b000e17dab5",
            "name": "Carbon",
            "url": "https://haz-map.com/Agents/1891",
            "category": "agents"
          },
          {
            "type": "name_match",
            "text": "naphthacene",
            "confidence": 1.0,
            "uuid": "45a773c8-c389-455d-96fd-2d083aa24b86",
            "name": "Naphthacene",
            "url": "https://haz-map.com/Agents/1937",
            "category": "agents"
          },
          {
            "type": "name_match",
            "text": "ht",
            "confidence": 1.0,
            "uuid": "764df367-8d53-4a11-81a2-31ccfe122a8d",
            "name": "HT",
            "url": "https://haz-map.com/Agents/2168",
            "category": "agents"
          },
          {
            "type": "name_match",
            "text": "anthracene",
            "confidence": 1.0,
            "uuid": "f11a62e4-1e69-4f6d-a8b7-240c9de086ff",
            "name": "Anthracene",
            "url": "https://haz-map.com/Agents/7821",
            "category": "agents"
          }
        ]
      },
      "category": {
        "original_name": "Category",
        "value": "Polycyclic Aromatic Hydrocarbons",
        "links": [],
        "cross_references": [
          {
            "type": "name_match",
            "text": "polycyclic aromatic hydrocarbons",
            "confidence": 1.0,
            "uuid": "0f103271-339e-42e1-80e3-bf90a8be7084",
            "name": "POLYCYCLIC AROMATIC HYDROCARBONS",
            "url": "https://haz-map.com/Agents/720",
            "category": "agents"
          },
          {
            "type": "name_match",
            "text": "carbon",
            "confidence": 1.0,
            "uuid": "b53f8815-ee80-40ef-b4aa-3b000e17dab5",
            "name": "Carbon",
            "url": "https://haz-map.com/Agents/1891",
            "category": "agents"
          },
          {
            "type": "fuzzy_match",
            "text": "aromatic hydrocarbons",
            "matched_name": "Aromatic hydrocarbons, C9-C11",
            "confidence": 0.7509578544061303,
            "uuid": "1e86d79b-784d-40c4-8412-39a4432a7a75",
            "category": "agents",
            "url": "https://haz-map.com/Agents/20258"
          },
          {
            "type": "fuzzy_match",
            "text": "hydrocarbons",
            "matched_name": "Hydrocarbons, C>3",
            "confidence": 0.7100840336134454,
            "uuid": "8eaa37ac-3931-44e4-9242-2734127fd661",
            "category": "agents",
            "url": "https://haz-map.com/Agents/14795"
          }
        ]
      },
      "description": {
        "original_name": "Description",
        "value": "\"Orange leaflets from xylene\"; melting point = 341 degrees C; [Merck Index] Has slight green fluorescence in daylight; [Hawley]",
        "links": [],
        "cross_references": [
          {
            "type": "name_match",
            "text": "ht",
            "confidence": 1.0,
            "uuid": "764df367-8d53-4a11-81a2-31ccfe122a8d",
            "name": "HT",
            "url": "https://haz-map.com/Agents/2168",
            "category": "agents"
          },
          {
            "type": "fuzzy_match",
            "text": "m xylene",
            "matched_name": "m-Xylene",
            "confidence": 0.875,
            "uuid": "6e70ec96-2a83-4a6c-84c5-45b1d8cc4824",
            "category": "agents",
            "url": "https://haz-map.com/Agents/15725"
          }
        ]
      },
      "sourcesuses": {
        "original_name": "Sources/Uses",
        "value": "Present in coal tar and contaminates commercial anthracene; [Merck Index] Used in organic synthesis; [Hawley]",
        "links": [],
        "cross_references": [
          {
            "type": "name_match",
            "text": "coal tar",
            "confidence": 1.0,
            "uuid": "df40f58d-45ab-44c5-8e73-a9916bba6e2c",
            "name": "Coal tar",
            "url": "https://haz-map.com/Agents/1575",
            "category": "agents"
          },
          {
            "type": "name_match",
            "text": "anthracene",
            "confidence": 1.0,
            "uuid": "f11a62e4-1e69-4f6d-a8b7-240c9de086ff",
            "name": "Anthracene",
            "url": "https://haz-map.com/Agents/7821",
            "category": "agents"
          }
        ]
      },
      "comments": {
        "original_name": "Comments",
        "value": "An eye, skin, and respiratory tract irritant; May be harmful if swallowed, inhaled or absorbed through the skin; [MSDSonline] May explode if shocked; [Hawley] See \"POLYCYCLIC AROMATIC HYDROCARBONS.\"",
        "links": [],
        "cross_references": [
          {
            "type": "name_match",
            "text": "shock",
            "confidence": 1.0,
            "uuid": "184088a3-33cc-4d64-b02e-bfb90ba4cbe5",
            "name": "shock",
            "url": "https://haz-map.com/Findings/76",
            "category": "findings"
          },
          {
            "type": "name_match",
            "text": "polycyclic aromatic hydrocarbons",
            "confidence": 1.0,
            "uuid": "0f103271-339e-42e1-80e3-bf90a8be7084",
            "name": "POLYCYCLIC AROMATIC HYDROCARBONS",
            "url": "https://haz-map.com/Agents/720",
            "category": "agents"
          },
          {
            "type": "name_match",
            "text": "carbon",
            "confidence": 1.0,
            "uuid": "b53f8815-ee80-40ef-b4aa-3b000e17dab5",
            "name": "Carbon",
            "url": "https://haz-map.com/Agents/1891",
            "category": "agents"
          },
          {
            "type": "fuzzy_match",
            "text": "aromatic hydrocarbons",
            "matched_name": "Aromatic hydrocarbons, C9-C11",
            "confidence": 0.7509578544061303,
            "uuid": "1e86d79b-784d-40c4-8412-39a4432a7a75",
            "category": "agents",
            "url": "https://haz-map.com/Agents/20258"
          },
          {
            "type": "fuzzy_match",
            "text": "hydrocarbons",
            "matched_name": "Hydrocarbons, C>3",
            "confidence": 0.7100840336134454,
            "uuid": "8eaa37ac-3931-44e4-9242-2734127fd661",
            "category": "agents",
            "url": "https://haz-map.com/Agents/14795"
          }
        ]
      },
      "biomedical_references": {
        "original_name": "Biomedical References",
        "value": "Search PubMed",
        "links": [
          {
            "text": "Search PubMed",
            "url": "https://www.ncbi.nlm.nih.gov/pubmed?term=Naphthacene%20AND%20human%5Bmh%5D%20AND%20%28Occupational%20Diseases%20%5Bmh%5D%20OR%20Occupational%20Exposure%20%5Bmh%5D%29%20%20AND%20%28tox%5Bsb%5D%29&cmd=search"
          }
        ],
        "cross_references": []
      }
    },
    "exposure_assessment": {
      "explanatory_notes": {
        "original_name": "Explanatory Notes",
        "value": "Melting point = 357 degrees C. [ChemIDplus]",
        "links": [],
        "cross_references": []
      }
    },
    "diseases_processes_and_activities_linked_to_this_agent": {
      "other_information": {
        "original_name": "Other Information",
        "value": "No other related information on this agent was found.",
        "links": [],
        "cross_references": []
      }
    }
  },
  "cross_references": [
    {
      "type": "name_match",
      "text": "shock",
      "confidence": 1.0,
      "uuid": "184088a3-33cc-4d64-b02e-bfb90ba4cbe5",
      "name": "shock",
      "url": "https://haz-map.com/Findings/76",
      "category": "findings"
    },
    {
      "type": "name_match",
      "text": "polycyclic aromatic hydrocarbons",
      "confidence": 1.0,
      "uuid": "0f103271-339e-42e1-80e3-bf90a8be7084",
      "name": "POLYCYCLIC AROMATIC HYDROCARBONS",
      "url": "https://haz-map.com/Agents/720",
      "category": "agents"
    },
    {
      "type": "name_match",
      "text": "coal tar",
      "confidence": 1.0,
      "uuid": "df40f58d-45ab-44c5-8e73-a9916bba6e2c",
      "name": "Coal tar",
      "url": "https://haz-map.com/Agents/1575",
      "category": "agents"
    },
    {
      "type": "name_match",
      "text": "carbon",
      "confidence": 1.0,
      "uuid": "b53f8815-ee80-40ef-b4aa-3b000e17dab5",
      "name": "Carbon",
      "url": "https://haz-map.com/Agents/1891",
      "category": "agents"
    },
    {
      "type": "name_match",
      "text": "naphthacene",
      "confidence": 1.0,
      "uuid": "45a773c8-c389-455d-96fd-2d083aa24b86",
      "name": "Naphthacene",
      "url": "https://haz-map.com/Agents/1937",
      "category": "agents"
    },
    {
      "type": "name_match",
      "text": "ht",
      "confidence": 1.0,
      "uuid": "764df367-8d53-4a11-81a2-31ccfe122a8d",
      "name": "HT",
      "url": "https://haz-map.com/Agents/2168",
      "category": "agents"
    },
    {
      "type": "name_match",
      "text": "anthracene",
      "confidence": 1.0,
      "uuid": "f11a62e4-1e69-4f6d-a8b7-240c9de086ff",
      "name": "Anthracene",
      "url": "https://haz-map.com/Agents/7821",
      "category": "agents"
    },
    {
      "type": "fuzzy_match",
      "text": "m xylene",
      "matched_name": "m-Xylene",
      "confidence": 0.875,
      "uuid": "6e70ec96-2a83-4a6c-84c5-45b1d8cc4824",
      "category": "agents",
      "url": "https://haz-map.com/Agents/15725"
    },
    {
      "type": "fuzzy_match",
      "text": "aromatic hydrocarbons",
      "matched_name": "Aromatic hydrocarbons, C9-C11",
      "confidence": 0.7509578544061303,
      "uuid": "1e86d79b-784d-40c4-8412-39a4432a7a75",
      "category": "agents",
      "url": "https://haz-map.com/Agents/20258"
    },
    {
      "type": "fuzzy_match",
      "text": "hydrocarbons",
      "matched_name": "Hydrocarbons, C>3",
      "confidence": 0.7100840336134454,
      "uuid": "8eaa37ac-3931-44e4-9242-2734127fd661",
      "category": "agents",
      "url": "https://haz-map.com/Agents/14795"
    }
  ],
  "all_links": [
    {
      "text": "Search PubMed",
      "url": "https://www.ncbi.nlm.nih.gov/pubmed?term=Naphthacene%20AND%20human%5Bmh%5D%20AND%20%28Occupational%20Diseases%20%5Bmh%5D%20OR%20Occupational%20Exposure%20%5Bmh%5D%29%20%20AND%20%28tox%5Bsb%5D%29&cmd=search"
    }
  ]
}