{
  "metadata": {
    "scraped_from": "https://haz-map.com/Agents/2439",
    "entity_name": "Indigo",
    "category": "agents",
    "uuid": "45ae5728-1381-4f9b-8e56-b29f7e3cf00c",
    "scraped_at": "2025-07-23T19:12:54.693173"
  },
  "parsed_at": "2025-07-24T00:59:31.647974",
  "title": "Indigo",
  "sections": {
    "general": {
      "agent_name": {
        "original_name": "Agent Name",
        "value": "Indigo",
        "links": [],
        "cross_references": [
          {
            "type": "name_match",
            "text": "indigo",
            "confidence": 1.0,
            "uuid": "45ae5728-1381-4f9b-8e56-b29f7e3cf00c",
            "name": "Indigo",
            "url": "https://haz-map.com/Agents/2439",
            "category": "agents"
          }
        ]
      },
      "cas_number": {
        "original_name": "CAS Number",
        "value": "482-89-3",
        "links": [],
        "cross_references": []
      },
      "formula": {
        "original_name": "Formula",
        "value": "C16-H10-N2-O2",
        "links": [],
        "cross_references": []
      },
      "major_category": {
        "original_name": "Major Category",
        "value": "Dyes",
        "links": [],
        "cross_references": []
      },
      "synonyms": {
        "original_name": "Synonyms",
        "value": "(2,2'-Biindoline)-3,3'-dione; 11669 Blue; 2-(1,3-Dihydro-3-oxo-2H-indol-2-ylidene)-1,2-dihydro-3H-indol-3-one; 3H-Indol-3-one, 2-(1,3-dihydro-3-oxo-2H-indol-2-ylidene)-1,2-dihydro-; Blue No. 201; C.I. 73000; C.I. Vat Blue 1; CI 73000; CI Pigment Blue 66; CI Vat Blue 1; Cystoceva; D & C Blue No. 6; D and C Blue No. 6; D&C Blue No. 6; Diindogen; Indigo; Indigo (VAN); Indigo Blue; Indigo Ciba; Indigo Ciba SL; Indigo J; Indigo N; Indigo NAC; Indigo P; Indigo PLN; Indigo Pure BASF; Indigo Pure BASF Powder K; Indigo VS; Indigo nacco; Indigo powder W; Indigo synthetic; Indigotin; Lithosol Deep Blue B; Lithosol Deep Blue V; Mitsui Indigo Pure; Mitsui indigo paste; Modr Kypova 1 [Czech]; Monolite Fast Navy Blue BV; Pigment Blue 66; Synthetic indigo; Synthetic indigo TS; Vat Blue 1; Vulcafix Blue R; Vulcafor Blue A; Vulcanosine Dark Blue L; Vulcol Fast Blue GL; Vynamon Blue A; delta(sup 2,2')-Bipseudoindoxyl; delta2,2'-Bipseudoindoxyl; (delta(sup 2,2')-Biindoline)-3,3'-dione; (delta2,2'-Biindoline)-3,3'-dione (8CI); 2-(1,3-Dihydro-3-oxo-2H-indazol-2-ylidene)-1,2-dihydro-3H-indol-3-one; [ChemIDplus]",
        "links": [],
        "cross_references": [
          {
            "type": "name_match",
            "text": "indigo",
            "confidence": 1.0,
            "uuid": "45ae5728-1381-4f9b-8e56-b29f7e3cf00c",
            "name": "Indigo",
            "url": "https://haz-map.com/Agents/2439",
            "category": "agents"
          },
          {
            "type": "name_match",
            "text": "indoline",
            "confidence": 1.0,
            "uuid": "27dcc4a6-aaa5-4eea-a7c0-89f290b9659c",
            "name": "Indoline",
            "url": "https://haz-map.com/Agents/14881",
            "category": "agents"
          }
        ]
      },
      "category": {
        "original_name": "Category",
        "value": "Other Dyes",
        "links": [],
        "cross_references": []
      },
      "description": {
        "original_name": "Description",
        "value": "Dark-blue solid with coppery shine; [HSDB]",
        "links": [],
        "cross_references": [
          {
            "type": "name_match",
            "text": "copper",
            "confidence": 1.0,
            "uuid": "ec3b6867-24a9-4dd4-bb59-cd8ac790c685",
            "name": "Copper",
            "url": "https://haz-map.com/Agents/374",
            "category": "agents"
          }
        ]
      },
      "sourcesuses": {
        "original_name": "Sources/Uses",
        "value": "Used as a dye and dye intermediate; [INCHEM] Used in paint and as an analytical reagent; [HSDB]",
        "links": [],
        "cross_references": []
      },
      "comments": {
        "original_name": "Comments",
        "value": "A skin and mucous membrane irritant; [CAMEO]",
        "links": [],
        "cross_references": []
      },
      "biomedical_references": {
        "original_name": "Biomedical References",
        "value": "Search PubMed",
        "links": [
          {
            "text": "Search PubMed",
            "url": "https://www.ncbi.nlm.nih.gov/pubmed?term=Indigo%20AND%20human%5Bmh%5D%20AND%20%28Occupational%20Diseases%20%5Bmh%5D%20OR%20Occupational%20Exposure%20%5Bmh%5D%29%20%20AND%20%28tox%5Bsb%5D%29&cmd=search"
          }
        ],
        "cross_references": []
      }
    },
    "exposure_assessment": {
      "vapor_pressure": {
        "original_name": "Vapor Pressure",
        "value": "9E-13 mm Hg",
        "links": [],
        "cross_references": []
      },
      "explanatory_notes": {
        "original_name": "Explanatory Notes",
        "value": "mp = 250 deg C; [MSDSonline]",
        "links": [],
        "cross_references": []
      },
      "nfpa": {
        "original_name": "NFPA",
        "value": "will not burn",
        "links": [],
        "cross_references": [
          {
            "type": "name_match",
            "text": "burn",
            "confidence": 1.0,
            "uuid": "63665de5-6376-4918-8dbf-4c10c4d63837",
            "name": "burn",
            "url": "https://haz-map.com/Findings/204",
            "category": "findings"
          }
        ]
      }
    },
    "diseases_processes_and_activities_linked_to_this_agent": {
      "processes": {
        "original_name": "Processes",
        "value": "Industrial Processes with risk of exposure: Painting (Pigments, Binders, and Biocides) Textiles (Printing, Dyeing, or Finishing)",
        "links": [
          {
            "text": "Painting (Pigments, Binders, and Biocides)",
            "url": "https://haz-map.com/Processes/145"
          },
          {
            "text": "Textiles (Printing, Dyeing, or Finishing)",
            "url": "https://haz-map.com/Processes/235"
          }
        ],
        "cross_references": [
          {
            "type": "url_match",
            "text": "Painting (Pigments, Binders, and Biocides)",
            "url": "https://haz-map.com/Processes/145",
            "confidence": 1.0,
            "uuid": "25867878-e178-4c21-906f-d392d86b76de",
            "name": "Painting (Pigments, Binders, and Biocides)",
            "category": "processes"
          },
          {
            "type": "name_match",
            "text": "painting",
            "confidence": 1.0,
            "uuid": "19816ce9-9edf-4a86-8e64-b0cbf7dcf520",
            "name": "Painting",
            "url": "https://haz-map.com/Activities/9",
            "category": "activities"
          }
        ]
      }
    }
  },
  "cross_references": [
    {
      "type": "url_match",
      "text": "Painting (Pigments, Binders, and Biocides)",
      "url": "https://haz-map.com/Processes/145",
      "confidence": 1.0,
      "uuid": "25867878-e178-4c21-906f-d392d86b76de",
      "name": "Painting (Pigments, Binders, and Biocides)",
      "category": "processes"
    },
    {
      "type": "name_match",
      "text": "painting",
      "confidence": 1.0,
      "uuid": "19816ce9-9edf-4a86-8e64-b0cbf7dcf520",
      "name": "Painting",
      "url": "https://haz-map.com/Activities/9",
      "category": "activities"
    },
    {
      "type": "name_match",
      "text": "burn",
      "confidence": 1.0,
      "uuid": "63665de5-6376-4918-8dbf-4c10c4d63837",
      "name": "burn",
      "url": "https://haz-map.com/Findings/204",
      "category": "findings"
    },
    {
      "type": "name_match",
      "text": "copper",
      "confidence": 1.0,
      "uuid": "ec3b6867-24a9-4dd4-bb59-cd8ac790c685",
      "name": "Copper",
      "url": "https://haz-map.com/Agents/374",
      "category": "agents"
    },
    {
      "type": "name_match",
      "text": "indigo",
      "confidence": 1.0,
      "uuid": "45ae5728-1381-4f9b-8e56-b29f7e3cf00c",
      "name": "Indigo",
      "url": "https://haz-map.com/Agents/2439",
      "category": "agents"
    },
    {
      "type": "name_match",
      "text": "indoline",
      "confidence": 1.0,
      "uuid": "27dcc4a6-aaa5-4eea-a7c0-89f290b9659c",
      "name": "Indoline",
      "url": "https://haz-map.com/Agents/14881",
      "category": "agents"
    }
  ],
  "all_links": [
    {
      "text": "Search PubMed",
      "url": "https://www.ncbi.nlm.nih.gov/pubmed?term=Indigo%20AND%20human%5Bmh%5D%20AND%20%28Occupational%20Diseases%20%5Bmh%5D%20OR%20Occupational%20Exposure%20%5Bmh%5D%29%20%20AND%20%28tox%5Bsb%5D%29&cmd=search"
    },
    {
      "text": "Painting (Pigments, Binders, and Biocides)",
      "url": "https://haz-map.com/Processes/145"
    },
    {
      "text": "Textiles (Printing, Dyeing, or Finishing)",
      "url": "https://haz-map.com/Processes/235"
    }
  ]
}