{
  "metadata": {
    "scraped_from": "https://haz-map.com/Agents/19346",
    "entity_name": "1-Chloro-3-fluorobenzene",
    "category": "agents",
    "uuid": "45b82ce4-7de9-4ee7-a89c-5a86c4869e75",
    "scraped_at": "2025-07-23T22:04:15.182069"
  },
  "parsed_at": "2025-07-24T01:11:17.583043",
  "title": "1-Chloro-3-fluorobenzene",
  "sections": {
    "general": {
      "agent_name": {
        "original_name": "Agent Name",
        "value": "1-Chloro-3-fluorobenzene",
        "links": [],
        "cross_references": [
          {
            "type": "name_match",
            "text": "benzene",
            "confidence": 1.0,
            "uuid": "b05124de-5f34-4c14-8f04-ccb20c3780d9",
            "name": "Benzene",
            "url": "https://haz-map.com/Agents/5",
            "category": "agents"
          },
          {
            "type": "name_match",
            "text": "fluorobenzene",
            "confidence": 1.0,
            "uuid": "c1a78196-9690-457b-a16d-9ca478f8d65b",
            "name": "Fluorobenzene",
            "url": "https://haz-map.com/Agents/13894",
            "category": "agents"
          },
          {
            "type": "name_match",
            "text": "1-chloro-3-fluorobenzene",
            "confidence": 1.0,
            "uuid": "45b82ce4-7de9-4ee7-a89c-5a86c4869e75",
            "name": "1-Chloro-3-fluorobenzene",
            "url": "https://haz-map.com/Agents/19346",
            "category": "agents"
          }
        ]
      },
      "cas_number": {
        "original_name": "CAS Number",
        "value": "625-98-9",
        "links": [],
        "cross_references": []
      },
      "formula": {
        "original_name": "Formula",
        "value": "C6-H4-Cl-F",
        "links": [],
        "cross_references": []
      },
      "major_category": {
        "original_name": "Major Category",
        "value": "Other Classes",
        "links": [],
        "cross_references": []
      },
      "synonyms": {
        "original_name": "Synonyms",
        "value": "1-Fluoro-3-chlorobenzene; 3-Chlorofluorobenzene; m-Chlorofluorobenzene; m-Fluorochlorobenzene; Benzene, 1-chloro-3-fluoro-; [ChemIDplus] UN1993",
        "links": [],
        "cross_references": [
          {
            "type": "name_match",
            "text": "benzene",
            "confidence": 1.0,
            "uuid": "b05124de-5f34-4c14-8f04-ccb20c3780d9",
            "name": "Benzene",
            "url": "https://haz-map.com/Agents/5",
            "category": "agents"
          },
          {
            "type": "name_match",
            "text": "chlorobenzene",
            "confidence": 1.0,
            "uuid": "7e598eca-f35d-493c-aa78-93bb67744c4c",
            "name": "Chlorobenzene",
            "url": "https://haz-map.com/Agents/85",
            "category": "agents"
          },
          {
            "type": "name_match",
            "text": "fluorobenzene",
            "confidence": 1.0,
            "uuid": "c1a78196-9690-457b-a16d-9ca478f8d65b",
            "name": "Fluorobenzene",
            "url": "https://haz-map.com/Agents/13894",
            "category": "agents"
          }
        ]
      },
      "category": {
        "original_name": "Category",
        "value": "Halogenated Monoaromatics",
        "links": [],
        "cross_references": []
      },
      "description": {
        "original_name": "Description",
        "value": "Colorless liquid; [Alfa Aesar MSDS]",
        "links": [],
        "cross_references": []
      },
      "comments": {
        "original_name": "Comments",
        "value": "A skin and strong eye irritant; Harmful by inhalation; [Alfa Aesar MSDS]",
        "links": [],
        "cross_references": []
      },
      "biomedical_references": {
        "original_name": "Biomedical References",
        "value": "Search PubMed",
        "links": [
          {
            "text": "Search PubMed",
            "url": "https://www.ncbi.nlm.nih.gov/pubmed?term=1-Chloro-3-fluorobenzene%20AND%20human%5Bmh%5D%20AND%20%28Occupational%20Diseases%20%5Bmh%5D%20OR%20Occupational%20Exposure%20%5Bmh%5D%29%20%20AND%20%28tox%5Bsb%5D%29&cmd=search"
          }
        ],
        "cross_references": []
      }
    },
    "exposure_assessment": {
      "vapor_pressure": {
        "original_name": "Vapor Pressure",
        "value": "8.19 mm Hg",
        "links": [],
        "cross_references": []
      },
      "explanatory_notes": {
        "original_name": "Explanatory Notes",
        "value": "The Guide in the Emergency Response Guidebook is for \"Flammable liquid, n.o.s.\"",
        "links": [],
        "cross_references": []
      }
    },
    "diseases_processes_and_activities_linked_to_this_agent": {
      "other_information": {
        "original_name": "Other Information",
        "value": "No other related information on this agent was found.",
        "links": [],
        "cross_references": []
      }
    }
  },
  "cross_references": [
    {
      "type": "name_match",
      "text": "benzene",
      "confidence": 1.0,
      "uuid": "b05124de-5f34-4c14-8f04-ccb20c3780d9",
      "name": "Benzene",
      "url": "https://haz-map.com/Agents/5",
      "category": "agents"
    },
    {
      "type": "name_match",
      "text": "chlorobenzene",
      "confidence": 1.0,
      "uuid": "7e598eca-f35d-493c-aa78-93bb67744c4c",
      "name": "Chlorobenzene",
      "url": "https://haz-map.com/Agents/85",
      "category": "agents"
    },
    {
      "type": "name_match",
      "text": "fluorobenzene",
      "confidence": 1.0,
      "uuid": "c1a78196-9690-457b-a16d-9ca478f8d65b",
      "name": "Fluorobenzene",
      "url": "https://haz-map.com/Agents/13894",
      "category": "agents"
    },
    {
      "type": "name_match",
      "text": "1-chloro-3-fluorobenzene",
      "confidence": 1.0,
      "uuid": "45b82ce4-7de9-4ee7-a89c-5a86c4869e75",
      "name": "1-Chloro-3-fluorobenzene",
      "url": "https://haz-map.com/Agents/19346",
      "category": "agents"
    }
  ],
  "all_links": [
    {
      "text": "Search PubMed",
      "url": "https://www.ncbi.nlm.nih.gov/pubmed?term=1-Chloro-3-fluorobenzene%20AND%20human%5Bmh%5D%20AND%20%28Occupational%20Diseases%20%5Bmh%5D%20OR%20Occupational%20Exposure%20%5Bmh%5D%29%20%20AND%20%28tox%5Bsb%5D%29&cmd=search"
    }
  ]
}