{
  "metadata": {
    "scraped_from": "https://haz-map.com/Agents/14014",
    "entity_name": "Dodecyltrimethylammonium chloride",
    "category": "agents",
    "uuid": "46218a16-3f26-4b5d-bdc2-d6ffdda46cab",
    "scraped_at": "2025-07-23T21:20:15.582154"
  },
  "parsed_at": "2025-07-24T00:51:26.489254",
  "title": "Dodecyltrimethylammonium chloride",
  "sections": {
    "general": {
      "agent_name": {
        "original_name": "Agent Name",
        "value": "Dodecyltrimethylammonium chloride",
        "links": [],
        "cross_references": [
          {
            "type": "name_match",
            "text": "trimethylammonium chloride",
            "confidence": 1.0,
            "uuid": "4c001cd6-78f3-41e8-ab04-fb1715c1f848",
            "name": "Trimethylammonium chloride",
            "url": "https://haz-map.com/Agents/7608",
            "category": "agents"
          },
          {
            "type": "name_match",
            "text": "dodecyltrimethylammonium chloride",
            "confidence": 1.0,
            "uuid": "46218a16-3f26-4b5d-bdc2-d6ffdda46cab",
            "name": "Dodecyltrimethylammonium chloride",
            "url": "https://haz-map.com/Agents/14014",
            "category": "agents"
          }
        ]
      },
      "cas_number": {
        "original_name": "CAS Number",
        "value": "112-00-5",
        "links": [],
        "cross_references": []
      },
      "formula": {
        "original_name": "Formula",
        "value": "C15-H34-N.Cl",
        "links": [],
        "cross_references": []
      },
      "major_category": {
        "original_name": "Major Category",
        "value": "Nitrogen Compounds",
        "links": [],
        "cross_references": [
          {
            "type": "name_match",
            "text": "nitrogen",
            "confidence": 1.0,
            "uuid": "db5e90a9-06d2-45b9-8b81-f345a89b0bc0",
            "name": "Nitrogen",
            "url": "https://haz-map.com/Agents/1072",
            "category": "agents"
          }
        ]
      },
      "synonyms": {
        "original_name": "Synonyms",
        "value": "1-Dodecanaminium, N,N,N-trimethyl-, chloride; Lauryl trimethyl ammonium chloride; Adogen 412; Alicop; Aliquat 4; Arquad 12; Arquad 12-23; Arquad 12-33; Arquad 12-37W; Arquad 12/50; Arquad 12D; Arquad MC 50; Catinal LTC 35A; Catiogen L; Cation BB; Cation FB; DTAC; Dehyquart LT; Dodecyl trimethyl ammonium chloride; Laurtrimonium chloride; Lauryltrimethylammonium chloride; Monolauryltrimethylammonium chloride; N,N,N-Trimethyl-1-dodecanaminium chloride; N-Dodecyl-N,N,N-trimethylammonium chloride; Nissan Cation BB; Nissan Cation BB 300; Nissan Cation FB; Quartamin 24P; Quartamin 24W; Radiaquat 6465; Redicote E 5; Rewoquat B 18; Rhodaquat M 242C29; Swanol CA 2150; Trimethyldodecylammonium chloride; Trimethyllaurylammonium chloride; n-Dodecyltrimethylammonium chloride; Ammonium, dodecyltrimethyl-, chloride; [ChemIDplus]",
        "links": [],
        "cross_references": [
          {
            "type": "name_match",
            "text": "trimethylammonium chloride",
            "confidence": 1.0,
            "uuid": "4c001cd6-78f3-41e8-ab04-fb1715c1f848",
            "name": "Trimethylammonium chloride",
            "url": "https://haz-map.com/Agents/7608",
            "category": "agents"
          },
          {
            "type": "name_match",
            "text": "dodecyltrimethylammonium chloride",
            "confidence": 1.0,
            "uuid": "46218a16-3f26-4b5d-bdc2-d6ffdda46cab",
            "name": "Dodecyltrimethylammonium chloride",
            "url": "https://haz-map.com/Agents/14014",
            "category": "agents"
          }
        ]
      },
      "category": {
        "original_name": "Category",
        "value": "Quaternary Amines",
        "links": [],
        "cross_references": []
      },
      "description": {
        "original_name": "Description",
        "value": "Solid; [EPA ChAMP: Initial Risk-Based Prioritization Document] White to light yellow powder and chunks; Hygroscopic; [Acros Organics MSDS]",
        "links": [],
        "cross_references": [
          {
            "type": "name_match",
            "text": "ht",
            "confidence": 1.0,
            "uuid": "764df367-8d53-4a11-81a2-31ccfe122a8d",
            "name": "HT",
            "url": "https://haz-map.com/Agents/2168",
            "category": "agents"
          }
        ]
      },
      "sourcesuses": {
        "original_name": "Sources/Uses",
        "value": "Typical uses of category members include surfactants, intermediates, anti-scaling agents, fabric softeners, multifunctional laundry detergents, antistatic sprays, germicides, deodorizers, emulsifiers, hair-care products, industrial lubricants, and corrosion inhibitors; [EPA ChAMP: Initial Risk-Based Prioritization Document]",
        "links": [],
        "cross_references": []
      },
      "comments": {
        "original_name": "Comments",
        "value": "Increased liver weights (with corresponding histopathology) and increased ALT activity in repeated-dose oral studies of animals; [EPA ChAMP: Hazard Characterizations] An irritant; Harmful by ingestion; [Acros Organics MSDS]",
        "links": [],
        "cross_references": [
          {
            "type": "name_match",
            "text": "ht",
            "confidence": 1.0,
            "uuid": "764df367-8d53-4a11-81a2-31ccfe122a8d",
            "name": "HT",
            "url": "https://haz-map.com/Agents/2168",
            "category": "agents"
          }
        ]
      },
      "biomedical_references": {
        "original_name": "Biomedical References",
        "value": "Search PubMed",
        "links": [
          {
            "text": "Search PubMed",
            "url": "https://www.ncbi.nlm.nih.gov/pubmed?term=Dodecyltrimethylammonium+chloride%20AND%20human%5Bmh%5D%20AND%20%28Occupational%20Diseases%20%5Bmh%5D%20OR%20Occupational%20Exposure%20%5Bmh%5D%29%20%20AND%20%28tox%5Bsb%5D%29&cmd=search"
          }
        ],
        "cross_references": []
      }
    },
    "exposure_assessment": {
      "vapor_pressure": {
        "original_name": "Vapor Pressure",
        "value": "9.3E-09 mm Hg",
        "links": [],
        "cross_references": []
      }
    },
    "adverse_effects": {
      "hepatotoxin": {
        "original_name": "Hepatotoxin",
        "value": "Hepatoxic (a) from occupational exposure (secondary effect) or (b) in animal studies or in humans after ingestion",
        "links": [],
        "cross_references": []
      }
    },
    "diseases_processes_and_activities_linked_to_this_agent": {
      "processes": {
        "original_name": "Processes",
        "value": "Industrial Processes with risk of exposure: Using Disinfectants or Biocides",
        "links": [
          {
            "text": "Using Disinfectants or Biocides",
            "url": "https://haz-map.com/Processes/167"
          }
        ],
        "cross_references": [
          {
            "type": "url_match",
            "text": "Using Disinfectants or Biocides",
            "url": "https://haz-map.com/Processes/167",
            "confidence": 1.0,
            "uuid": "7accb745-ad60-4ef8-9039-8ac4febb8fd8",
            "name": "Using Disinfectants or Biocides",
            "category": "processes"
          }
        ]
      }
    }
  },
  "cross_references": [
    {
      "type": "url_match",
      "text": "Using Disinfectants or Biocides",
      "url": "https://haz-map.com/Processes/167",
      "confidence": 1.0,
      "uuid": "7accb745-ad60-4ef8-9039-8ac4febb8fd8",
      "name": "Using Disinfectants or Biocides",
      "category": "processes"
    },
    {
      "type": "name_match",
      "text": "nitrogen",
      "confidence": 1.0,
      "uuid": "db5e90a9-06d2-45b9-8b81-f345a89b0bc0",
      "name": "Nitrogen",
      "url": "https://haz-map.com/Agents/1072",
      "category": "agents"
    },
    {
      "type": "name_match",
      "text": "ht",
      "confidence": 1.0,
      "uuid": "764df367-8d53-4a11-81a2-31ccfe122a8d",
      "name": "HT",
      "url": "https://haz-map.com/Agents/2168",
      "category": "agents"
    },
    {
      "type": "name_match",
      "text": "trimethylammonium chloride",
      "confidence": 1.0,
      "uuid": "4c001cd6-78f3-41e8-ab04-fb1715c1f848",
      "name": "Trimethylammonium chloride",
      "url": "https://haz-map.com/Agents/7608",
      "category": "agents"
    },
    {
      "type": "name_match",
      "text": "dodecyltrimethylammonium chloride",
      "confidence": 1.0,
      "uuid": "46218a16-3f26-4b5d-bdc2-d6ffdda46cab",
      "name": "Dodecyltrimethylammonium chloride",
      "url": "https://haz-map.com/Agents/14014",
      "category": "agents"
    }
  ],
  "all_links": [
    {
      "text": "Search PubMed",
      "url": "https://www.ncbi.nlm.nih.gov/pubmed?term=Dodecyltrimethylammonium+chloride%20AND%20human%5Bmh%5D%20AND%20%28Occupational%20Diseases%20%5Bmh%5D%20OR%20Occupational%20Exposure%20%5Bmh%5D%29%20%20AND%20%28tox%5Bsb%5D%29&cmd=search"
    },
    {
      "text": "Using Disinfectants or Biocides",
      "url": "https://haz-map.com/Processes/167"
    }
  ]
}