{
  "metadata": {
    "scraped_from": "https://haz-map.com/Agents/2673",
    "entity_name": "Divinyl sulfone",
    "category": "agents",
    "uuid": "466e12ef-6ae7-4723-b616-b2ebd61075d0",
    "scraped_at": "2025-07-23T19:17:28.345705"
  },
  "parsed_at": "2025-07-24T01:09:24.327300",
  "title": "Divinyl sulfone",
  "sections": {
    "general": {
      "agent_name": {
        "original_name": "Agent Name",
        "value": "Divinyl sulfone",
        "links": [],
        "cross_references": [
          {
            "type": "name_match",
            "text": "divinyl sulfone",
            "confidence": 1.0,
            "uuid": "466e12ef-6ae7-4723-b616-b2ebd61075d0",
            "name": "Divinyl sulfone",
            "url": "https://haz-map.com/Agents/2673",
            "category": "agents"
          }
        ]
      },
      "cas_number": {
        "original_name": "CAS Number",
        "value": "77-77-0",
        "links": [],
        "cross_references": []
      },
      "formula": {
        "original_name": "Formula",
        "value": "C4-H6-O2-S",
        "links": [],
        "cross_references": []
      },
      "major_category": {
        "original_name": "Major Category",
        "value": "Other Classes",
        "links": [],
        "cross_references": []
      },
      "synonyms": {
        "original_name": "Synonyms",
        "value": "Bis(ethenyl)sulfone; Divinyl sulfone; Divinyl sulphone; Ethene, 1,1'-sulfonylbis-; Sulfone, divinyl-; TL 797; [ChemIDplus] UN2927",
        "links": [],
        "cross_references": [
          {
            "type": "name_match",
            "text": "divinyl sulfone",
            "confidence": 1.0,
            "uuid": "466e12ef-6ae7-4723-b616-b2ebd61075d0",
            "name": "Divinyl sulfone",
            "url": "https://haz-map.com/Agents/2673",
            "category": "agents"
          }
        ]
      },
      "category": {
        "original_name": "Category",
        "value": "Sulfur Compounds",
        "links": [],
        "cross_references": [
          {
            "type": "name_match",
            "text": "sulfur",
            "confidence": 1.0,
            "uuid": "5aabdef6-71c8-44c8-b762-feaabff50696",
            "name": "Sulfur",
            "url": "https://haz-map.com/Agents/1942",
            "category": "agents"
          }
        ]
      },
      "description": {
        "original_name": "Description",
        "value": "Clear colorless liquid; [CAMEO]",
        "links": [],
        "cross_references": []
      },
      "sourcesuses": {
        "original_name": "Sources/Uses",
        "value": "Cross-linking reagent for agarose gels; [ChemIDplus] Monomer used in manufacture of polymers with diols, urea, and malonic esters; shrinkage control agent in textiles; [Hawley]",
        "links": [],
        "cross_references": [
          {
            "type": "name_match",
            "text": "urea",
            "confidence": 1.0,
            "uuid": "a92a6129-bddd-4f79-9a78-136812ae610f",
            "name": "Urea",
            "url": "https://haz-map.com/Agents/2078",
            "category": "agents"
          },
          {
            "type": "name_match",
            "text": "agar",
            "confidence": 1.0,
            "uuid": "6736375b-51bf-4ffa-9f36-f145228d4f0d",
            "name": "Agar",
            "url": "https://haz-map.com/Agents/11402",
            "category": "agents"
          },
          {
            "type": "name_match",
            "text": "agarose",
            "confidence": 1.0,
            "uuid": "a79244da-0142-4f1a-96e2-2fba1632a747",
            "name": "Agarose",
            "url": "https://haz-map.com/Agents/11404",
            "category": "agents"
          }
        ]
      },
      "comments": {
        "original_name": "Comments",
        "value": "Can cause burns similar to mustard gas burns; Lachrymator; [HSDB] Causes burns; Toxic by ingestion; [MSDSonline]",
        "links": [],
        "cross_references": [
          {
            "type": "name_match",
            "text": "burn",
            "confidence": 1.0,
            "uuid": "63665de5-6376-4918-8dbf-4c10c4d63837",
            "name": "burn",
            "url": "https://haz-map.com/Findings/204",
            "category": "findings"
          }
        ]
      },
      "biomedical_references": {
        "original_name": "Biomedical References",
        "value": "Search PubMed",
        "links": [
          {
            "text": "Search PubMed",
            "url": "https://www.ncbi.nlm.nih.gov/pubmed?term=Divinyl+sulfone%20AND%20human%5Bmh%5D%20AND%20%28Occupational%20Diseases%20%5Bmh%5D%20OR%20Occupational%20Exposure%20%5Bmh%5D%29%20%20AND%20%28tox%5Bsb%5D%29&cmd=search"
          }
        ],
        "cross_references": []
      }
    },
    "exposure_assessment": {
      "vapor_pressure": {
        "original_name": "Vapor Pressure",
        "value": "0.784 mm Hg",
        "links": [],
        "cross_references": []
      },
      "lethal_concentration": {
        "original_name": "Lethal Concentration",
        "value": "LCLo (mice) = 990 mg/m3/10min",
        "links": [],
        "cross_references": []
      },
      "explanatory_notes": {
        "original_name": "Explanatory Notes",
        "value": "Flash point = 217 deg F; [CAMEO] ERG Guide for \"Toxic liquid, corrosive, n.o.s.\" VP from ChemIDplus;",
        "links": [],
        "cross_references": [
          {
            "type": "name_match",
            "text": "ash",
            "confidence": 1.0,
            "uuid": "68b360f1-5ad0-4337-bea0-d7adca2961b5",
            "name": "Ash",
            "url": "https://haz-map.com/Agents/965",
            "category": "agents"
          }
        ]
      }
    },
    "adverse_effects": {
      "lachrymator": {
        "original_name": "Lachrymator",
        "value": "Yes",
        "links": [],
        "cross_references": []
      },
      "dermatotoxin": {
        "original_name": "Dermatotoxin",
        "value": "Skin burns",
        "links": [],
        "cross_references": [
          {
            "type": "name_match",
            "text": "burn",
            "confidence": 1.0,
            "uuid": "63665de5-6376-4918-8dbf-4c10c4d63837",
            "name": "burn",
            "url": "https://haz-map.com/Findings/204",
            "category": "findings"
          }
        ]
      }
    },
    "diseases_processes_and_activities_linked_to_this_agent": {
      "processes": {
        "original_name": "Processes",
        "value": "Industrial Processes with risk of exposure: Textiles (Printing, Dyeing, or Finishing)",
        "links": [
          {
            "text": "Textiles (Printing, Dyeing, or Finishing)",
            "url": "https://haz-map.com/Processes/235"
          }
        ],
        "cross_references": []
      }
    }
  },
  "cross_references": [
    {
      "type": "name_match",
      "text": "burn",
      "confidence": 1.0,
      "uuid": "63665de5-6376-4918-8dbf-4c10c4d63837",
      "name": "burn",
      "url": "https://haz-map.com/Findings/204",
      "category": "findings"
    },
    {
      "type": "name_match",
      "text": "ash",
      "confidence": 1.0,
      "uuid": "68b360f1-5ad0-4337-bea0-d7adca2961b5",
      "name": "Ash",
      "url": "https://haz-map.com/Agents/965",
      "category": "agents"
    },
    {
      "type": "name_match",
      "text": "sulfur",
      "confidence": 1.0,
      "uuid": "5aabdef6-71c8-44c8-b762-feaabff50696",
      "name": "Sulfur",
      "url": "https://haz-map.com/Agents/1942",
      "category": "agents"
    },
    {
      "type": "name_match",
      "text": "urea",
      "confidence": 1.0,
      "uuid": "a92a6129-bddd-4f79-9a78-136812ae610f",
      "name": "Urea",
      "url": "https://haz-map.com/Agents/2078",
      "category": "agents"
    },
    {
      "type": "name_match",
      "text": "divinyl sulfone",
      "confidence": 1.0,
      "uuid": "466e12ef-6ae7-4723-b616-b2ebd61075d0",
      "name": "Divinyl sulfone",
      "url": "https://haz-map.com/Agents/2673",
      "category": "agents"
    },
    {
      "type": "name_match",
      "text": "agar",
      "confidence": 1.0,
      "uuid": "6736375b-51bf-4ffa-9f36-f145228d4f0d",
      "name": "Agar",
      "url": "https://haz-map.com/Agents/11402",
      "category": "agents"
    },
    {
      "type": "name_match",
      "text": "agarose",
      "confidence": 1.0,
      "uuid": "a79244da-0142-4f1a-96e2-2fba1632a747",
      "name": "Agarose",
      "url": "https://haz-map.com/Agents/11404",
      "category": "agents"
    }
  ],
  "all_links": [
    {
      "text": "Search PubMed",
      "url": "https://www.ncbi.nlm.nih.gov/pubmed?term=Divinyl+sulfone%20AND%20human%5Bmh%5D%20AND%20%28Occupational%20Diseases%20%5Bmh%5D%20OR%20Occupational%20Exposure%20%5Bmh%5D%29%20%20AND%20%28tox%5Bsb%5D%29&cmd=search"
    },
    {
      "text": "Textiles (Printing, Dyeing, or Finishing)",
      "url": "https://haz-map.com/Processes/235"
    }
  ]
}