{
  "metadata": {
    "scraped_from": "https://haz-map.com/Agents/1516",
    "entity_name": "Terpinolene",
    "category": "agents",
    "uuid": "4689a06f-fc04-4342-8796-38a43cc34355",
    "scraped_at": "2025-07-23T19:00:32.528924"
  },
  "parsed_at": "2025-07-24T00:52:34.532604",
  "title": "Terpinolene",
  "sections": {
    "general": {
      "agent_name": {
        "original_name": "Agent Name",
        "value": "Terpinolene",
        "links": [],
        "cross_references": [
          {
            "type": "name_match",
            "text": "terpinolene",
            "confidence": 1.0,
            "uuid": "4689a06f-fc04-4342-8796-38a43cc34355",
            "name": "Terpinolene",
            "url": "https://haz-map.com/Agents/1516",
            "category": "agents"
          }
        ]
      },
      "cas_number": {
        "original_name": "CAS Number",
        "value": "586-62-9",
        "links": [],
        "cross_references": []
      },
      "formula": {
        "original_name": "Formula",
        "value": "C10-H16",
        "links": [],
        "cross_references": []
      },
      "major_category": {
        "original_name": "Major Category",
        "value": "Biological Agents",
        "links": [],
        "cross_references": []
      },
      "synonyms": {
        "original_name": "Synonyms",
        "value": "1,4(8)-Terpadiene; 1,4(8)-p-Menthadiene; 1-Methyl-4-(1-methylethylidene)cyclohexene; 1-Methyl-4-isopropylidene-1-cyclohexene; 4-Isopropylidene-1-methylcyclohexene; Cyclohexene, 1-methyl-4-(1-methylethylidene)-; Isoterpinene; Nofmer TP; Tereben; Terpinolen; p-Menth-1,4(8)-diene; p-Mentha-1,4(8)-diene; Cyclohexene, 3-methyl-6-(1-methylethylidene)- (9CI); UN2541; [ChemIDplus]",
        "links": [],
        "cross_references": [
          {
            "type": "name_match",
            "text": "cyclohexene",
            "confidence": 1.0,
            "uuid": "899603b1-ebcd-41d9-a67b-1e8d7d4eee3f",
            "name": "Cyclohexene",
            "url": "https://haz-map.com/Agents/1173",
            "category": "agents"
          },
          {
            "type": "name_match",
            "text": "hexene",
            "confidence": 1.0,
            "uuid": "592a6801-2d0b-441f-b3f6-6d67971256b7",
            "name": "Hexene",
            "url": "https://haz-map.com/Agents/5534",
            "category": "agents"
          },
          {
            "type": "name_match",
            "text": "pinene",
            "confidence": 1.0,
            "uuid": "901547b6-56e4-403d-ade3-5fa9862fa975",
            "name": "Pinene",
            "url": "https://haz-map.com/Agents/16102",
            "category": "agents"
          },
          {
            "type": "name_match",
            "text": "1-methylcyclohexene",
            "confidence": 1.0,
            "uuid": "dfad84fc-788f-401b-9c0f-6c5c8ebd376b",
            "name": "1-Methylcyclohexene",
            "url": "https://haz-map.com/Agents/19386",
            "category": "agents"
          }
        ]
      },
      "category": {
        "original_name": "Category",
        "value": "Terpenes",
        "links": [],
        "cross_references": [
          {
            "type": "name_match",
            "text": "terpenes",
            "confidence": 1.0,
            "uuid": "0a11dd9e-f81d-477b-b44c-85ca49ab02f4",
            "name": "TERPENES",
            "url": "https://haz-map.com/Agents/817",
            "category": "agents"
          }
        ]
      },
      "description": {
        "original_name": "Description",
        "value": "Colorless to pale-yellow, oily liquid with a pine-like odor; [HSDB]",
        "links": [],
        "cross_references": []
      },
      "sourcesuses": {
        "original_name": "Sources/Uses",
        "value": "Used as a fragrance and food flavoring agent; Used as a solvent for resins and oils and a chemical intermediate; [HSDB]",
        "links": [],
        "cross_references": [
          {
            "type": "name_match",
            "text": "mica",
            "confidence": 1.0,
            "uuid": "433f26f1-c399-4596-b179-ce3843cfd465",
            "name": "Mica",
            "url": "https://haz-map.com/Agents/621",
            "category": "agents"
          }
        ]
      },
      "comments": {
        "original_name": "Comments",
        "value": "Safe when used as a flavoring agent; [JECFA] Not a sensitizer in the maximization test; A positive patch test was reported in a woman using a machine cleaner containing terpinolene. [NTP] Included in list of \"established contact allergens in humans\"; [EC: Scientific Committee on Consumer Safety: Fragrance allergens in cosmetic products (2011)] See \"3-Carene\" and \"Limonene.\"",
        "links": [],
        "cross_references": [
          {
            "type": "name_match",
            "text": "terpinolene",
            "confidence": 1.0,
            "uuid": "4689a06f-fc04-4342-8796-38a43cc34355",
            "name": "Terpinolene",
            "url": "https://haz-map.com/Agents/1516",
            "category": "agents"
          },
          {
            "type": "name_match",
            "text": "3-carene",
            "confidence": 1.0,
            "uuid": "5248dcc5-2baa-428a-8f16-763660a91a71",
            "name": "3-Carene",
            "url": "https://haz-map.com/Agents/7830",
            "category": "agents"
          },
          {
            "type": "name_match",
            "text": "limonene",
            "confidence": 1.0,
            "uuid": "3163e8e1-22f8-4fa6-8bbe-3f53283ab08a",
            "name": "Limonene",
            "url": "https://haz-map.com/Agents/7847",
            "category": "agents"
          }
        ]
      },
      "biomedical_references": {
        "original_name": "Biomedical References",
        "value": "Search PubMed",
        "links": [
          {
            "text": "Search PubMed",
            "url": "https://www.ncbi.nlm.nih.gov/pubmed?term=Terpinolene%20AND%20human%5Bmh%5D%20AND%20%28Occupational%20Diseases%20%5Bmh%5D%20OR%20Occupational%20Exposure%20%5Bmh%5D%29%20%20AND%20%28tox%5Bsb%5D%29&cmd=search"
          }
        ],
        "cross_references": []
      }
    },
    "exposure_assessment": {
      "vapor_pressure": {
        "original_name": "Vapor Pressure",
        "value": "0.743 mm Hg",
        "links": [],
        "cross_references": []
      },
      "explanatory_notes": {
        "original_name": "Explanatory Notes",
        "value": "VP from ChemIDplus;",
        "links": [],
        "cross_references": []
      }
    },
    "adverse_effects": {
      "skin_sensitizer": {
        "original_name": "Skin Sensitizer",
        "value": "Yes",
        "links": [],
        "cross_references": []
      },
      "neurotoxin": {
        "original_name": "Neurotoxin",
        "value": "Acute solvent syndrome",
        "links": [],
        "cross_references": []
      }
    },
    "diseases_processes_and_activities_linked_to_this_agent": {
      "diseases": {
        "original_name": "Diseases",
        "value": "Occupational diseases associated with exposure to this agent: Contact dermatitis, allergic Solvents, acute toxic effect",
        "links": [
          {
            "text": "Contact dermatitis, allergic",
            "url": "https://haz-map.com/Diseases/18"
          },
          {
            "text": "Solvents, acute toxic effect",
            "url": "https://haz-map.com/Diseases/326"
          }
        ],
        "cross_references": [
          {
            "type": "url_match",
            "text": "Contact dermatitis, allergic",
            "url": "https://haz-map.com/Diseases/18",
            "confidence": 1.0,
            "uuid": "c9499de0-9aa1-41bf-8753-cd5b28a63e29",
            "name": "Contact dermatitis, allergic",
            "category": "diseases"
          },
          {
            "type": "url_match",
            "text": "Solvents, acute toxic effect",
            "url": "https://haz-map.com/Diseases/326",
            "confidence": 1.0,
            "uuid": "581e90e3-9d0c-45f0-aa6c-3468c28da129",
            "name": "Solvents, acute toxic effect",
            "category": "diseases"
          },
          {
            "type": "name_match",
            "text": "dermatitis",
            "confidence": 1.0,
            "uuid": "fe9c05f2-b19f-4ceb-ac7a-ffb7d7a0cae0",
            "name": "dermatitis",
            "url": "https://haz-map.com/Findings/59",
            "category": "findings"
          }
        ]
      }
    }
  },
  "cross_references": [
    {
      "type": "url_match",
      "text": "Contact dermatitis, allergic",
      "url": "https://haz-map.com/Diseases/18",
      "confidence": 1.0,
      "uuid": "c9499de0-9aa1-41bf-8753-cd5b28a63e29",
      "name": "Contact dermatitis, allergic",
      "category": "diseases"
    },
    {
      "type": "url_match",
      "text": "Solvents, acute toxic effect",
      "url": "https://haz-map.com/Diseases/326",
      "confidence": 1.0,
      "uuid": "581e90e3-9d0c-45f0-aa6c-3468c28da129",
      "name": "Solvents, acute toxic effect",
      "category": "diseases"
    },
    {
      "type": "name_match",
      "text": "dermatitis",
      "confidence": 1.0,
      "uuid": "fe9c05f2-b19f-4ceb-ac7a-ffb7d7a0cae0",
      "name": "dermatitis",
      "url": "https://haz-map.com/Findings/59",
      "category": "findings"
    },
    {
      "type": "name_match",
      "text": "mica",
      "confidence": 1.0,
      "uuid": "433f26f1-c399-4596-b179-ce3843cfd465",
      "name": "Mica",
      "url": "https://haz-map.com/Agents/621",
      "category": "agents"
    },
    {
      "type": "name_match",
      "text": "terpenes",
      "confidence": 1.0,
      "uuid": "0a11dd9e-f81d-477b-b44c-85ca49ab02f4",
      "name": "TERPENES",
      "url": "https://haz-map.com/Agents/817",
      "category": "agents"
    },
    {
      "type": "name_match",
      "text": "cyclohexene",
      "confidence": 1.0,
      "uuid": "899603b1-ebcd-41d9-a67b-1e8d7d4eee3f",
      "name": "Cyclohexene",
      "url": "https://haz-map.com/Agents/1173",
      "category": "agents"
    },
    {
      "type": "name_match",
      "text": "terpinolene",
      "confidence": 1.0,
      "uuid": "4689a06f-fc04-4342-8796-38a43cc34355",
      "name": "Terpinolene",
      "url": "https://haz-map.com/Agents/1516",
      "category": "agents"
    },
    {
      "type": "name_match",
      "text": "hexene",
      "confidence": 1.0,
      "uuid": "592a6801-2d0b-441f-b3f6-6d67971256b7",
      "name": "Hexene",
      "url": "https://haz-map.com/Agents/5534",
      "category": "agents"
    },
    {
      "type": "name_match",
      "text": "3-carene",
      "confidence": 1.0,
      "uuid": "5248dcc5-2baa-428a-8f16-763660a91a71",
      "name": "3-Carene",
      "url": "https://haz-map.com/Agents/7830",
      "category": "agents"
    },
    {
      "type": "name_match",
      "text": "limonene",
      "confidence": 1.0,
      "uuid": "3163e8e1-22f8-4fa6-8bbe-3f53283ab08a",
      "name": "Limonene",
      "url": "https://haz-map.com/Agents/7847",
      "category": "agents"
    },
    {
      "type": "name_match",
      "text": "pinene",
      "confidence": 1.0,
      "uuid": "901547b6-56e4-403d-ade3-5fa9862fa975",
      "name": "Pinene",
      "url": "https://haz-map.com/Agents/16102",
      "category": "agents"
    },
    {
      "type": "name_match",
      "text": "1-methylcyclohexene",
      "confidence": 1.0,
      "uuid": "dfad84fc-788f-401b-9c0f-6c5c8ebd376b",
      "name": "1-Methylcyclohexene",
      "url": "https://haz-map.com/Agents/19386",
      "category": "agents"
    }
  ],
  "all_links": [
    {
      "text": "Search PubMed",
      "url": "https://www.ncbi.nlm.nih.gov/pubmed?term=Terpinolene%20AND%20human%5Bmh%5D%20AND%20%28Occupational%20Diseases%20%5Bmh%5D%20OR%20Occupational%20Exposure%20%5Bmh%5D%29%20%20AND%20%28tox%5Bsb%5D%29&cmd=search"
    },
    {
      "text": "Contact dermatitis, allergic",
      "url": "https://haz-map.com/Diseases/18"
    },
    {
      "text": "Solvents, acute toxic effect",
      "url": "https://haz-map.com/Diseases/326"
    }
  ]
}