{
  "metadata": {
    "scraped_from": "https://haz-map.com/Agents/11437",
    "entity_name": "4-Hydroxypyrimidine",
    "category": "agents",
    "uuid": "46e8b43d-ebc2-4ace-b655-a58a8b9404e2",
    "scraped_at": "2025-07-23T20:59:07.979580"
  },
  "parsed_at": "2025-07-24T01:18:02.419431",
  "title": "4-Hydroxypyrimidine",
  "sections": {
    "general": {
      "agent_name": {
        "original_name": "Agent Name",
        "value": "4-Hydroxypyrimidine",
        "links": [],
        "cross_references": [
          {
            "type": "name_match",
            "text": "pyrimidine",
            "confidence": 1.0,
            "uuid": "8c810e75-fc30-4402-838c-43fcd0d46a84",
            "name": "Pyrimidine",
            "url": "https://haz-map.com/Agents/9521",
            "category": "agents"
          },
          {
            "type": "name_match",
            "text": "4-hydroxypyrimidine",
            "confidence": 1.0,
            "uuid": "46e8b43d-ebc2-4ace-b655-a58a8b9404e2",
            "name": "4-Hydroxypyrimidine",
            "url": "https://haz-map.com/Agents/11437",
            "category": "agents"
          }
        ]
      },
      "cas_number": {
        "original_name": "CAS Number",
        "value": "4562-27-0",
        "links": [],
        "cross_references": []
      },
      "formula": {
        "original_name": "Formula",
        "value": "C4-H4-N2-O",
        "links": [],
        "cross_references": []
      },
      "major_category": {
        "original_name": "Major Category",
        "value": "Nitrogen Compounds",
        "links": [],
        "cross_references": [
          {
            "type": "name_match",
            "text": "nitrogen",
            "confidence": 1.0,
            "uuid": "db5e90a9-06d2-45b9-8b81-f345a89b0bc0",
            "name": "Nitrogen",
            "url": "https://haz-map.com/Agents/1072",
            "category": "agents"
          }
        ]
      },
      "synonyms": {
        "original_name": "Synonyms",
        "value": "4-Oxopyrimidine; 4-Oxypyrimidine; 4-Pyrimidinol; 4-Pyrimidinol (VAN); 4-Pyrimidinone; 4-Pyrimidone; 6-Hydroxypyrimidine; Deaminoisocytosine; 1H-Pyrimidin-4-one; 4(1H)-Pyrimidinone; 4(3H)-Pyrimidinone; [ChemIDplus]",
        "links": [],
        "cross_references": [
          {
            "type": "name_match",
            "text": "pyrimidine",
            "confidence": 1.0,
            "uuid": "8c810e75-fc30-4402-838c-43fcd0d46a84",
            "name": "Pyrimidine",
            "url": "https://haz-map.com/Agents/9521",
            "category": "agents"
          },
          {
            "type": "name_match",
            "text": "4(3h)-pyrimidinone",
            "confidence": 1.0,
            "uuid": "8a1fe667-1062-4e18-85d8-8fd6f2441711",
            "name": "4(3H)-Pyrimidinone",
            "url": "https://haz-map.com/Agents/11445",
            "category": "agents"
          },
          {
            "type": "name_match",
            "text": "cytosine",
            "confidence": 1.0,
            "uuid": "f72bad68-a746-453b-a774-7e2b6fffd2df",
            "name": "Cytosine",
            "url": "https://haz-map.com/Agents/13568",
            "category": "agents"
          }
        ]
      },
      "category": {
        "original_name": "Category",
        "value": "Pyrimidines",
        "links": [],
        "cross_references": [
          {
            "type": "name_match",
            "text": "pyrimidine",
            "confidence": 1.0,
            "uuid": "8c810e75-fc30-4402-838c-43fcd0d46a84",
            "name": "Pyrimidine",
            "url": "https://haz-map.com/Agents/9521",
            "category": "agents"
          }
        ]
      },
      "description": {
        "original_name": "Description",
        "value": "White powder; [Alfa Aesar MSDS]",
        "links": [],
        "cross_references": []
      },
      "comments": {
        "original_name": "Comments",
        "value": "May cause irritation; [Alfa Aesar MSDS]",
        "links": [],
        "cross_references": []
      },
      "biomedical_references": {
        "original_name": "Biomedical References",
        "value": "Search PubMed",
        "links": [
          {
            "text": "Search PubMed",
            "url": "https://www.ncbi.nlm.nih.gov/pubmed?term=4-Hydroxypyrimidine%20AND%20human%5Bmh%5D%20AND%20%28Occupational%20Diseases%20%5Bmh%5D%20OR%20Occupational%20Exposure%20%5Bmh%5D%29%20%20AND%20%28tox%5Bsb%5D%29&cmd=search"
          }
        ],
        "cross_references": []
      }
    },
    "exposure_assessment": {
      "vapor_pressure": {
        "original_name": "Vapor Pressure",
        "value": "6.64E-05 mm Hg",
        "links": [],
        "cross_references": []
      }
    },
    "diseases_processes_and_activities_linked_to_this_agent": {
      "other_information": {
        "original_name": "Other Information",
        "value": "No other related information on this agent was found.",
        "links": [],
        "cross_references": []
      }
    }
  },
  "cross_references": [
    {
      "type": "name_match",
      "text": "nitrogen",
      "confidence": 1.0,
      "uuid": "db5e90a9-06d2-45b9-8b81-f345a89b0bc0",
      "name": "Nitrogen",
      "url": "https://haz-map.com/Agents/1072",
      "category": "agents"
    },
    {
      "type": "name_match",
      "text": "pyrimidine",
      "confidence": 1.0,
      "uuid": "8c810e75-fc30-4402-838c-43fcd0d46a84",
      "name": "Pyrimidine",
      "url": "https://haz-map.com/Agents/9521",
      "category": "agents"
    },
    {
      "type": "name_match",
      "text": "4-hydroxypyrimidine",
      "confidence": 1.0,
      "uuid": "46e8b43d-ebc2-4ace-b655-a58a8b9404e2",
      "name": "4-Hydroxypyrimidine",
      "url": "https://haz-map.com/Agents/11437",
      "category": "agents"
    },
    {
      "type": "name_match",
      "text": "4(3h)-pyrimidinone",
      "confidence": 1.0,
      "uuid": "8a1fe667-1062-4e18-85d8-8fd6f2441711",
      "name": "4(3H)-Pyrimidinone",
      "url": "https://haz-map.com/Agents/11445",
      "category": "agents"
    },
    {
      "type": "name_match",
      "text": "cytosine",
      "confidence": 1.0,
      "uuid": "f72bad68-a746-453b-a774-7e2b6fffd2df",
      "name": "Cytosine",
      "url": "https://haz-map.com/Agents/13568",
      "category": "agents"
    }
  ],
  "all_links": [
    {
      "text": "Search PubMed",
      "url": "https://www.ncbi.nlm.nih.gov/pubmed?term=4-Hydroxypyrimidine%20AND%20human%5Bmh%5D%20AND%20%28Occupational%20Diseases%20%5Bmh%5D%20OR%20Occupational%20Exposure%20%5Bmh%5D%29%20%20AND%20%28tox%5Bsb%5D%29&cmd=search"
    }
  ]
}