{
  "metadata": {
    "scraped_from": "https://haz-map.com/Agents/17224",
    "entity_name": "sec-Butyl iodide",
    "category": "agents",
    "uuid": "46e97959-e52a-474d-9304-98806b40e66e",
    "scraped_at": "2025-07-23T21:44:37.578930"
  },
  "parsed_at": "2025-07-24T01:10:12.234647",
  "title": "sec-Butyl iodide",
  "sections": {
    "general": {
      "agent_name": {
        "original_name": "Agent Name",
        "value": "sec-Butyl iodide",
        "links": [],
        "cross_references": [
          {
            "type": "name_match",
            "text": "sec-butyl iodide",
            "confidence": 1.0,
            "uuid": "46e97959-e52a-474d-9304-98806b40e66e",
            "name": "sec-Butyl iodide",
            "url": "https://haz-map.com/Agents/17224",
            "category": "agents"
          }
        ]
      },
      "alternative_name": {
        "original_name": "Alternative Name",
        "value": "2-Iodobutane",
        "links": [],
        "cross_references": []
      },
      "cas_number": {
        "original_name": "CAS Number",
        "value": "513-48-4",
        "links": [],
        "cross_references": []
      },
      "formula": {
        "original_name": "Formula",
        "value": "C4-H9-I",
        "links": [],
        "cross_references": []
      },
      "major_category": {
        "original_name": "Major Category",
        "value": "Other Classes",
        "links": [],
        "cross_references": []
      },
      "synonyms": {
        "original_name": "Synonyms",
        "value": "2-Butyl iodide; 2-Iodobutane; 2-Jodbutan [Czech]; sec-Iodobutane; Butane, 2-iodo-; [ChemIDplus] Iodobutane; [CAMEO] UN2390",
        "links": [],
        "cross_references": []
      },
      "category": {
        "original_name": "Category",
        "value": "Halogenated Aliphatics, Saturated",
        "links": [],
        "cross_references": []
      },
      "description": {
        "original_name": "Description",
        "value": "Colorless liquid with an ether-like odor; [Alfa Aesar MSDS]",
        "links": [],
        "cross_references": []
      },
      "sourcesuses": {
        "original_name": "Sources/Uses",
        "value": "Used as a solvent and to make other chemicals; [CAMEO]",
        "links": [],
        "cross_references": [
          {
            "type": "name_match",
            "text": "mica",
            "confidence": 1.0,
            "uuid": "433f26f1-c399-4596-b179-ce3843cfd465",
            "name": "Mica",
            "url": "https://haz-map.com/Agents/621",
            "category": "agents"
          }
        ]
      },
      "comments": {
        "original_name": "Comments",
        "value": "A skin and strong eye irritant; [Alfa Aesar MSDS] See \"Isopropyl iodide.\" See \"2-Bromobutane.\"",
        "links": [],
        "cross_references": [
          {
            "type": "name_match",
            "text": "2-bromobutane",
            "confidence": 1.0,
            "uuid": "5ed7bd5e-675c-4985-a03b-571bc69ee9b7",
            "name": "2-Bromobutane",
            "url": "https://haz-map.com/Agents/3077",
            "category": "agents"
          },
          {
            "type": "name_match",
            "text": "isopropyl iodide",
            "confidence": 1.0,
            "uuid": "a0095e4f-5b53-4f46-9e6f-ec017e1e4dbc",
            "name": "Isopropyl iodide",
            "url": "https://haz-map.com/Agents/8526",
            "category": "agents"
          },
          {
            "type": "name_match",
            "text": "propyl iodide",
            "confidence": 1.0,
            "uuid": "9becd8bd-1ade-4334-8b2b-98f1389bee1b",
            "name": "Propyl iodide",
            "url": "https://haz-map.com/Agents/9492",
            "category": "agents"
          }
        ]
      },
      "biomedical_references": {
        "original_name": "Biomedical References",
        "value": "Search PubMed",
        "links": [
          {
            "text": "Search PubMed",
            "url": "https://www.ncbi.nlm.nih.gov/pubmed?term=sec-Butyl+iodide%20AND%20human%5Bmh%5D%20AND%20%28Occupational%20Diseases%20%5Bmh%5D%20OR%20Occupational%20Exposure%20%5Bmh%5D%29%20%20AND%20%28tox%5Bsb%5D%29&cmd=search"
          }
        ],
        "cross_references": []
      }
    },
    "exposure_assessment": {
      "vapor_pressure": {
        "original_name": "Vapor Pressure",
        "value": "17.1 mm Hg",
        "links": [],
        "cross_references": []
      }
    },
    "diseases_processes_and_activities_linked_to_this_agent": {
      "other_information": {
        "original_name": "Other Information",
        "value": "No other related information on this agent was found.",
        "links": [],
        "cross_references": []
      }
    }
  },
  "cross_references": [
    {
      "type": "name_match",
      "text": "mica",
      "confidence": 1.0,
      "uuid": "433f26f1-c399-4596-b179-ce3843cfd465",
      "name": "Mica",
      "url": "https://haz-map.com/Agents/621",
      "category": "agents"
    },
    {
      "type": "name_match",
      "text": "2-bromobutane",
      "confidence": 1.0,
      "uuid": "5ed7bd5e-675c-4985-a03b-571bc69ee9b7",
      "name": "2-Bromobutane",
      "url": "https://haz-map.com/Agents/3077",
      "category": "agents"
    },
    {
      "type": "name_match",
      "text": "isopropyl iodide",
      "confidence": 1.0,
      "uuid": "a0095e4f-5b53-4f46-9e6f-ec017e1e4dbc",
      "name": "Isopropyl iodide",
      "url": "https://haz-map.com/Agents/8526",
      "category": "agents"
    },
    {
      "type": "name_match",
      "text": "propyl iodide",
      "confidence": 1.0,
      "uuid": "9becd8bd-1ade-4334-8b2b-98f1389bee1b",
      "name": "Propyl iodide",
      "url": "https://haz-map.com/Agents/9492",
      "category": "agents"
    },
    {
      "type": "name_match",
      "text": "sec-butyl iodide",
      "confidence": 1.0,
      "uuid": "46e97959-e52a-474d-9304-98806b40e66e",
      "name": "sec-Butyl iodide",
      "url": "https://haz-map.com/Agents/17224",
      "category": "agents"
    }
  ],
  "all_links": [
    {
      "text": "Search PubMed",
      "url": "https://www.ncbi.nlm.nih.gov/pubmed?term=sec-Butyl+iodide%20AND%20human%5Bmh%5D%20AND%20%28Occupational%20Diseases%20%5Bmh%5D%20OR%20Occupational%20Exposure%20%5Bmh%5D%29%20%20AND%20%28tox%5Bsb%5D%29&cmd=search"
    }
  ]
}