{
  "metadata": {
    "scraped_from": "https://haz-map.com/Agents/15435",
    "entity_name": "meso-Hydrobenzoin",
    "category": "agents",
    "uuid": "46fb202b-4695-45d9-99cd-9b5fbafb485b",
    "scraped_at": "2025-07-23T21:29:54.473082"
  },
  "parsed_at": "2025-07-24T01:12:59.614011",
  "title": "meso-Hydrobenzoin",
  "sections": {
    "general": {
      "agent_name": {
        "original_name": "Agent Name",
        "value": "meso-Hydrobenzoin",
        "links": [],
        "cross_references": [
          {
            "type": "name_match",
            "text": "benzoin",
            "confidence": 1.0,
            "uuid": "c4a61624-2e47-4742-8b8e-73698e25d3ca",
            "name": "Benzoin",
            "url": "https://haz-map.com/Agents/3861",
            "category": "agents"
          },
          {
            "type": "name_match",
            "text": "hydrobenzoin",
            "confidence": 1.0,
            "uuid": "eb7cf254-0a99-4e9b-906a-938d260b225c",
            "name": "Hydrobenzoin",
            "url": "https://haz-map.com/Agents/14792",
            "category": "agents"
          },
          {
            "type": "name_match",
            "text": "meso-hydrobenzoin",
            "confidence": 1.0,
            "uuid": "46fb202b-4695-45d9-99cd-9b5fbafb485b",
            "name": "meso-Hydrobenzoin",
            "url": "https://haz-map.com/Agents/15435",
            "category": "agents"
          }
        ]
      },
      "cas_number": {
        "original_name": "CAS Number",
        "value": "579-43-1",
        "links": [],
        "cross_references": []
      },
      "formula": {
        "original_name": "Formula",
        "value": "C14-H14-O2",
        "links": [],
        "cross_references": []
      },
      "major_category": {
        "original_name": "Major Category",
        "value": "Other Classes",
        "links": [],
        "cross_references": []
      },
      "synonyms": {
        "original_name": "Synonyms",
        "value": "meso-1 ,2-Diphenyl-1 ,2-ethanediol; [Sigma-Aldrich MSDS]",
        "links": [],
        "cross_references": [
          {
            "type": "name_match",
            "text": "ethane",
            "confidence": 1.0,
            "uuid": "5162cc8c-dfb9-4060-81ac-38a8cec7f9dd",
            "name": "Ethane",
            "url": "https://haz-map.com/Agents/1075",
            "category": "agents"
          }
        ]
      },
      "category": {
        "original_name": "Category",
        "value": "Alcohols and Polyols, Other",
        "links": [],
        "cross_references": []
      },
      "description": {
        "original_name": "Description",
        "value": "Solid; [Merck Index]",
        "links": [],
        "cross_references": []
      },
      "comments": {
        "original_name": "Comments",
        "value": "May cause irritation; [Sigma-Aldrich MSDS] See \"Hydrobenzoin.\"",
        "links": [],
        "cross_references": [
          {
            "type": "name_match",
            "text": "benzoin",
            "confidence": 1.0,
            "uuid": "c4a61624-2e47-4742-8b8e-73698e25d3ca",
            "name": "Benzoin",
            "url": "https://haz-map.com/Agents/3861",
            "category": "agents"
          },
          {
            "type": "name_match",
            "text": "hydrobenzoin",
            "confidence": 1.0,
            "uuid": "eb7cf254-0a99-4e9b-906a-938d260b225c",
            "name": "Hydrobenzoin",
            "url": "https://haz-map.com/Agents/14792",
            "category": "agents"
          }
        ]
      },
      "biomedical_references": {
        "original_name": "Biomedical References",
        "value": "Search PubMed",
        "links": [
          {
            "text": "Search PubMed",
            "url": "https://www.ncbi.nlm.nih.gov/pubmed?term=meso-Hydrobenzoin%20AND%20human%5Bmh%5D%20AND%20%28Occupational%20Diseases%20%5Bmh%5D%20OR%20Occupational%20Exposure%20%5Bmh%5D%29%20%20AND%20%28tox%5Bsb%5D%29&cmd=search"
          }
        ],
        "cross_references": []
      }
    },
    "exposure_assessment": {
      "vapor_pressure": {
        "original_name": "Vapor Pressure",
        "value": "2.06E-07 mm Hg",
        "links": [],
        "cross_references": []
      }
    },
    "diseases_processes_and_activities_linked_to_this_agent": {
      "other_information": {
        "original_name": "Other Information",
        "value": "No other related information on this agent was found.",
        "links": [],
        "cross_references": []
      }
    }
  },
  "cross_references": [
    {
      "type": "name_match",
      "text": "ethane",
      "confidence": 1.0,
      "uuid": "5162cc8c-dfb9-4060-81ac-38a8cec7f9dd",
      "name": "Ethane",
      "url": "https://haz-map.com/Agents/1075",
      "category": "agents"
    },
    {
      "type": "name_match",
      "text": "benzoin",
      "confidence": 1.0,
      "uuid": "c4a61624-2e47-4742-8b8e-73698e25d3ca",
      "name": "Benzoin",
      "url": "https://haz-map.com/Agents/3861",
      "category": "agents"
    },
    {
      "type": "name_match",
      "text": "hydrobenzoin",
      "confidence": 1.0,
      "uuid": "eb7cf254-0a99-4e9b-906a-938d260b225c",
      "name": "Hydrobenzoin",
      "url": "https://haz-map.com/Agents/14792",
      "category": "agents"
    },
    {
      "type": "name_match",
      "text": "meso-hydrobenzoin",
      "confidence": 1.0,
      "uuid": "46fb202b-4695-45d9-99cd-9b5fbafb485b",
      "name": "meso-Hydrobenzoin",
      "url": "https://haz-map.com/Agents/15435",
      "category": "agents"
    }
  ],
  "all_links": [
    {
      "text": "Search PubMed",
      "url": "https://www.ncbi.nlm.nih.gov/pubmed?term=meso-Hydrobenzoin%20AND%20human%5Bmh%5D%20AND%20%28Occupational%20Diseases%20%5Bmh%5D%20OR%20Occupational%20Exposure%20%5Bmh%5D%29%20%20AND%20%28tox%5Bsb%5D%29&cmd=search"
    }
  ]
}