{
  "metadata": {
    "scraped_from": "https://haz-map.com/Agents/1505",
    "entity_name": "beta-Hexachlorocyclohexane",
    "category": "agents",
    "uuid": "470fcf3c-dc48-40e6-83a0-22338ed85d9a",
    "scraped_at": "2025-07-23T19:00:22.134326"
  },
  "parsed_at": "2025-07-24T01:00:54.589828",
  "title": "beta-Hexachlorocyclohexane",
  "sections": {
    "general": {
      "agent_name": {
        "original_name": "Agent Name",
        "value": "beta-Hexachlorocyclohexane",
        "links": [],
        "cross_references": [
          {
            "type": "name_match",
            "text": "cyclohexane",
            "confidence": 1.0,
            "uuid": "366fabd7-ac2f-461c-969f-62dfe3bf2377",
            "name": "Cyclohexane",
            "url": "https://haz-map.com/Agents/384",
            "category": "agents"
          },
          {
            "type": "name_match",
            "text": "beta-hexachlorocyclohexane",
            "confidence": 1.0,
            "uuid": "470fcf3c-dc48-40e6-83a0-22338ed85d9a",
            "name": "beta-Hexachlorocyclohexane",
            "url": "https://haz-map.com/Agents/1505",
            "category": "agents"
          },
          {
            "type": "name_match",
            "text": "chlorocyclohexane",
            "confidence": 1.0,
            "uuid": "2346a10d-3c1b-42b3-a996-3fd429943ee2",
            "name": "Chlorocyclohexane",
            "url": "https://haz-map.com/Agents/4332",
            "category": "agents"
          }
        ]
      },
      "cas_number": {
        "original_name": "CAS Number",
        "value": "319-85-7",
        "links": [],
        "cross_references": []
      },
      "formula": {
        "original_name": "Formula",
        "value": "C6-H6-Cl6",
        "links": [],
        "cross_references": []
      },
      "major_category": {
        "original_name": "Major Category",
        "value": "Pesticides",
        "links": [],
        "cross_references": []
      },
      "synonyms": {
        "original_name": "Synonyms",
        "value": "1-alpha,2-beta,3-alpha,4-beta,5-alpha,6-beta-Hexachlorocyclohexane; Cyclohexane, 1,2,3,4,5,6-hexachloro-,; (1alpha,2beta,3alpha,4beta,5alpha,6beta)-; Cyclohexane, 1,2,3,4,5,6-hexachloro-, beta-isomer; Cyclohexane, beta-1,2,3,4,5,6-hexachloro-; beta-BHC; beta-HCH; beta-Hexachloran; beta-Hexachlorobenzene; beta-Hexachlorocyclohexane; beta-Lindane; trans-alpha-Benzenehexachloride; [ChemIDplus]",
        "links": [],
        "cross_references": [
          {
            "type": "name_match",
            "text": "benzene",
            "confidence": 1.0,
            "uuid": "b05124de-5f34-4c14-8f04-ccb20c3780d9",
            "name": "Benzene",
            "url": "https://haz-map.com/Agents/5",
            "category": "agents"
          },
          {
            "type": "name_match",
            "text": "chlorobenzene",
            "confidence": 1.0,
            "uuid": "7e598eca-f35d-493c-aa78-93bb67744c4c",
            "name": "Chlorobenzene",
            "url": "https://haz-map.com/Agents/85",
            "category": "agents"
          },
          {
            "type": "name_match",
            "text": "lindane",
            "confidence": 1.0,
            "uuid": "19252c2d-d3f7-459f-ae99-e081be2534c9",
            "name": "Lindane",
            "url": "https://haz-map.com/Agents/237",
            "category": "agents"
          },
          {
            "type": "name_match",
            "text": "cyclohexane",
            "confidence": 1.0,
            "uuid": "366fabd7-ac2f-461c-969f-62dfe3bf2377",
            "name": "Cyclohexane",
            "url": "https://haz-map.com/Agents/384",
            "category": "agents"
          },
          {
            "type": "name_match",
            "text": "hexachlorobenzene",
            "confidence": 1.0,
            "uuid": "7090e49a-31d7-4263-84e5-f95222aabb46",
            "name": "Hexachlorobenzene",
            "url": "https://haz-map.com/Agents/774",
            "category": "agents"
          },
          {
            "type": "name_match",
            "text": "beta-hexachlorocyclohexane",
            "confidence": 1.0,
            "uuid": "470fcf3c-dc48-40e6-83a0-22338ed85d9a",
            "name": "beta-Hexachlorocyclohexane",
            "url": "https://haz-map.com/Agents/1505",
            "category": "agents"
          },
          {
            "type": "name_match",
            "text": "chlorocyclohexane",
            "confidence": 1.0,
            "uuid": "2346a10d-3c1b-42b3-a996-3fd429943ee2",
            "name": "Chlorocyclohexane",
            "url": "https://haz-map.com/Agents/4332",
            "category": "agents"
          },
          {
            "type": "name_match",
            "text": "indan",
            "confidence": 1.0,
            "uuid": "ebba867b-a993-436a-85fb-f7d1183da941",
            "name": "Indan",
            "url": "https://haz-map.com/Agents/19450",
            "category": "agents"
          }
        ]
      },
      "category": {
        "original_name": "Category",
        "value": "Organochlorine Pesticides",
        "links": [],
        "cross_references": [
          {
            "type": "name_match",
            "text": "chlorine",
            "confidence": 1.0,
            "uuid": "8a67a545-61fb-4d71-865e-ff2725a0b999",
            "name": "Chlorine",
            "url": "https://haz-map.com/Agents/89",
            "category": "agents"
          },
          {
            "type": "name_match",
            "text": "chlorin",
            "confidence": 1.0,
            "uuid": "4a566fec-ec7e-42b0-9f14-ec586335e694",
            "name": "Chlorin",
            "url": "https://haz-map.com/Agents/20422",
            "category": "agents"
          }
        ]
      },
      "description": {
        "original_name": "Description",
        "value": "Crystalline powder; [ICSC]",
        "links": [],
        "cross_references": [
          {
            "type": "fuzzy_match",
            "text": "crystalline",
            "matched_name": "Silica, crystalline",
            "confidence": 0.7061403508771931,
            "uuid": "f920e8a2-46df-41b7-af8d-0368a777251e",
            "category": "agents",
            "url": "https://haz-map.com/Agents/427"
          }
        ]
      },
      "sourcesuses": {
        "original_name": "Sources/Uses",
        "value": "Formerly used in the USA as an insecticide; [HSDB] A component of the insecticide hexachlorocyclohexane (isomer mixture); [ICSC] A by-product of Lindane production; [eChemPortal: INCHEM]",
        "links": [],
        "cross_references": [
          {
            "type": "name_match",
            "text": "lindane",
            "confidence": 1.0,
            "uuid": "19252c2d-d3f7-459f-ae99-e081be2534c9",
            "name": "Lindane",
            "url": "https://haz-map.com/Agents/237",
            "category": "agents"
          },
          {
            "type": "name_match",
            "text": "cyclohexane",
            "confidence": 1.0,
            "uuid": "366fabd7-ac2f-461c-969f-62dfe3bf2377",
            "name": "Cyclohexane",
            "url": "https://haz-map.com/Agents/384",
            "category": "agents"
          },
          {
            "type": "name_match",
            "text": "chlorocyclohexane",
            "confidence": 1.0,
            "uuid": "2346a10d-3c1b-42b3-a996-3fd429943ee2",
            "name": "Chlorocyclohexane",
            "url": "https://haz-map.com/Agents/4332",
            "category": "agents"
          },
          {
            "type": "name_match",
            "text": "indan",
            "confidence": 1.0,
            "uuid": "ebba867b-a993-436a-85fb-f7d1183da941",
            "name": "Indan",
            "url": "https://haz-map.com/Agents/19450",
            "category": "agents"
          }
        ]
      },
      "comments": {
        "original_name": "Comments",
        "value": "See \"Lindane.\"",
        "links": [],
        "cross_references": [
          {
            "type": "name_match",
            "text": "lindane",
            "confidence": 1.0,
            "uuid": "19252c2d-d3f7-459f-ae99-e081be2534c9",
            "name": "Lindane",
            "url": "https://haz-map.com/Agents/237",
            "category": "agents"
          },
          {
            "type": "name_match",
            "text": "indan",
            "confidence": 1.0,
            "uuid": "ebba867b-a993-436a-85fb-f7d1183da941",
            "name": "Indan",
            "url": "https://haz-map.com/Agents/19450",
            "category": "agents"
          }
        ]
      },
      "biomedical_references": {
        "original_name": "Biomedical References",
        "value": "Search PubMed",
        "links": [
          {
            "text": "Search PubMed",
            "url": "https://www.ncbi.nlm.nih.gov/pubmed?term=beta-Hexachlorocyclohexane%20AND%20human%5Bmh%5D%20AND%20%28Occupational%20Diseases%20%5Bmh%5D%20OR%20Occupational%20Exposure%20%5Bmh%5D%29%20%20AND%20%28tox%5Bsb%5D%29&cmd=search"
          }
        ],
        "cross_references": []
      }
    },
    "exposure_assessment": {
      "bioaccumulates": {
        "original_name": "Bioaccumulates",
        "value": "Yes",
        "links": [],
        "cross_references": []
      },
      "mak": {
        "original_name": "MAK",
        "value": "0.1 mg/m3, inhalable fraction",
        "links": [],
        "cross_references": []
      },
      "vapor_pressure": {
        "original_name": "Vapor Pressure",
        "value": "0.00021 mm Hg",
        "links": [],
        "cross_references": []
      }
    },
    "adverse_effects": {
      "anemia": {
        "original_name": "Anemia",
        "value": "Aplastic anemia",
        "links": [],
        "cross_references": [
          {
            "type": "name_match",
            "text": "aplastic anemia",
            "confidence": 1.0,
            "uuid": "12475c4d-5291-4e0a-a4f1-f1f51ec05994",
            "name": "Aplastic anemia",
            "url": "https://haz-map.com/Diseases/9",
            "category": "diseases"
          },
          {
            "type": "name_match",
            "text": "anemia",
            "confidence": 1.0,
            "uuid": "be5db7c0-2652-4940-a3d9-d0afb3e2b182",
            "name": "anemia",
            "url": "https://haz-map.com/Findings/54",
            "category": "findings"
          }
        ]
      },
      "hepatotoxin": {
        "original_name": "Hepatotoxin",
        "value": "Hepatoxic (a) from occupational exposure (secondary effect) or (b) in animal studies or in humans after ingestion",
        "links": [],
        "cross_references": []
      },
      "other_poison": {
        "original_name": "Other Poison",
        "value": "Organochlorine",
        "links": [],
        "cross_references": [
          {
            "type": "name_match",
            "text": "chlorine",
            "confidence": 1.0,
            "uuid": "8a67a545-61fb-4d71-865e-ff2725a0b999",
            "name": "Chlorine",
            "url": "https://haz-map.com/Agents/89",
            "category": "agents"
          },
          {
            "type": "name_match",
            "text": "chlorin",
            "confidence": 1.0,
            "uuid": "4a566fec-ec7e-42b0-9f14-ec586335e694",
            "name": "Chlorin",
            "url": "https://haz-map.com/Agents/20422",
            "category": "agents"
          }
        ]
      }
    },
    "diseases_processes_and_activities_linked_to_this_agent": {
      "diseases": {
        "original_name": "Diseases",
        "value": "Occupational diseases associated with exposure to this agent: Organochlorine insecticides, acute poisoning",
        "links": [
          {
            "text": "Organochlorine insecticides, acute poisoning",
            "url": "https://haz-map.com/Diseases/165"
          }
        ],
        "cross_references": [
          {
            "type": "url_match",
            "text": "Organochlorine insecticides, acute poisoning",
            "url": "https://haz-map.com/Diseases/165",
            "confidence": 1.0,
            "uuid": "45193447-c4e4-4c0d-9be3-1adb006864c3",
            "name": "Organochlorine insecticides, acute poisoning",
            "category": "diseases"
          },
          {
            "type": "name_match",
            "text": "chlorine",
            "confidence": 1.0,
            "uuid": "8a67a545-61fb-4d71-865e-ff2725a0b999",
            "name": "Chlorine",
            "url": "https://haz-map.com/Agents/89",
            "category": "agents"
          },
          {
            "type": "name_match",
            "text": "chlorin",
            "confidence": 1.0,
            "uuid": "4a566fec-ec7e-42b0-9f14-ec586335e694",
            "name": "Chlorin",
            "url": "https://haz-map.com/Agents/20422",
            "category": "agents"
          }
        ]
      }
    }
  },
  "cross_references": [
    {
      "type": "url_match",
      "text": "Organochlorine insecticides, acute poisoning",
      "url": "https://haz-map.com/Diseases/165",
      "confidence": 1.0,
      "uuid": "45193447-c4e4-4c0d-9be3-1adb006864c3",
      "name": "Organochlorine insecticides, acute poisoning",
      "category": "diseases"
    },
    {
      "type": "name_match",
      "text": "aplastic anemia",
      "confidence": 1.0,
      "uuid": "12475c4d-5291-4e0a-a4f1-f1f51ec05994",
      "name": "Aplastic anemia",
      "url": "https://haz-map.com/Diseases/9",
      "category": "diseases"
    },
    {
      "type": "name_match",
      "text": "anemia",
      "confidence": 1.0,
      "uuid": "be5db7c0-2652-4940-a3d9-d0afb3e2b182",
      "name": "anemia",
      "url": "https://haz-map.com/Findings/54",
      "category": "findings"
    },
    {
      "type": "name_match",
      "text": "benzene",
      "confidence": 1.0,
      "uuid": "b05124de-5f34-4c14-8f04-ccb20c3780d9",
      "name": "Benzene",
      "url": "https://haz-map.com/Agents/5",
      "category": "agents"
    },
    {
      "type": "name_match",
      "text": "chlorobenzene",
      "confidence": 1.0,
      "uuid": "7e598eca-f35d-493c-aa78-93bb67744c4c",
      "name": "Chlorobenzene",
      "url": "https://haz-map.com/Agents/85",
      "category": "agents"
    },
    {
      "type": "name_match",
      "text": "chlorine",
      "confidence": 1.0,
      "uuid": "8a67a545-61fb-4d71-865e-ff2725a0b999",
      "name": "Chlorine",
      "url": "https://haz-map.com/Agents/89",
      "category": "agents"
    },
    {
      "type": "name_match",
      "text": "lindane",
      "confidence": 1.0,
      "uuid": "19252c2d-d3f7-459f-ae99-e081be2534c9",
      "name": "Lindane",
      "url": "https://haz-map.com/Agents/237",
      "category": "agents"
    },
    {
      "type": "name_match",
      "text": "cyclohexane",
      "confidence": 1.0,
      "uuid": "366fabd7-ac2f-461c-969f-62dfe3bf2377",
      "name": "Cyclohexane",
      "url": "https://haz-map.com/Agents/384",
      "category": "agents"
    },
    {
      "type": "name_match",
      "text": "hexachlorobenzene",
      "confidence": 1.0,
      "uuid": "7090e49a-31d7-4263-84e5-f95222aabb46",
      "name": "Hexachlorobenzene",
      "url": "https://haz-map.com/Agents/774",
      "category": "agents"
    },
    {
      "type": "name_match",
      "text": "beta-hexachlorocyclohexane",
      "confidence": 1.0,
      "uuid": "470fcf3c-dc48-40e6-83a0-22338ed85d9a",
      "name": "beta-Hexachlorocyclohexane",
      "url": "https://haz-map.com/Agents/1505",
      "category": "agents"
    },
    {
      "type": "name_match",
      "text": "chlorocyclohexane",
      "confidence": 1.0,
      "uuid": "2346a10d-3c1b-42b3-a996-3fd429943ee2",
      "name": "Chlorocyclohexane",
      "url": "https://haz-map.com/Agents/4332",
      "category": "agents"
    },
    {
      "type": "name_match",
      "text": "indan",
      "confidence": 1.0,
      "uuid": "ebba867b-a993-436a-85fb-f7d1183da941",
      "name": "Indan",
      "url": "https://haz-map.com/Agents/19450",
      "category": "agents"
    },
    {
      "type": "name_match",
      "text": "chlorin",
      "confidence": 1.0,
      "uuid": "4a566fec-ec7e-42b0-9f14-ec586335e694",
      "name": "Chlorin",
      "url": "https://haz-map.com/Agents/20422",
      "category": "agents"
    },
    {
      "type": "fuzzy_match",
      "text": "crystalline",
      "matched_name": "Silica, crystalline",
      "confidence": 0.7061403508771931,
      "uuid": "f920e8a2-46df-41b7-af8d-0368a777251e",
      "category": "agents",
      "url": "https://haz-map.com/Agents/427"
    }
  ],
  "all_links": [
    {
      "text": "Search PubMed",
      "url": "https://www.ncbi.nlm.nih.gov/pubmed?term=beta-Hexachlorocyclohexane%20AND%20human%5Bmh%5D%20AND%20%28Occupational%20Diseases%20%5Bmh%5D%20OR%20Occupational%20Exposure%20%5Bmh%5D%29%20%20AND%20%28tox%5Bsb%5D%29&cmd=search"
    },
    {
      "text": "Organochlorine insecticides, acute poisoning",
      "url": "https://haz-map.com/Diseases/165"
    }
  ]
}