{
  "metadata": {
    "scraped_from": "https://haz-map.com/Agents/7613",
    "entity_name": "Trimethylhexadecylammonium chloride",
    "category": "agents",
    "uuid": "471cf006-5c1e-4a07-b79e-b54382e1f939",
    "scraped_at": "2025-07-23T20:14:48.362375"
  },
  "parsed_at": "2025-07-24T01:08:41.213341",
  "title": "Trimethylhexadecylammonium chloride",
  "sections": {
    "general": {
      "agent_name": {
        "original_name": "Agent Name",
        "value": "Trimethylhexadecylammonium chloride",
        "links": [],
        "cross_references": [
          {
            "type": "name_match",
            "text": "trimethylhexadecylammonium chloride",
            "confidence": 1.0,
            "uuid": "471cf006-5c1e-4a07-b79e-b54382e1f939",
            "name": "Trimethylhexadecylammonium chloride",
            "url": "https://haz-map.com/Agents/7613",
            "category": "agents"
          }
        ]
      },
      "cas_number": {
        "original_name": "CAS Number",
        "value": "112-02-7",
        "links": [],
        "cross_references": []
      },
      "formula": {
        "original_name": "Formula",
        "value": "C19-H42-N.Cl",
        "links": [],
        "cross_references": []
      },
      "major_category": {
        "original_name": "Major Category",
        "value": "Nitrogen Compounds",
        "links": [],
        "cross_references": [
          {
            "type": "name_match",
            "text": "nitrogen",
            "confidence": 1.0,
            "uuid": "db5e90a9-06d2-45b9-8b81-f345a89b0bc0",
            "name": "Nitrogen",
            "url": "https://haz-map.com/Agents/1072",
            "category": "agents"
          }
        ]
      },
      "synonyms": {
        "original_name": "Synonyms",
        "value": "Adogen 444; Aliquat 6; Ammonyx Cetac 30; Arquad 16; Arquad 16-25LO; Arquad 16-25W; Arquad 16-26; Arquad 16-29; Arquad 16-29W; Arquad 16-50; Arquad 16/28; Barquat CT 29; CETAC; Carsoquat CT 429; Catinal CTC 70ET; Cation PB 40; Cetrimonium chloride; Cetyl trimethyl ammonium chloride; Cetyltrimethylammonium chloride; Dehyquart A; Dehyquart A-CA; Dodigen 1383; FSM 28; Genamin CTAC; HDTMA-Cl; HTAC; Hexadecyl trimethyl ammonium chloride; Hexadecyltrimethylammonium chloride (6CI); Intexan CTC 29; Intexsan CTC 29; Intexsan CTC 50; Lebon TM 16; Lebon TM 60; Morpan CHA; N,N,N-Trimethyl-1-hexadecanaminium chloride; N-Hexadecyltrimethylammonium chloride; Nissan Cation PB 40; PB 40; Palmityltrimethylammonium chloride; Pionin B 611; Quartamin 60W; Quatramine C 16/29; Surfroyal CTAC; Swanol CA 2350; Trimethylcetylammonium chloride; Variquat E 228; 1-Hexadecanaminium, N,N,N-trimethyl-, chloride; [ChemIDplus]",
        "links": [],
        "cross_references": [
          {
            "type": "name_match",
            "text": "ramin",
            "confidence": 1.0,
            "uuid": "f0fbb433-5eef-4a70-a208-66cc45df5768",
            "name": "Ramin",
            "url": "https://haz-map.com/Agents/962",
            "category": "agents"
          },
          {
            "type": "name_match",
            "text": "ht",
            "confidence": 1.0,
            "uuid": "764df367-8d53-4a11-81a2-31ccfe122a8d",
            "name": "HT",
            "url": "https://haz-map.com/Agents/2168",
            "category": "agents"
          },
          {
            "type": "name_match",
            "text": "trimethylammonium chloride",
            "confidence": 1.0,
            "uuid": "4c001cd6-78f3-41e8-ab04-fb1715c1f848",
            "name": "Trimethylammonium chloride",
            "url": "https://haz-map.com/Agents/7608",
            "category": "agents"
          }
        ]
      },
      "category": {
        "original_name": "Category",
        "value": "Quaternary Amines",
        "links": [],
        "cross_references": []
      },
      "description": {
        "original_name": "Description",
        "value": "Solution: Clear to pale yellow liquid; [HSDB] White powder; [MSDSonline]",
        "links": [],
        "cross_references": []
      },
      "sourcesuses": {
        "original_name": "Sources/Uses",
        "value": "Available as a 25% aqueous solution and 50% solution in isopropyl alcohol and water for use in antifungal formulations and hair conditioners; Also used as a disinfectant/germicide, cationic detergent, fermentation aid, dispersant, coagulant for antibiotic production, and antistatic and softening agent for textile finishes; [HSDB]",
        "links": [],
        "cross_references": [
          {
            "type": "name_match",
            "text": "isopropyl alcohol",
            "confidence": 1.0,
            "uuid": "3faf53af-2f83-43d2-85f9-dcb9338772c7",
            "name": "Isopropyl alcohol",
            "url": "https://haz-map.com/Agents/533",
            "category": "agents"
          },
          {
            "type": "name_match",
            "text": "water",
            "confidence": 1.0,
            "uuid": "6f2a7557-dfd2-49bc-9b4b-a93cd8e225d4",
            "name": "Water",
            "url": "https://haz-map.com/Agents/18668",
            "category": "agents"
          }
        ]
      },
      "comments": {
        "original_name": "Comments",
        "value": "Solution: A skin, eye, nose, and throat irritant; Emergency treatment: \"Detergents- cationic\"; [HSDB] May cause severe injuries to skin and eyes; [CAMEO] An irritant; [MSDSonline]",
        "links": [],
        "cross_references": []
      },
      "biomedical_references": {
        "original_name": "Biomedical References",
        "value": "Search PubMed",
        "links": [
          {
            "text": "Search PubMed",
            "url": "https://www.ncbi.nlm.nih.gov/pubmed?term=Trimethylhexadecylammonium+chloride%20AND%20human%5Bmh%5D%20AND%20%28Occupational%20Diseases%20%5Bmh%5D%20OR%20Occupational%20Exposure%20%5Bmh%5D%29%20%20AND%20%28tox%5Bsb%5D%29&cmd=search"
          }
        ],
        "cross_references": []
      }
    },
    "exposure_assessment": {
      "vapor_pressure": {
        "original_name": "Vapor Pressure",
        "value": "2.8E-10 mm Hg",
        "links": [],
        "cross_references": []
      }
    },
    "diseases_processes_and_activities_linked_to_this_agent": {
      "processes": {
        "original_name": "Processes",
        "value": "Industrial Processes with risk of exposure: Textiles (Printing, Dyeing, or Finishing) Using Disinfectants or Biocides",
        "links": [
          {
            "text": "Textiles (Printing, Dyeing, or Finishing)",
            "url": "https://haz-map.com/Processes/235"
          },
          {
            "text": "Using Disinfectants or Biocides",
            "url": "https://haz-map.com/Processes/167"
          }
        ],
        "cross_references": [
          {
            "type": "url_match",
            "text": "Using Disinfectants or Biocides",
            "url": "https://haz-map.com/Processes/167",
            "confidence": 1.0,
            "uuid": "7accb745-ad60-4ef8-9039-8ac4febb8fd8",
            "name": "Using Disinfectants or Biocides",
            "category": "processes"
          }
        ]
      }
    }
  },
  "cross_references": [
    {
      "type": "url_match",
      "text": "Using Disinfectants or Biocides",
      "url": "https://haz-map.com/Processes/167",
      "confidence": 1.0,
      "uuid": "7accb745-ad60-4ef8-9039-8ac4febb8fd8",
      "name": "Using Disinfectants or Biocides",
      "category": "processes"
    },
    {
      "type": "name_match",
      "text": "isopropyl alcohol",
      "confidence": 1.0,
      "uuid": "3faf53af-2f83-43d2-85f9-dcb9338772c7",
      "name": "Isopropyl alcohol",
      "url": "https://haz-map.com/Agents/533",
      "category": "agents"
    },
    {
      "type": "name_match",
      "text": "ramin",
      "confidence": 1.0,
      "uuid": "f0fbb433-5eef-4a70-a208-66cc45df5768",
      "name": "Ramin",
      "url": "https://haz-map.com/Agents/962",
      "category": "agents"
    },
    {
      "type": "name_match",
      "text": "nitrogen",
      "confidence": 1.0,
      "uuid": "db5e90a9-06d2-45b9-8b81-f345a89b0bc0",
      "name": "Nitrogen",
      "url": "https://haz-map.com/Agents/1072",
      "category": "agents"
    },
    {
      "type": "name_match",
      "text": "ht",
      "confidence": 1.0,
      "uuid": "764df367-8d53-4a11-81a2-31ccfe122a8d",
      "name": "HT",
      "url": "https://haz-map.com/Agents/2168",
      "category": "agents"
    },
    {
      "type": "name_match",
      "text": "trimethylammonium chloride",
      "confidence": 1.0,
      "uuid": "4c001cd6-78f3-41e8-ab04-fb1715c1f848",
      "name": "Trimethylammonium chloride",
      "url": "https://haz-map.com/Agents/7608",
      "category": "agents"
    },
    {
      "type": "name_match",
      "text": "trimethylhexadecylammonium chloride",
      "confidence": 1.0,
      "uuid": "471cf006-5c1e-4a07-b79e-b54382e1f939",
      "name": "Trimethylhexadecylammonium chloride",
      "url": "https://haz-map.com/Agents/7613",
      "category": "agents"
    },
    {
      "type": "name_match",
      "text": "water",
      "confidence": 1.0,
      "uuid": "6f2a7557-dfd2-49bc-9b4b-a93cd8e225d4",
      "name": "Water",
      "url": "https://haz-map.com/Agents/18668",
      "category": "agents"
    }
  ],
  "all_links": [
    {
      "text": "Search PubMed",
      "url": "https://www.ncbi.nlm.nih.gov/pubmed?term=Trimethylhexadecylammonium+chloride%20AND%20human%5Bmh%5D%20AND%20%28Occupational%20Diseases%20%5Bmh%5D%20OR%20Occupational%20Exposure%20%5Bmh%5D%29%20%20AND%20%28tox%5Bsb%5D%29&cmd=search"
    },
    {
      "text": "Textiles (Printing, Dyeing, or Finishing)",
      "url": "https://haz-map.com/Processes/235"
    },
    {
      "text": "Using Disinfectants or Biocides",
      "url": "https://haz-map.com/Processes/167"
    }
  ]
}