{
  "metadata": {
    "scraped_from": "https://haz-map.com/Agents/10236",
    "entity_name": "1-Nonadecene",
    "category": "agents",
    "uuid": "4749a6ac-772e-49dc-9b02-9c8508d158c2",
    "scraped_at": "2025-07-23T20:45:42.133630"
  },
  "parsed_at": "2025-07-24T01:06:07.527069",
  "title": "1-Nonadecene",
  "sections": {
    "general": {
      "agent_name": {
        "original_name": "Agent Name",
        "value": "1-Nonadecene",
        "links": [],
        "cross_references": [
          {
            "type": "name_match",
            "text": "decene",
            "confidence": 1.0,
            "uuid": "31094271-051d-41ab-9d14-1e1d404f5a06",
            "name": "Decene",
            "url": "https://haz-map.com/Agents/4666",
            "category": "agents"
          },
          {
            "type": "name_match",
            "text": "1-nonadecene",
            "confidence": 1.0,
            "uuid": "4749a6ac-772e-49dc-9b02-9c8508d158c2",
            "name": "1-Nonadecene",
            "url": "https://haz-map.com/Agents/10236",
            "category": "agents"
          }
        ]
      },
      "cas_number": {
        "original_name": "CAS Number",
        "value": "18435-45-5",
        "links": [],
        "cross_references": []
      },
      "formula": {
        "original_name": "Formula",
        "value": "C19-H38",
        "links": [],
        "cross_references": []
      },
      "major_category": {
        "original_name": "Major Category",
        "value": "Other Classes",
        "links": [],
        "cross_references": []
      },
      "category": {
        "original_name": "Category",
        "value": "Aliphatics, Unsaturated",
        "links": [],
        "cross_references": []
      },
      "description": {
        "original_name": "Description",
        "value": "Colorless liquid; mp = 23 deg C; [Aldrich MSDS]",
        "links": [],
        "cross_references": []
      },
      "comments": {
        "original_name": "Comments",
        "value": "May cause irritation; [Aldrich MSDS] See \"1-Hexadecene.\"",
        "links": [],
        "cross_references": [
          {
            "type": "name_match",
            "text": "decene",
            "confidence": 1.0,
            "uuid": "31094271-051d-41ab-9d14-1e1d404f5a06",
            "name": "Decene",
            "url": "https://haz-map.com/Agents/4666",
            "category": "agents"
          },
          {
            "type": "name_match",
            "text": "1-hexadecene",
            "confidence": 1.0,
            "uuid": "2a375263-4f25-415c-9db6-c2d105baf161",
            "name": "1-Hexadecene",
            "url": "https://haz-map.com/Agents/6239",
            "category": "agents"
          },
          {
            "type": "name_match",
            "text": "hexadecene",
            "confidence": 1.0,
            "uuid": "724b5b4b-0d74-43b4-b66c-cd892a247fbf",
            "name": "Hexadecene",
            "url": "https://haz-map.com/Agents/10175",
            "category": "agents"
          }
        ]
      },
      "biomedical_references": {
        "original_name": "Biomedical References",
        "value": "Search PubMed",
        "links": [
          {
            "text": "Search PubMed",
            "url": "https://www.ncbi.nlm.nih.gov/pubmed?term=1-Nonadecene%20AND%20human%5Bmh%5D%20AND%20%28Occupational%20Diseases%20%5Bmh%5D%20OR%20Occupational%20Exposure%20%5Bmh%5D%29%20%20AND%20%28tox%5Bsb%5D%29&cmd=search"
          }
        ],
        "cross_references": []
      }
    },
    "exposure_assessment": {
      "vapor_pressure": {
        "original_name": "Vapor Pressure",
        "value": "3.81E-05 mm Hg",
        "links": [],
        "cross_references": []
      }
    },
    "diseases_processes_and_activities_linked_to_this_agent": {
      "other_information": {
        "original_name": "Other Information",
        "value": "No other related information on this agent was found.",
        "links": [],
        "cross_references": []
      }
    }
  },
  "cross_references": [
    {
      "type": "name_match",
      "text": "decene",
      "confidence": 1.0,
      "uuid": "31094271-051d-41ab-9d14-1e1d404f5a06",
      "name": "Decene",
      "url": "https://haz-map.com/Agents/4666",
      "category": "agents"
    },
    {
      "type": "name_match",
      "text": "1-hexadecene",
      "confidence": 1.0,
      "uuid": "2a375263-4f25-415c-9db6-c2d105baf161",
      "name": "1-Hexadecene",
      "url": "https://haz-map.com/Agents/6239",
      "category": "agents"
    },
    {
      "type": "name_match",
      "text": "hexadecene",
      "confidence": 1.0,
      "uuid": "724b5b4b-0d74-43b4-b66c-cd892a247fbf",
      "name": "Hexadecene",
      "url": "https://haz-map.com/Agents/10175",
      "category": "agents"
    },
    {
      "type": "name_match",
      "text": "1-nonadecene",
      "confidence": 1.0,
      "uuid": "4749a6ac-772e-49dc-9b02-9c8508d158c2",
      "name": "1-Nonadecene",
      "url": "https://haz-map.com/Agents/10236",
      "category": "agents"
    }
  ],
  "all_links": [
    {
      "text": "Search PubMed",
      "url": "https://www.ncbi.nlm.nih.gov/pubmed?term=1-Nonadecene%20AND%20human%5Bmh%5D%20AND%20%28Occupational%20Diseases%20%5Bmh%5D%20OR%20Occupational%20Exposure%20%5Bmh%5D%29%20%20AND%20%28tox%5Bsb%5D%29&cmd=search"
    }
  ]
}