{
  "metadata": {
    "scraped_from": "https://haz-map.com/Agents/19475",
    "entity_name": "2,4-Dinitroresorcinol",
    "category": "agents",
    "uuid": "47606bb1-258c-4cac-a87d-2c5e9ebd07d4",
    "scraped_at": "2025-07-23T22:06:52.914784"
  },
  "parsed_at": "2025-07-24T01:07:09.738650",
  "title": "2,4-Dinitroresorcinol",
  "sections": {
    "general": {
      "agent_name": {
        "original_name": "Agent Name",
        "value": "2,4-Dinitroresorcinol",
        "links": [],
        "cross_references": [
          {
            "type": "name_match",
            "text": "2,4-d",
            "confidence": 1.0,
            "uuid": "bed35f54-2d93-4ffd-a3ee-723ab365faf1",
            "name": "2,4-D",
            "url": "https://haz-map.com/Agents/389",
            "category": "agents"
          },
          {
            "type": "name_match",
            "text": "resorcinol",
            "confidence": 1.0,
            "uuid": "ae206fe4-b82a-4fe5-80a6-c479c171146e",
            "name": "Resorcinol",
            "url": "https://haz-map.com/Agents/617",
            "category": "agents"
          },
          {
            "type": "name_match",
            "text": "orcinol",
            "confidence": 1.0,
            "uuid": "ec7be405-d3a6-4ffe-a998-44bdf8777b2a",
            "name": "Orcinol",
            "url": "https://haz-map.com/Agents/16285",
            "category": "agents"
          },
          {
            "type": "name_match",
            "text": "2,4-dinitroresorcinol",
            "confidence": 1.0,
            "uuid": "47606bb1-258c-4cac-a87d-2c5e9ebd07d4",
            "name": "2,4-Dinitroresorcinol",
            "url": "https://haz-map.com/Agents/19475",
            "category": "agents"
          }
        ]
      },
      "cas_number": {
        "original_name": "CAS Number",
        "value": "519-44-8",
        "links": [],
        "cross_references": []
      },
      "formula": {
        "original_name": "Formula",
        "value": "C6-H4-N2-O6",
        "links": [],
        "cross_references": []
      },
      "major_category": {
        "original_name": "Major Category",
        "value": "Nitrogen Compounds",
        "links": [],
        "cross_references": [
          {
            "type": "name_match",
            "text": "nitrogen",
            "confidence": 1.0,
            "uuid": "db5e90a9-06d2-45b9-8b81-f345a89b0bc0",
            "name": "Nitrogen",
            "url": "https://haz-map.com/Agents/1072",
            "category": "agents"
          }
        ]
      },
      "synonyms": {
        "original_name": "Synonyms",
        "value": "1,3-Benzenediol, 2,4-dinitro-; Resorcinol, 2,4-dinitro- (8CI); [ChemIDplus] 2,4-Dinitro-1,3-benzenediol; [Merck Index] 2,4-Dinitroresorcin; Dinitroresorcinol; 3-Hydroxy-2,4-dinitrophenol; [CAMEO] UN1322",
        "links": [],
        "cross_references": [
          {
            "type": "name_match",
            "text": "benzene",
            "confidence": 1.0,
            "uuid": "b05124de-5f34-4c14-8f04-ccb20c3780d9",
            "name": "Benzene",
            "url": "https://haz-map.com/Agents/5",
            "category": "agents"
          },
          {
            "type": "name_match",
            "text": "phenol",
            "confidence": 1.0,
            "uuid": "03141a03-a7df-4f51-9a37-adde1a7c4b31",
            "name": "Phenol",
            "url": "https://haz-map.com/Agents/84",
            "category": "agents"
          },
          {
            "type": "name_match",
            "text": "2,4-d",
            "confidence": 1.0,
            "uuid": "bed35f54-2d93-4ffd-a3ee-723ab365faf1",
            "name": "2,4-D",
            "url": "https://haz-map.com/Agents/389",
            "category": "agents"
          },
          {
            "type": "name_match",
            "text": "resorcinol",
            "confidence": 1.0,
            "uuid": "ae206fe4-b82a-4fe5-80a6-c479c171146e",
            "name": "Resorcinol",
            "url": "https://haz-map.com/Agents/617",
            "category": "agents"
          },
          {
            "type": "name_match",
            "text": "dinitrophenol",
            "confidence": 1.0,
            "uuid": "6335b5e4-a456-4dd1-a0ca-6671d9371e92",
            "name": "Dinitrophenol",
            "url": "https://haz-map.com/Agents/683",
            "category": "agents"
          },
          {
            "type": "name_match",
            "text": "2,4-dinitrophenol",
            "confidence": 1.0,
            "uuid": "23490a74-300f-4dea-aa8c-c06df73f4957",
            "name": "2,4-Dinitrophenol",
            "url": "https://haz-map.com/Agents/1546",
            "category": "agents"
          },
          {
            "type": "name_match",
            "text": "orcinol",
            "confidence": 1.0,
            "uuid": "ec7be405-d3a6-4ffe-a998-44bdf8777b2a",
            "name": "Orcinol",
            "url": "https://haz-map.com/Agents/16285",
            "category": "agents"
          }
        ]
      },
      "category": {
        "original_name": "Category",
        "value": "Nitros, Aromatic",
        "links": [],
        "cross_references": []
      },
      "description": {
        "original_name": "Description",
        "value": "Yellow solid; [Merck Index] White to light-colored solid; [CAMEO]",
        "links": [],
        "cross_references": [
          {
            "type": "name_match",
            "text": "ht",
            "confidence": 1.0,
            "uuid": "764df367-8d53-4a11-81a2-31ccfe122a8d",
            "name": "HT",
            "url": "https://haz-map.com/Agents/2168",
            "category": "agents"
          }
        ]
      },
      "sourcesuses": {
        "original_name": "Sources/Uses",
        "value": "Used for dyeing fabrics and as a reagent for cobalt and iron; [Merck Index] Used to make other chemicals; [CAMEO]",
        "links": [],
        "cross_references": [
          {
            "type": "name_match",
            "text": "cobalt",
            "confidence": 1.0,
            "uuid": "a4fbb4f1-add0-4f74-b979-12bd4131c80e",
            "name": "Cobalt",
            "url": "https://haz-map.com/Agents/37",
            "category": "agents"
          },
          {
            "type": "name_match",
            "text": "mica",
            "confidence": 1.0,
            "uuid": "433f26f1-c399-4596-b179-ce3843cfd465",
            "name": "Mica",
            "url": "https://haz-map.com/Agents/621",
            "category": "agents"
          },
          {
            "type": "name_match",
            "text": "iron",
            "confidence": 1.0,
            "uuid": "a6101f16-ec31-4d6c-af41-cbdbda5b1c7c",
            "name": "Iron",
            "url": "https://haz-map.com/Agents/1993",
            "category": "agents"
          }
        ]
      },
      "comments": {
        "original_name": "Comments",
        "value": "Explodes on intense heating; [Merck Index] A strong oxidizing agent; Can explode from heat or shock when dry; May cause irritation; [CAMEO] See \"Styphnic acid.\"",
        "links": [],
        "cross_references": [
          {
            "type": "name_match",
            "text": "shock",
            "confidence": 1.0,
            "uuid": "184088a3-33cc-4d64-b02e-bfb90ba4cbe5",
            "name": "shock",
            "url": "https://haz-map.com/Findings/76",
            "category": "findings"
          },
          {
            "type": "name_match",
            "text": "styphnic acid",
            "confidence": 1.0,
            "uuid": "b1132eb6-90f5-48aa-b369-1996c19f243a",
            "name": "Styphnic acid",
            "url": "https://haz-map.com/Agents/18388",
            "category": "agents"
          }
        ]
      },
      "biomedical_references": {
        "original_name": "Biomedical References",
        "value": "Search PubMed",
        "links": [
          {
            "text": "Search PubMed",
            "url": "https://www.ncbi.nlm.nih.gov/pubmed?term=2%2c4-Dinitroresorcinol%20AND%20human%5Bmh%5D%20AND%20%28Occupational%20Diseases%20%5Bmh%5D%20OR%20Occupational%20Exposure%20%5Bmh%5D%29%20%20AND%20%28tox%5Bsb%5D%29&cmd=search"
          }
        ],
        "cross_references": []
      }
    },
    "exposure_assessment": {
      "vapor_pressure": {
        "original_name": "Vapor Pressure",
        "value": "1.92E-07 mm Hg",
        "links": [],
        "cross_references": []
      },
      "explanatory_notes": {
        "original_name": "Explanatory Notes",
        "value": "The Guide in the Emergency Response Guidebook is for \"Dinitroresorcinol, wetted with not less than 15% water.\"",
        "links": [],
        "cross_references": [
          {
            "type": "name_match",
            "text": "resorcinol",
            "confidence": 1.0,
            "uuid": "ae206fe4-b82a-4fe5-80a6-c479c171146e",
            "name": "Resorcinol",
            "url": "https://haz-map.com/Agents/617",
            "category": "agents"
          },
          {
            "type": "name_match",
            "text": "orcinol",
            "confidence": 1.0,
            "uuid": "ec7be405-d3a6-4ffe-a998-44bdf8777b2a",
            "name": "Orcinol",
            "url": "https://haz-map.com/Agents/16285",
            "category": "agents"
          },
          {
            "type": "name_match",
            "text": "water",
            "confidence": 1.0,
            "uuid": "6f2a7557-dfd2-49bc-9b4b-a93cd8e225d4",
            "name": "Water",
            "url": "https://haz-map.com/Agents/18668",
            "category": "agents"
          }
        ]
      }
    },
    "adverse_effects": {
      "methemoglobinemia": {
        "original_name": "Methemoglobinemia",
        "value": "MetHgb is secondary toxic effect",
        "links": [],
        "cross_references": []
      }
    },
    "diseases_processes_and_activities_linked_to_this_agent": {
      "processes": {
        "original_name": "Processes",
        "value": "Industrial Processes with risk of exposure: Textiles (Printing, Dyeing, or Finishing)",
        "links": [
          {
            "text": "Textiles (Printing, Dyeing, or Finishing)",
            "url": "https://haz-map.com/Processes/235"
          }
        ],
        "cross_references": []
      }
    }
  },
  "cross_references": [
    {
      "type": "name_match",
      "text": "shock",
      "confidence": 1.0,
      "uuid": "184088a3-33cc-4d64-b02e-bfb90ba4cbe5",
      "name": "shock",
      "url": "https://haz-map.com/Findings/76",
      "category": "findings"
    },
    {
      "type": "name_match",
      "text": "benzene",
      "confidence": 1.0,
      "uuid": "b05124de-5f34-4c14-8f04-ccb20c3780d9",
      "name": "Benzene",
      "url": "https://haz-map.com/Agents/5",
      "category": "agents"
    },
    {
      "type": "name_match",
      "text": "cobalt",
      "confidence": 1.0,
      "uuid": "a4fbb4f1-add0-4f74-b979-12bd4131c80e",
      "name": "Cobalt",
      "url": "https://haz-map.com/Agents/37",
      "category": "agents"
    },
    {
      "type": "name_match",
      "text": "phenol",
      "confidence": 1.0,
      "uuid": "03141a03-a7df-4f51-9a37-adde1a7c4b31",
      "name": "Phenol",
      "url": "https://haz-map.com/Agents/84",
      "category": "agents"
    },
    {
      "type": "name_match",
      "text": "2,4-d",
      "confidence": 1.0,
      "uuid": "bed35f54-2d93-4ffd-a3ee-723ab365faf1",
      "name": "2,4-D",
      "url": "https://haz-map.com/Agents/389",
      "category": "agents"
    },
    {
      "type": "name_match",
      "text": "resorcinol",
      "confidence": 1.0,
      "uuid": "ae206fe4-b82a-4fe5-80a6-c479c171146e",
      "name": "Resorcinol",
      "url": "https://haz-map.com/Agents/617",
      "category": "agents"
    },
    {
      "type": "name_match",
      "text": "mica",
      "confidence": 1.0,
      "uuid": "433f26f1-c399-4596-b179-ce3843cfd465",
      "name": "Mica",
      "url": "https://haz-map.com/Agents/621",
      "category": "agents"
    },
    {
      "type": "name_match",
      "text": "dinitrophenol",
      "confidence": 1.0,
      "uuid": "6335b5e4-a456-4dd1-a0ca-6671d9371e92",
      "name": "Dinitrophenol",
      "url": "https://haz-map.com/Agents/683",
      "category": "agents"
    },
    {
      "type": "name_match",
      "text": "nitrogen",
      "confidence": 1.0,
      "uuid": "db5e90a9-06d2-45b9-8b81-f345a89b0bc0",
      "name": "Nitrogen",
      "url": "https://haz-map.com/Agents/1072",
      "category": "agents"
    },
    {
      "type": "name_match",
      "text": "2,4-dinitrophenol",
      "confidence": 1.0,
      "uuid": "23490a74-300f-4dea-aa8c-c06df73f4957",
      "name": "2,4-Dinitrophenol",
      "url": "https://haz-map.com/Agents/1546",
      "category": "agents"
    },
    {
      "type": "name_match",
      "text": "iron",
      "confidence": 1.0,
      "uuid": "a6101f16-ec31-4d6c-af41-cbdbda5b1c7c",
      "name": "Iron",
      "url": "https://haz-map.com/Agents/1993",
      "category": "agents"
    },
    {
      "type": "name_match",
      "text": "ht",
      "confidence": 1.0,
      "uuid": "764df367-8d53-4a11-81a2-31ccfe122a8d",
      "name": "HT",
      "url": "https://haz-map.com/Agents/2168",
      "category": "agents"
    },
    {
      "type": "name_match",
      "text": "orcinol",
      "confidence": 1.0,
      "uuid": "ec7be405-d3a6-4ffe-a998-44bdf8777b2a",
      "name": "Orcinol",
      "url": "https://haz-map.com/Agents/16285",
      "category": "agents"
    },
    {
      "type": "name_match",
      "text": "styphnic acid",
      "confidence": 1.0,
      "uuid": "b1132eb6-90f5-48aa-b369-1996c19f243a",
      "name": "Styphnic acid",
      "url": "https://haz-map.com/Agents/18388",
      "category": "agents"
    },
    {
      "type": "name_match",
      "text": "water",
      "confidence": 1.0,
      "uuid": "6f2a7557-dfd2-49bc-9b4b-a93cd8e225d4",
      "name": "Water",
      "url": "https://haz-map.com/Agents/18668",
      "category": "agents"
    },
    {
      "type": "name_match",
      "text": "2,4-dinitroresorcinol",
      "confidence": 1.0,
      "uuid": "47606bb1-258c-4cac-a87d-2c5e9ebd07d4",
      "name": "2,4-Dinitroresorcinol",
      "url": "https://haz-map.com/Agents/19475",
      "category": "agents"
    }
  ],
  "all_links": [
    {
      "text": "Search PubMed",
      "url": "https://www.ncbi.nlm.nih.gov/pubmed?term=2%2c4-Dinitroresorcinol%20AND%20human%5Bmh%5D%20AND%20%28Occupational%20Diseases%20%5Bmh%5D%20OR%20Occupational%20Exposure%20%5Bmh%5D%29%20%20AND%20%28tox%5Bsb%5D%29&cmd=search"
    },
    {
      "text": "Textiles (Printing, Dyeing, or Finishing)",
      "url": "https://haz-map.com/Processes/235"
    }
  ]
}