{
  "metadata": {
    "scraped_from": "https://haz-map.com/Agents/13085",
    "entity_name": "Coniferyl alcohol",
    "category": "agents",
    "uuid": "47b74c55-73b1-40be-beaa-c11497fa8890",
    "scraped_at": "2025-07-23T21:12:06.685660"
  },
  "parsed_at": "2025-07-24T01:16:37.853911",
  "title": "Coniferyl alcohol",
  "sections": {
    "general": {
      "agent_name": {
        "original_name": "Agent Name",
        "value": "Coniferyl alcohol",
        "links": [],
        "cross_references": [
          {
            "type": "name_match",
            "text": "coniferyl alcohol",
            "confidence": 1.0,
            "uuid": "47b74c55-73b1-40be-beaa-c11497fa8890",
            "name": "Coniferyl alcohol",
            "url": "https://haz-map.com/Agents/13085",
            "category": "agents"
          }
        ]
      },
      "cas_number": {
        "original_name": "CAS Number",
        "value": "458-35-5",
        "links": [],
        "cross_references": []
      },
      "formula": {
        "original_name": "Formula",
        "value": "C10-H12-O3",
        "links": [],
        "cross_references": []
      },
      "major_category": {
        "original_name": "Major Category",
        "value": "Other Classes",
        "links": [],
        "cross_references": []
      },
      "synonyms": {
        "original_name": "Synonyms",
        "value": "3-(4-Hydroxy-3-methoxyphenyl)-2-propen-1-ol; 4-Hydroxy-3-methoxycinnamylic alcohol; Phenol, 4-(3-hydroxy-1-propen-1-yl)-2-methoxy-; Phenol, 4-(3-hydroxy-1-propenyl)-2-methoxy-; [ChemIDplus] 4-(3-Hydroxy-1-propenyl)-2-methoxyphenol; 4-Hydroxy-3-methoxycinnamic alcohol; gamma-Hydroxyisoeugenol; [Merck Index]",
        "links": [],
        "cross_references": [
          {
            "type": "name_match",
            "text": "phenol",
            "confidence": 1.0,
            "uuid": "03141a03-a7df-4f51-9a37-adde1a7c4b31",
            "name": "Phenol",
            "url": "https://haz-map.com/Agents/84",
            "category": "agents"
          },
          {
            "type": "name_match",
            "text": "eugenol",
            "confidence": 1.0,
            "uuid": "fda779e2-c311-4378-9e2b-2be72da5c04b",
            "name": "Eugenol",
            "url": "https://haz-map.com/Agents/1008",
            "category": "agents"
          }
        ]
      },
      "category": {
        "original_name": "Category",
        "value": "Other Aromatic Compounds",
        "links": [],
        "cross_references": []
      },
      "description": {
        "original_name": "Description",
        "value": "Solid; [Merck Index] White or yellow hygroscopic powder; [Alfa Aesar MSDS]",
        "links": [],
        "cross_references": []
      },
      "comments": {
        "original_name": "Comments",
        "value": "May cause irritation; [Alfa Aesar MSDS] See \"Cinnamyl alcohol\" and \"Furulic acid.\"",
        "links": [],
        "cross_references": [
          {
            "type": "name_match",
            "text": "cinnamyl alcohol",
            "confidence": 1.0,
            "uuid": "ef950229-7bfc-43b0-b55d-e02336d1bb19",
            "name": "Cinnamyl alcohol",
            "url": "https://haz-map.com/Agents/3250",
            "category": "agents"
          }
        ]
      },
      "biomedical_references": {
        "original_name": "Biomedical References",
        "value": "Search PubMed",
        "links": [
          {
            "text": "Search PubMed",
            "url": "https://www.ncbi.nlm.nih.gov/pubmed?term=Coniferyl+alcohol%20AND%20human%5Bmh%5D%20AND%20%28Occupational%20Diseases%20%5Bmh%5D%20OR%20Occupational%20Exposure%20%5Bmh%5D%29%20%20AND%20%28tox%5Bsb%5D%29&cmd=search"
          }
        ],
        "cross_references": []
      }
    },
    "exposure_assessment": {
      "vapor_pressure": {
        "original_name": "Vapor Pressure",
        "value": "8.8E-06 mm Hg",
        "links": [],
        "cross_references": []
      }
    },
    "diseases_processes_and_activities_linked_to_this_agent": {
      "other_information": {
        "original_name": "Other Information",
        "value": "No other related information on this agent was found.",
        "links": [],
        "cross_references": []
      }
    }
  },
  "cross_references": [
    {
      "type": "name_match",
      "text": "phenol",
      "confidence": 1.0,
      "uuid": "03141a03-a7df-4f51-9a37-adde1a7c4b31",
      "name": "Phenol",
      "url": "https://haz-map.com/Agents/84",
      "category": "agents"
    },
    {
      "type": "name_match",
      "text": "eugenol",
      "confidence": 1.0,
      "uuid": "fda779e2-c311-4378-9e2b-2be72da5c04b",
      "name": "Eugenol",
      "url": "https://haz-map.com/Agents/1008",
      "category": "agents"
    },
    {
      "type": "name_match",
      "text": "cinnamyl alcohol",
      "confidence": 1.0,
      "uuid": "ef950229-7bfc-43b0-b55d-e02336d1bb19",
      "name": "Cinnamyl alcohol",
      "url": "https://haz-map.com/Agents/3250",
      "category": "agents"
    },
    {
      "type": "name_match",
      "text": "coniferyl alcohol",
      "confidence": 1.0,
      "uuid": "47b74c55-73b1-40be-beaa-c11497fa8890",
      "name": "Coniferyl alcohol",
      "url": "https://haz-map.com/Agents/13085",
      "category": "agents"
    }
  ],
  "all_links": [
    {
      "text": "Search PubMed",
      "url": "https://www.ncbi.nlm.nih.gov/pubmed?term=Coniferyl+alcohol%20AND%20human%5Bmh%5D%20AND%20%28Occupational%20Diseases%20%5Bmh%5D%20OR%20Occupational%20Exposure%20%5Bmh%5D%29%20%20AND%20%28tox%5Bsb%5D%29&cmd=search"
    }
  ]
}