{
  "metadata": {
    "scraped_from": "https://haz-map.com/Agents/20025",
    "entity_name": "4-Chloro-o-xylene",
    "category": "agents",
    "uuid": "48d6cac7-b4e7-4d83-afc3-789920327ae8",
    "scraped_at": "2025-07-23T22:17:31.589145"
  },
  "parsed_at": "2025-07-24T01:15:33.077257",
  "title": "4-Chloro-o-xylene",
  "sections": {
    "general": {
      "agent_name": {
        "original_name": "Agent Name",
        "value": "4-Chloro-o-xylene",
        "links": [],
        "cross_references": [
          {
            "type": "name_match",
            "text": "4-chloro-o-xylene",
            "confidence": 1.0,
            "uuid": "48d6cac7-b4e7-4d83-afc3-789920327ae8",
            "name": "4-Chloro-o-xylene",
            "url": "https://haz-map.com/Agents/20025",
            "category": "agents"
          }
        ]
      },
      "cas_number": {
        "original_name": "CAS Number",
        "value": "615-60-1",
        "links": [],
        "cross_references": []
      },
      "formula": {
        "original_name": "Formula",
        "value": "C8-H9-Cl",
        "links": [],
        "cross_references": []
      },
      "major_category": {
        "original_name": "Major Category",
        "value": "Other Classes",
        "links": [],
        "cross_references": []
      },
      "synonyms": {
        "original_name": "Synonyms",
        "value": "4-Chloro-1,2-dimethylbenzene; [ECHA REACH Registrations]",
        "links": [],
        "cross_references": [
          {
            "type": "name_match",
            "text": "benzene",
            "confidence": 1.0,
            "uuid": "b05124de-5f34-4c14-8f04-ccb20c3780d9",
            "name": "Benzene",
            "url": "https://haz-map.com/Agents/5",
            "category": "agents"
          }
        ]
      },
      "category": {
        "original_name": "Category",
        "value": "Halogenated Monoaromatics",
        "links": [],
        "cross_references": []
      },
      "description": {
        "original_name": "Description",
        "value": "Colorless or light yellow liquid; [Alfa Aesar MSDS]",
        "links": [],
        "cross_references": [
          {
            "type": "name_match",
            "text": "ht",
            "confidence": 1.0,
            "uuid": "764df367-8d53-4a11-81a2-31ccfe122a8d",
            "name": "HT",
            "url": "https://haz-map.com/Agents/2168",
            "category": "agents"
          }
        ]
      },
      "sourcesuses": {
        "original_name": "Sources/Uses",
        "value": "Used as an intermediate; [ECHA REACH Registrations]",
        "links": [],
        "cross_references": []
      },
      "comments": {
        "original_name": "Comments",
        "value": "A skin and strong eye irritant; May cause skin sensitization; Prolonged or repeated oral exposure may cause urinary bladder injury; [ECHA REACH Registrations] A skin and strong eye irritant; [Alfa Aesar MSDS] Search for (615-60-1[EC/RN Number]) AND (dermatitis OR allergic OR sensitizer OR sensitization): no results; [PubMed]",
        "links": [],
        "cross_references": [
          {
            "type": "name_match",
            "text": "dermatitis",
            "confidence": 1.0,
            "uuid": "fe9c05f2-b19f-4ceb-ac7a-ffb7d7a0cae0",
            "name": "dermatitis",
            "url": "https://haz-map.com/Findings/59",
            "category": "findings"
          },
          {
            "type": "name_match",
            "text": "dde",
            "confidence": 1.0,
            "uuid": "88506fb4-e7b1-4bde-a283-917057f67fc2",
            "name": "DDE",
            "url": "https://haz-map.com/Agents/4656",
            "category": "agents"
          }
        ]
      },
      "biomedical_references": {
        "original_name": "Biomedical References",
        "value": "Search PubMed",
        "links": [
          {
            "text": "Search PubMed",
            "url": "https://www.ncbi.nlm.nih.gov/pubmed?term=4-Chloro-o-xylene%20AND%20human%5Bmh%5D%20AND%20%28Occupational%20Diseases%20%5Bmh%5D%20OR%20Occupational%20Exposure%20%5Bmh%5D%29%20%20AND%20%28tox%5Bsb%5D%29&cmd=search"
          }
        ],
        "cross_references": []
      }
    },
    "exposure_assessment": {
      "vapor_pressure": {
        "original_name": "Vapor Pressure",
        "value": "0.843 mm Hg",
        "links": [],
        "cross_references": []
      }
    },
    "diseases_processes_and_activities_linked_to_this_agent": {
      "other_information": {
        "original_name": "Other Information",
        "value": "No other related information on this agent was found.",
        "links": [],
        "cross_references": []
      }
    }
  },
  "cross_references": [
    {
      "type": "name_match",
      "text": "dermatitis",
      "confidence": 1.0,
      "uuid": "fe9c05f2-b19f-4ceb-ac7a-ffb7d7a0cae0",
      "name": "dermatitis",
      "url": "https://haz-map.com/Findings/59",
      "category": "findings"
    },
    {
      "type": "name_match",
      "text": "benzene",
      "confidence": 1.0,
      "uuid": "b05124de-5f34-4c14-8f04-ccb20c3780d9",
      "name": "Benzene",
      "url": "https://haz-map.com/Agents/5",
      "category": "agents"
    },
    {
      "type": "name_match",
      "text": "ht",
      "confidence": 1.0,
      "uuid": "764df367-8d53-4a11-81a2-31ccfe122a8d",
      "name": "HT",
      "url": "https://haz-map.com/Agents/2168",
      "category": "agents"
    },
    {
      "type": "name_match",
      "text": "dde",
      "confidence": 1.0,
      "uuid": "88506fb4-e7b1-4bde-a283-917057f67fc2",
      "name": "DDE",
      "url": "https://haz-map.com/Agents/4656",
      "category": "agents"
    },
    {
      "type": "name_match",
      "text": "4-chloro-o-xylene",
      "confidence": 1.0,
      "uuid": "48d6cac7-b4e7-4d83-afc3-789920327ae8",
      "name": "4-Chloro-o-xylene",
      "url": "https://haz-map.com/Agents/20025",
      "category": "agents"
    }
  ],
  "all_links": [
    {
      "text": "Search PubMed",
      "url": "https://www.ncbi.nlm.nih.gov/pubmed?term=4-Chloro-o-xylene%20AND%20human%5Bmh%5D%20AND%20%28Occupational%20Diseases%20%5Bmh%5D%20OR%20Occupational%20Exposure%20%5Bmh%5D%29%20%20AND%20%28tox%5Bsb%5D%29&cmd=search"
    }
  ]
}