{
  "metadata": {
    "scraped_from": "https://haz-map.com/Agents/21148",
    "entity_name": "Methyl trifluoroacetate",
    "category": "agents",
    "uuid": "4924d900-041b-4354-bc75-4f3a3ee6a05b",
    "scraped_at": "2025-07-23T22:38:23.676676"
  },
  "parsed_at": "2025-07-24T01:14:29.372114",
  "title": "Methyl trifluoroacetate",
  "sections": {
    "general": {
      "agent_name": {
        "original_name": "Agent Name",
        "value": "Methyl trifluoroacetate",
        "links": [],
        "cross_references": [
          {
            "type": "name_match",
            "text": "ethyl trifluoroacetate",
            "confidence": 1.0,
            "uuid": "6be299ea-ad7b-4560-b52a-47b410e1e6a5",
            "name": "Ethyl trifluoroacetate",
            "url": "https://haz-map.com/Agents/14212",
            "category": "agents"
          },
          {
            "type": "name_match",
            "text": "methyl trifluoroacetate",
            "confidence": 1.0,
            "uuid": "4924d900-041b-4354-bc75-4f3a3ee6a05b",
            "name": "Methyl trifluoroacetate",
            "url": "https://haz-map.com/Agents/21148",
            "category": "agents"
          }
        ]
      },
      "cas_number": {
        "original_name": "CAS Number",
        "value": "431-47-0",
        "links": [],
        "cross_references": []
      },
      "formula": {
        "original_name": "Formula",
        "value": "C3-H3-F3-O2",
        "links": [],
        "cross_references": []
      },
      "major_category": {
        "original_name": "Major Category",
        "value": "Other Classes",
        "links": [],
        "cross_references": []
      },
      "synonyms": {
        "original_name": "Synonyms",
        "value": "Acetic acid, 2,2,2-trifluoro-, methyl ester; Acetic acid, trifluoro-, methyl ester; [ChemIDplus] UN2924",
        "links": [],
        "cross_references": [
          {
            "type": "name_match",
            "text": "acetic acid",
            "confidence": 1.0,
            "uuid": "0905c6e4-df84-4895-a92d-658819239bbd",
            "name": "Acetic acid",
            "url": "https://haz-map.com/Agents/207",
            "category": "agents"
          }
        ]
      },
      "category": {
        "original_name": "Category",
        "value": "Halogenated Esters",
        "links": [],
        "cross_references": []
      },
      "description": {
        "original_name": "Description",
        "value": "Clear colorless liquid; [Sigma-Aldrich MSDS]",
        "links": [],
        "cross_references": []
      },
      "comments": {
        "original_name": "Comments",
        "value": "Causes burns and lachrymation; Inhalation may cause corrosive injuries to upper respiratory tract and lungs; [Sigma-Aldrich MSDS] See \"Ethyl trifluoroacetate.\"",
        "links": [],
        "cross_references": [
          {
            "type": "name_match",
            "text": "burn",
            "confidence": 1.0,
            "uuid": "63665de5-6376-4918-8dbf-4c10c4d63837",
            "name": "burn",
            "url": "https://haz-map.com/Findings/204",
            "category": "findings"
          },
          {
            "type": "name_match",
            "text": "ethyl trifluoroacetate",
            "confidence": 1.0,
            "uuid": "6be299ea-ad7b-4560-b52a-47b410e1e6a5",
            "name": "Ethyl trifluoroacetate",
            "url": "https://haz-map.com/Agents/14212",
            "category": "agents"
          }
        ]
      },
      "biomedical_references": {
        "original_name": "Biomedical References",
        "value": "Search PubMed",
        "links": [
          {
            "text": "Search PubMed",
            "url": "https://www.ncbi.nlm.nih.gov/pubmed?term=Methyl+trifluoroacetate%20AND%20human%5Bmh%5D%20AND%20%28Occupational%20Diseases%20%5Bmh%5D%20OR%20Occupational%20Exposure%20%5Bmh%5D%29%20%20AND%20%28tox%5Bsb%5D%29&cmd=search"
          }
        ],
        "cross_references": []
      }
    },
    "exposure_assessment": {
      "vapor_pressure": {
        "original_name": "Vapor Pressure",
        "value": "538 mm Hg",
        "links": [],
        "cross_references": []
      },
      "explanatory_notes": {
        "original_name": "Explanatory Notes",
        "value": "The Guide in the Emergency Response Guidebook is for \"Flammable liquid, corrosive, n.o.s.\"",
        "links": [],
        "cross_references": []
      }
    },
    "adverse_effects": {
      "lachrymator": {
        "original_name": "Lachrymator",
        "value": "Yes",
        "links": [],
        "cross_references": []
      },
      "toxic_pneumonitis": {
        "original_name": "Toxic Pneumonitis",
        "value": "Yes",
        "links": [],
        "cross_references": []
      },
      "dermatotoxin": {
        "original_name": "Dermatotoxin",
        "value": "Skin burns",
        "links": [],
        "cross_references": [
          {
            "type": "name_match",
            "text": "burn",
            "confidence": 1.0,
            "uuid": "63665de5-6376-4918-8dbf-4c10c4d63837",
            "name": "burn",
            "url": "https://haz-map.com/Findings/204",
            "category": "findings"
          }
        ]
      }
    },
    "diseases_processes_and_activities_linked_to_this_agent": {
      "other_information": {
        "original_name": "Other Information",
        "value": "No other related information on this agent was found.",
        "links": [],
        "cross_references": []
      }
    }
  },
  "cross_references": [
    {
      "type": "name_match",
      "text": "burn",
      "confidence": 1.0,
      "uuid": "63665de5-6376-4918-8dbf-4c10c4d63837",
      "name": "burn",
      "url": "https://haz-map.com/Findings/204",
      "category": "findings"
    },
    {
      "type": "name_match",
      "text": "acetic acid",
      "confidence": 1.0,
      "uuid": "0905c6e4-df84-4895-a92d-658819239bbd",
      "name": "Acetic acid",
      "url": "https://haz-map.com/Agents/207",
      "category": "agents"
    },
    {
      "type": "name_match",
      "text": "ethyl trifluoroacetate",
      "confidence": 1.0,
      "uuid": "6be299ea-ad7b-4560-b52a-47b410e1e6a5",
      "name": "Ethyl trifluoroacetate",
      "url": "https://haz-map.com/Agents/14212",
      "category": "agents"
    },
    {
      "type": "name_match",
      "text": "methyl trifluoroacetate",
      "confidence": 1.0,
      "uuid": "4924d900-041b-4354-bc75-4f3a3ee6a05b",
      "name": "Methyl trifluoroacetate",
      "url": "https://haz-map.com/Agents/21148",
      "category": "agents"
    }
  ],
  "all_links": [
    {
      "text": "Search PubMed",
      "url": "https://www.ncbi.nlm.nih.gov/pubmed?term=Methyl+trifluoroacetate%20AND%20human%5Bmh%5D%20AND%20%28Occupational%20Diseases%20%5Bmh%5D%20OR%20Occupational%20Exposure%20%5Bmh%5D%29%20%20AND%20%28tox%5Bsb%5D%29&cmd=search"
    }
  ]
}