{
  "metadata": {
    "scraped_from": "https://haz-map.com/Agents/11065",
    "entity_name": "4-Amino-2,6-dinitrotoluene",
    "category": "agents",
    "uuid": "492b09eb-d0df-4623-a07f-26d591ba2e0a",
    "scraped_at": "2025-07-23T20:55:48.836537"
  },
  "parsed_at": "2025-07-24T01:12:56.623197",
  "title": "4-Amino-2,6-dinitrotoluene",
  "sections": {
    "general": {
      "agent_name": {
        "original_name": "Agent Name",
        "value": "4-Amino-2,6-dinitrotoluene",
        "links": [],
        "cross_references": [
          {
            "type": "name_match",
            "text": "toluene",
            "confidence": 1.0,
            "uuid": "0a34d5de-e924-4c47-aff5-7ae8e48c6772",
            "name": "Toluene",
            "url": "https://haz-map.com/Agents/83",
            "category": "agents"
          },
          {
            "type": "name_match",
            "text": "2,6-dinitrotoluene",
            "confidence": 1.0,
            "uuid": "f2ae0ab6-06bf-414d-931f-2698fab5122c",
            "name": "2,6-Dinitrotoluene",
            "url": "https://haz-map.com/Agents/9958",
            "category": "agents"
          },
          {
            "type": "name_match",
            "text": "4-amino-2,6-dinitrotoluene",
            "confidence": 1.0,
            "uuid": "492b09eb-d0df-4623-a07f-26d591ba2e0a",
            "name": "4-Amino-2,6-dinitrotoluene",
            "url": "https://haz-map.com/Agents/11065",
            "category": "agents"
          }
        ]
      },
      "cas_number": {
        "original_name": "CAS Number",
        "value": "19406-51-0",
        "links": [],
        "cross_references": []
      },
      "formula": {
        "original_name": "Formula",
        "value": "C7-H7-N3-O4",
        "links": [],
        "cross_references": []
      },
      "major_category": {
        "original_name": "Major Category",
        "value": "Nitrogen Compounds",
        "links": [],
        "cross_references": [
          {
            "type": "name_match",
            "text": "nitrogen",
            "confidence": 1.0,
            "uuid": "db5e90a9-06d2-45b9-8b81-f345a89b0bc0",
            "name": "Nitrogen",
            "url": "https://haz-map.com/Agents/1072",
            "category": "agents"
          }
        ]
      },
      "synonyms": {
        "original_name": "Synonyms",
        "value": "3,5-Dinitro-4-methylaniline; 3,5-Dinitro-p-toluidine; 4-Methyl-3,5-dinitrobenzenamine; Benzenamine, 3,5-dinitro-4-methyl-; Benzenamine, 4-methyl-3,5-dinitro-; p-Toluidine, 3,5-dinitro-; [ChemIDplus] 4A-DNT; [DOD - USCHPPM]",
        "links": [],
        "cross_references": [
          {
            "type": "name_match",
            "text": "aniline",
            "confidence": 1.0,
            "uuid": "e4932692-8d9c-4a98-8c5c-81e55b12aedf",
            "name": "Aniline",
            "url": "https://haz-map.com/Agents/296",
            "category": "agents"
          },
          {
            "type": "name_match",
            "text": "p-toluidine",
            "confidence": 1.0,
            "uuid": "0bec36ed-78fe-4ab4-ae71-02439e6b5bee",
            "name": "p-Toluidine",
            "url": "https://haz-map.com/Agents/439",
            "category": "agents"
          }
        ]
      },
      "category": {
        "original_name": "Category",
        "value": "Other Aromatics (Nitrogen)",
        "links": [],
        "cross_references": [
          {
            "type": "name_match",
            "text": "nitrogen",
            "confidence": 1.0,
            "uuid": "db5e90a9-06d2-45b9-8b81-f345a89b0bc0",
            "name": "Nitrogen",
            "url": "https://haz-map.com/Agents/1072",
            "category": "agents"
          }
        ]
      },
      "description": {
        "original_name": "Description",
        "value": "Solid; [DOD - USCHPPM]",
        "links": [],
        "cross_references": []
      },
      "sourcesuses": {
        "original_name": "Sources/Uses",
        "value": "A primary reduction product of 2,4,6-trinitrotoluene (TNT); [DOD - USCHPPM] A major human metabolite of 2,4,6-trinitrotoluene (TNT); [EPA - PPRTV]",
        "links": [],
        "cross_references": [
          {
            "type": "name_match",
            "text": "toluene",
            "confidence": 1.0,
            "uuid": "0a34d5de-e924-4c47-aff5-7ae8e48c6772",
            "name": "Toluene",
            "url": "https://haz-map.com/Agents/83",
            "category": "agents"
          },
          {
            "type": "name_match",
            "text": "2,4,6-trinitrotoluene",
            "confidence": 1.0,
            "uuid": "30004be6-6239-40ea-a674-450e6db9831f",
            "name": "2,4,6-Trinitrotoluene",
            "url": "https://haz-map.com/Agents/668",
            "category": "agents"
          }
        ]
      },
      "comments": {
        "original_name": "Comments",
        "value": "Causes excitement and somnolence in oral lethal-dose studies of rats; [RTECS] Has been detected in the urine of workers exposed to TNT; [EPA - PPRTV] An irritant; Harmful by ingestion and inhalation; May induce methemoglobinemia; [AccuStandard MSDS] See \"2,4,6-Trinitrotoluene and \"5-Nitro-2-toluidine.\" Both chemicals are primary hepatotoxins.",
        "links": [],
        "cross_references": [
          {
            "type": "name_match",
            "text": "toluene",
            "confidence": 1.0,
            "uuid": "0a34d5de-e924-4c47-aff5-7ae8e48c6772",
            "name": "Toluene",
            "url": "https://haz-map.com/Agents/83",
            "category": "agents"
          },
          {
            "type": "name_match",
            "text": "mica",
            "confidence": 1.0,
            "uuid": "433f26f1-c399-4596-b179-ce3843cfd465",
            "name": "Mica",
            "url": "https://haz-map.com/Agents/621",
            "category": "agents"
          },
          {
            "type": "name_match",
            "text": "2,4,6-trinitrotoluene",
            "confidence": 1.0,
            "uuid": "30004be6-6239-40ea-a674-450e6db9831f",
            "name": "2,4,6-Trinitrotoluene",
            "url": "https://haz-map.com/Agents/668",
            "category": "agents"
          },
          {
            "type": "name_match",
            "text": "5-nitro-2-toluidine",
            "confidence": 1.0,
            "uuid": "bde739dc-0ec5-4a7a-8a6d-2a4e3e180e76",
            "name": "5-Nitro-2-toluidine",
            "url": "https://haz-map.com/Agents/1360",
            "category": "agents"
          },
          {
            "type": "name_match",
            "text": "methemoglobin",
            "confidence": 1.0,
            "uuid": "afb7ebf5-d2a3-4e60-8d2e-3a19456344ee",
            "name": "Methemoglobin",
            "url": "https://haz-map.com/Agents/15467",
            "category": "agents"
          },
          {
            "type": "fuzzy_match",
            "text": "methemoglobinemia",
            "matched_name": "Methemoglobinemia, acute",
            "confidence": 0.7208333333333333,
            "uuid": "473a44bd-cf11-4710-a769-e8e2b25ba317",
            "category": "diseases",
            "url": "https://haz-map.com/Diseases/210"
          }
        ]
      },
      "biomedical_references": {
        "original_name": "Biomedical References",
        "value": "Search PubMed",
        "links": [
          {
            "text": "Search PubMed",
            "url": "https://www.ncbi.nlm.nih.gov/pubmed?term=4-Amino-2%2c6-dinitrotoluene%20AND%20human%5Bmh%5D%20AND%20%28Occupational%20Diseases%20%5Bmh%5D%20OR%20Occupational%20Exposure%20%5Bmh%5D%29%20%20AND%20%28tox%5Bsb%5D%29&cmd=search"
          }
        ],
        "cross_references": []
      }
    },
    "exposure_assessment": {
      "vapor_pressure": {
        "original_name": "Vapor Pressure",
        "value": "4E-05 mm Hg",
        "links": [],
        "cross_references": []
      }
    },
    "adverse_effects": {
      "methemoglobinemia": {
        "original_name": "Methemoglobinemia",
        "value": "MetHgb is secondary toxic effect",
        "links": [],
        "cross_references": []
      },
      "hepatotoxin": {
        "original_name": "Hepatotoxin",
        "value": "Hepatoxic (a) from occupational exposure (secondary effect) or (b) in animal studies or in humans after ingestion",
        "links": [],
        "cross_references": []
      }
    },
    "diseases_processes_and_activities_linked_to_this_agent": {
      "other_information": {
        "original_name": "Other Information",
        "value": "No other related information on this agent was found.",
        "links": [],
        "cross_references": []
      }
    }
  },
  "cross_references": [
    {
      "type": "name_match",
      "text": "toluene",
      "confidence": 1.0,
      "uuid": "0a34d5de-e924-4c47-aff5-7ae8e48c6772",
      "name": "Toluene",
      "url": "https://haz-map.com/Agents/83",
      "category": "agents"
    },
    {
      "type": "name_match",
      "text": "aniline",
      "confidence": 1.0,
      "uuid": "e4932692-8d9c-4a98-8c5c-81e55b12aedf",
      "name": "Aniline",
      "url": "https://haz-map.com/Agents/296",
      "category": "agents"
    },
    {
      "type": "name_match",
      "text": "p-toluidine",
      "confidence": 1.0,
      "uuid": "0bec36ed-78fe-4ab4-ae71-02439e6b5bee",
      "name": "p-Toluidine",
      "url": "https://haz-map.com/Agents/439",
      "category": "agents"
    },
    {
      "type": "name_match",
      "text": "mica",
      "confidence": 1.0,
      "uuid": "433f26f1-c399-4596-b179-ce3843cfd465",
      "name": "Mica",
      "url": "https://haz-map.com/Agents/621",
      "category": "agents"
    },
    {
      "type": "name_match",
      "text": "2,4,6-trinitrotoluene",
      "confidence": 1.0,
      "uuid": "30004be6-6239-40ea-a674-450e6db9831f",
      "name": "2,4,6-Trinitrotoluene",
      "url": "https://haz-map.com/Agents/668",
      "category": "agents"
    },
    {
      "type": "name_match",
      "text": "nitrogen",
      "confidence": 1.0,
      "uuid": "db5e90a9-06d2-45b9-8b81-f345a89b0bc0",
      "name": "Nitrogen",
      "url": "https://haz-map.com/Agents/1072",
      "category": "agents"
    },
    {
      "type": "name_match",
      "text": "5-nitro-2-toluidine",
      "confidence": 1.0,
      "uuid": "bde739dc-0ec5-4a7a-8a6d-2a4e3e180e76",
      "name": "5-Nitro-2-toluidine",
      "url": "https://haz-map.com/Agents/1360",
      "category": "agents"
    },
    {
      "type": "name_match",
      "text": "2,6-dinitrotoluene",
      "confidence": 1.0,
      "uuid": "f2ae0ab6-06bf-414d-931f-2698fab5122c",
      "name": "2,6-Dinitrotoluene",
      "url": "https://haz-map.com/Agents/9958",
      "category": "agents"
    },
    {
      "type": "name_match",
      "text": "4-amino-2,6-dinitrotoluene",
      "confidence": 1.0,
      "uuid": "492b09eb-d0df-4623-a07f-26d591ba2e0a",
      "name": "4-Amino-2,6-dinitrotoluene",
      "url": "https://haz-map.com/Agents/11065",
      "category": "agents"
    },
    {
      "type": "name_match",
      "text": "methemoglobin",
      "confidence": 1.0,
      "uuid": "afb7ebf5-d2a3-4e60-8d2e-3a19456344ee",
      "name": "Methemoglobin",
      "url": "https://haz-map.com/Agents/15467",
      "category": "agents"
    },
    {
      "type": "fuzzy_match",
      "text": "methemoglobinemia",
      "matched_name": "Methemoglobinemia, acute",
      "confidence": 0.7208333333333333,
      "uuid": "473a44bd-cf11-4710-a769-e8e2b25ba317",
      "category": "diseases",
      "url": "https://haz-map.com/Diseases/210"
    }
  ],
  "all_links": [
    {
      "text": "Search PubMed",
      "url": "https://www.ncbi.nlm.nih.gov/pubmed?term=4-Amino-2%2c6-dinitrotoluene%20AND%20human%5Bmh%5D%20AND%20%28Occupational%20Diseases%20%5Bmh%5D%20OR%20Occupational%20Exposure%20%5Bmh%5D%29%20%20AND%20%28tox%5Bsb%5D%29&cmd=search"
    }
  ]
}