{
  "metadata": {
    "scraped_from": "https://haz-map.com/Agents/9612",
    "entity_name": "1,1-Dimethylcyclopentane",
    "category": "agents",
    "uuid": "497270e8-58d6-4635-b08a-8f41b11193b0",
    "scraped_at": "2025-07-23T20:39:42.755729"
  },
  "parsed_at": "2025-07-24T00:50:41.265016",
  "title": "1,1-Dimethylcyclopentane",
  "sections": {
    "general": {
      "agent_name": {
        "original_name": "Agent Name",
        "value": "1,1-Dimethylcyclopentane",
        "links": [],
        "cross_references": [
          {
            "type": "name_match",
            "text": "cyclopentane",
            "confidence": 1.0,
            "uuid": "6480e7e3-674a-4296-afdc-a9ce8b2f2850",
            "name": "Cyclopentane",
            "url": "https://haz-map.com/Agents/387",
            "category": "agents"
          },
          {
            "type": "name_match",
            "text": "methylcyclopentane",
            "confidence": 1.0,
            "uuid": "5ff95a8e-db75-42d1-b99b-2e187bc2553a",
            "name": "Methylcyclopentane",
            "url": "https://haz-map.com/Agents/8262",
            "category": "agents"
          },
          {
            "type": "name_match",
            "text": "1,1-dimethylcyclopentane",
            "confidence": 1.0,
            "uuid": "497270e8-58d6-4635-b08a-8f41b11193b0",
            "name": "1,1-Dimethylcyclopentane",
            "url": "https://haz-map.com/Agents/9612",
            "category": "agents"
          },
          {
            "type": "name_match",
            "text": "ethylcyclopentane",
            "confidence": 1.0,
            "uuid": "358f9ebf-de12-481a-80a5-9cbc12e2d4d5",
            "name": "Ethylcyclopentane",
            "url": "https://haz-map.com/Agents/13510",
            "category": "agents"
          },
          {
            "type": "fuzzy_match",
            "text": "1-dimethylcyclopentane",
            "matched_name": "2-Ethyl-1,1-dimethylcyclopentane",
            "confidence": 0.7849264705882353,
            "uuid": "d98521ec-09b9-4075-829f-a02c75bb9e6b",
            "category": "agents",
            "url": "https://haz-map.com/Agents/13507"
          }
        ]
      },
      "cas_number": {
        "original_name": "CAS Number",
        "value": "1638-26-2",
        "links": [],
        "cross_references": []
      },
      "formula": {
        "original_name": "Formula",
        "value": "C7-H14",
        "links": [],
        "cross_references": []
      },
      "major_category": {
        "original_name": "Major Category",
        "value": "Solvents",
        "links": [],
        "cross_references": []
      },
      "synonyms": {
        "original_name": "Synonyms",
        "value": "gem-Dimethylcyclopentane; Cyclopentane, 1,1-dimethyl- (8CI)(9CI); [ChemIDplus]",
        "links": [],
        "cross_references": [
          {
            "type": "name_match",
            "text": "cyclopentane",
            "confidence": 1.0,
            "uuid": "6480e7e3-674a-4296-afdc-a9ce8b2f2850",
            "name": "Cyclopentane",
            "url": "https://haz-map.com/Agents/387",
            "category": "agents"
          },
          {
            "type": "name_match",
            "text": "methylcyclopentane",
            "confidence": 1.0,
            "uuid": "5ff95a8e-db75-42d1-b99b-2e187bc2553a",
            "name": "Methylcyclopentane",
            "url": "https://haz-map.com/Agents/8262",
            "category": "agents"
          },
          {
            "type": "name_match",
            "text": "ethylcyclopentane",
            "confidence": 1.0,
            "uuid": "358f9ebf-de12-481a-80a5-9cbc12e2d4d5",
            "name": "Ethylcyclopentane",
            "url": "https://haz-map.com/Agents/13510",
            "category": "agents"
          }
        ]
      },
      "category": {
        "original_name": "Category",
        "value": "Aliphatics, Saturated (<C12)",
        "links": [],
        "cross_references": []
      },
      "description": {
        "original_name": "Description",
        "value": "Liquid; [Aldrich MSDS]",
        "links": [],
        "cross_references": []
      },
      "comments": {
        "original_name": "Comments",
        "value": "May cause irritation; Harmful by ingestion; [Aldrich MSDS] See \"Methylcyclopentane.\"",
        "links": [],
        "cross_references": [
          {
            "type": "name_match",
            "text": "cyclopentane",
            "confidence": 1.0,
            "uuid": "6480e7e3-674a-4296-afdc-a9ce8b2f2850",
            "name": "Cyclopentane",
            "url": "https://haz-map.com/Agents/387",
            "category": "agents"
          },
          {
            "type": "name_match",
            "text": "methylcyclopentane",
            "confidence": 1.0,
            "uuid": "5ff95a8e-db75-42d1-b99b-2e187bc2553a",
            "name": "Methylcyclopentane",
            "url": "https://haz-map.com/Agents/8262",
            "category": "agents"
          },
          {
            "type": "name_match",
            "text": "ethylcyclopentane",
            "confidence": 1.0,
            "uuid": "358f9ebf-de12-481a-80a5-9cbc12e2d4d5",
            "name": "Ethylcyclopentane",
            "url": "https://haz-map.com/Agents/13510",
            "category": "agents"
          }
        ]
      },
      "biomedical_references": {
        "original_name": "Biomedical References",
        "value": "Search PubMed",
        "links": [
          {
            "text": "Search PubMed",
            "url": "https://www.ncbi.nlm.nih.gov/pubmed?term=1%2c1-Dimethylcyclopentane%20AND%20human%5Bmh%5D%20AND%20%28Occupational%20Diseases%20%5Bmh%5D%20OR%20Occupational%20Exposure%20%5Bmh%5D%29%20%20AND%20%28tox%5Bsb%5D%29&cmd=search"
          }
        ],
        "cross_references": []
      }
    },
    "exposure_assessment": {
      "vapor_pressure": {
        "original_name": "Vapor Pressure",
        "value": "76.2 mm Hg",
        "links": [],
        "cross_references": []
      },
      "explanatory_notes": {
        "original_name": "Explanatory Notes",
        "value": "VP from ChemIDplus;",
        "links": [],
        "cross_references": []
      }
    },
    "adverse_effects": {
      "neurotoxin": {
        "original_name": "Neurotoxin",
        "value": "Acute solvent syndrome",
        "links": [],
        "cross_references": []
      }
    },
    "diseases_processes_and_activities_linked_to_this_agent": {
      "diseases": {
        "original_name": "Diseases",
        "value": "Occupational diseases associated with exposure to this agent: Solvents, acute toxic effect",
        "links": [
          {
            "text": "Solvents, acute toxic effect",
            "url": "https://haz-map.com/Diseases/326"
          }
        ],
        "cross_references": [
          {
            "type": "url_match",
            "text": "Solvents, acute toxic effect",
            "url": "https://haz-map.com/Diseases/326",
            "confidence": 1.0,
            "uuid": "581e90e3-9d0c-45f0-aa6c-3468c28da129",
            "name": "Solvents, acute toxic effect",
            "category": "diseases"
          }
        ]
      }
    }
  },
  "cross_references": [
    {
      "type": "url_match",
      "text": "Solvents, acute toxic effect",
      "url": "https://haz-map.com/Diseases/326",
      "confidence": 1.0,
      "uuid": "581e90e3-9d0c-45f0-aa6c-3468c28da129",
      "name": "Solvents, acute toxic effect",
      "category": "diseases"
    },
    {
      "type": "name_match",
      "text": "cyclopentane",
      "confidence": 1.0,
      "uuid": "6480e7e3-674a-4296-afdc-a9ce8b2f2850",
      "name": "Cyclopentane",
      "url": "https://haz-map.com/Agents/387",
      "category": "agents"
    },
    {
      "type": "name_match",
      "text": "methylcyclopentane",
      "confidence": 1.0,
      "uuid": "5ff95a8e-db75-42d1-b99b-2e187bc2553a",
      "name": "Methylcyclopentane",
      "url": "https://haz-map.com/Agents/8262",
      "category": "agents"
    },
    {
      "type": "name_match",
      "text": "1,1-dimethylcyclopentane",
      "confidence": 1.0,
      "uuid": "497270e8-58d6-4635-b08a-8f41b11193b0",
      "name": "1,1-Dimethylcyclopentane",
      "url": "https://haz-map.com/Agents/9612",
      "category": "agents"
    },
    {
      "type": "name_match",
      "text": "ethylcyclopentane",
      "confidence": 1.0,
      "uuid": "358f9ebf-de12-481a-80a5-9cbc12e2d4d5",
      "name": "Ethylcyclopentane",
      "url": "https://haz-map.com/Agents/13510",
      "category": "agents"
    },
    {
      "type": "fuzzy_match",
      "text": "1-dimethylcyclopentane",
      "matched_name": "2-Ethyl-1,1-dimethylcyclopentane",
      "confidence": 0.7849264705882353,
      "uuid": "d98521ec-09b9-4075-829f-a02c75bb9e6b",
      "category": "agents",
      "url": "https://haz-map.com/Agents/13507"
    }
  ],
  "all_links": [
    {
      "text": "Search PubMed",
      "url": "https://www.ncbi.nlm.nih.gov/pubmed?term=1%2c1-Dimethylcyclopentane%20AND%20human%5Bmh%5D%20AND%20%28Occupational%20Diseases%20%5Bmh%5D%20OR%20Occupational%20Exposure%20%5Bmh%5D%29%20%20AND%20%28tox%5Bsb%5D%29&cmd=search"
    },
    {
      "text": "Solvents, acute toxic effect",
      "url": "https://haz-map.com/Diseases/326"
    }
  ]
}