{
  "metadata": {
    "scraped_from": "https://haz-map.com/Agents/8726",
    "entity_name": "Yttrium carbide",
    "category": "agents",
    "uuid": "49ac4fc0-12b0-48ac-90d4-430ec2319ee3",
    "scraped_at": "2025-07-23T20:31:00.610514"
  },
  "parsed_at": "2025-07-24T01:08:11.270063",
  "title": "Yttrium carbide",
  "sections": {
    "general": {
      "agent_name": {
        "original_name": "Agent Name",
        "value": "Yttrium carbide",
        "links": [],
        "cross_references": [
          {
            "type": "name_match",
            "text": "yttrium",
            "confidence": 1.0,
            "uuid": "d14e3097-1905-4777-bc37-06c3c435891e",
            "name": "Yttrium",
            "url": "https://haz-map.com/Agents/678",
            "category": "agents"
          },
          {
            "type": "name_match",
            "text": "yttrium carbide",
            "confidence": 1.0,
            "uuid": "49ac4fc0-12b0-48ac-90d4-430ec2319ee3",
            "name": "Yttrium carbide",
            "url": "https://haz-map.com/Agents/8726",
            "category": "agents"
          }
        ]
      },
      "cas_number": {
        "original_name": "CAS Number",
        "value": "12071-35-1",
        "links": [],
        "cross_references": []
      },
      "formula": {
        "original_name": "Formula",
        "value": "C2-Y",
        "links": [],
        "cross_references": []
      },
      "major_category": {
        "original_name": "Major Category",
        "value": "Metals",
        "links": [],
        "cross_references": []
      },
      "synonyms": {
        "original_name": "Synonyms",
        "value": "Yttrium dicarbide; [ChemIDplus]",
        "links": [],
        "cross_references": [
          {
            "type": "name_match",
            "text": "yttrium",
            "confidence": 1.0,
            "uuid": "d14e3097-1905-4777-bc37-06c3c435891e",
            "name": "Yttrium",
            "url": "https://haz-map.com/Agents/678",
            "category": "agents"
          }
        ]
      },
      "category": {
        "original_name": "Category",
        "value": "Rare Earth Metals",
        "links": [],
        "cross_references": [
          {
            "type": "name_match",
            "text": "rare earth metals",
            "confidence": 1.0,
            "uuid": "d407be39-4246-4092-9972-c293dd5b7b71",
            "name": "RARE EARTH METALS",
            "url": "https://haz-map.com/Agents/2621",
            "category": "agents"
          }
        ]
      },
      "description": {
        "original_name": "Description",
        "value": "Powder; [MSDSonline] Yellow odorless pieces; Decomposed by water; [MSDSonline]",
        "links": [],
        "cross_references": [
          {
            "type": "name_match",
            "text": "water",
            "confidence": 1.0,
            "uuid": "6f2a7557-dfd2-49bc-9b4b-a93cd8e225d4",
            "name": "Water",
            "url": "https://haz-map.com/Agents/18668",
            "category": "agents"
          }
        ]
      },
      "comments": {
        "original_name": "Comments",
        "value": "An irritant; [MSDSonline] See \"CARBIDES.\" See \"RARE EARTH METALS\" and the linked occupational diseases.",
        "links": [],
        "cross_references": [
          {
            "type": "name_match",
            "text": "rare earth metals",
            "confidence": 1.0,
            "uuid": "d407be39-4246-4092-9972-c293dd5b7b71",
            "name": "RARE EARTH METALS",
            "url": "https://haz-map.com/Agents/2621",
            "category": "agents"
          },
          {
            "type": "name_match",
            "text": "carbides",
            "confidence": 1.0,
            "uuid": "c64d73d7-7753-4aa6-ba15-f80b55a01cc3",
            "name": "CARBIDES",
            "url": "https://haz-map.com/Agents/19035",
            "category": "agents"
          }
        ]
      },
      "biomedical_references": {
        "original_name": "Biomedical References",
        "value": "Search PubMed",
        "links": [
          {
            "text": "Search PubMed",
            "url": "https://www.ncbi.nlm.nih.gov/pubmed?term=Yttrium+carbide%20AND%20human%5Bmh%5D%20AND%20%28Occupational%20Diseases%20%5Bmh%5D%20OR%20Occupational%20Exposure%20%5Bmh%5D%29%20%20AND%20%28tox%5Bsb%5D%29&cmd=search"
          }
        ],
        "cross_references": []
      }
    },
    "exposure_assessment": {
      "tlv_acgih": {
        "original_name": "TLV (ACGIH)",
        "value": "1 mg/m3, as Y",
        "links": [],
        "cross_references": []
      },
      "pel_osha": {
        "original_name": "PEL (OSHA)",
        "value": "1 mg/m3, as Y",
        "links": [],
        "cross_references": []
      },
      "explanatory_notes": {
        "original_name": "Explanatory Notes",
        "value": "Powder will ignite at flash point >73 but <100 deg F; [MSDSonline]",
        "links": [],
        "cross_references": [
          {
            "type": "name_match",
            "text": "ash",
            "confidence": 1.0,
            "uuid": "68b360f1-5ad0-4337-bea0-d7adca2961b5",
            "name": "Ash",
            "url": "https://haz-map.com/Agents/965",
            "category": "agents"
          }
        ]
      }
    },
    "adverse_effects": {
      "fibrogenic": {
        "original_name": "Fibrogenic",
        "value": "Yes",
        "links": [],
        "cross_references": []
      }
    },
    "diseases_processes_and_activities_linked_to_this_agent": {
      "other_information": {
        "original_name": "Other Information",
        "value": "No other related information on this agent was found.",
        "links": [],
        "cross_references": []
      }
    }
  },
  "cross_references": [
    {
      "type": "name_match",
      "text": "yttrium",
      "confidence": 1.0,
      "uuid": "d14e3097-1905-4777-bc37-06c3c435891e",
      "name": "Yttrium",
      "url": "https://haz-map.com/Agents/678",
      "category": "agents"
    },
    {
      "type": "name_match",
      "text": "ash",
      "confidence": 1.0,
      "uuid": "68b360f1-5ad0-4337-bea0-d7adca2961b5",
      "name": "Ash",
      "url": "https://haz-map.com/Agents/965",
      "category": "agents"
    },
    {
      "type": "name_match",
      "text": "rare earth metals",
      "confidence": 1.0,
      "uuid": "d407be39-4246-4092-9972-c293dd5b7b71",
      "name": "RARE EARTH METALS",
      "url": "https://haz-map.com/Agents/2621",
      "category": "agents"
    },
    {
      "type": "name_match",
      "text": "yttrium carbide",
      "confidence": 1.0,
      "uuid": "49ac4fc0-12b0-48ac-90d4-430ec2319ee3",
      "name": "Yttrium carbide",
      "url": "https://haz-map.com/Agents/8726",
      "category": "agents"
    },
    {
      "type": "name_match",
      "text": "water",
      "confidence": 1.0,
      "uuid": "6f2a7557-dfd2-49bc-9b4b-a93cd8e225d4",
      "name": "Water",
      "url": "https://haz-map.com/Agents/18668",
      "category": "agents"
    },
    {
      "type": "name_match",
      "text": "carbides",
      "confidence": 1.0,
      "uuid": "c64d73d7-7753-4aa6-ba15-f80b55a01cc3",
      "name": "CARBIDES",
      "url": "https://haz-map.com/Agents/19035",
      "category": "agents"
    }
  ],
  "all_links": [
    {
      "text": "Search PubMed",
      "url": "https://www.ncbi.nlm.nih.gov/pubmed?term=Yttrium+carbide%20AND%20human%5Bmh%5D%20AND%20%28Occupational%20Diseases%20%5Bmh%5D%20OR%20Occupational%20Exposure%20%5Bmh%5D%29%20%20AND%20%28tox%5Bsb%5D%29&cmd=search"
    }
  ]
}