{
  "metadata": {
    "scraped_from": "https://haz-map.com/Agents/4682",
    "entity_name": "Deoxycholic acid",
    "category": "agents",
    "uuid": "49c9fcc4-802b-4d0a-aa91-8c6968790eeb",
    "scraped_at": "2025-07-23T19:43:29.253660"
  },
  "parsed_at": "2025-07-24T01:02:41.320619",
  "title": "Deoxycholic acid",
  "sections": {
    "general": {
      "agent_name": {
        "original_name": "Agent Name",
        "value": "Deoxycholic acid",
        "links": [],
        "cross_references": [
          {
            "type": "name_match",
            "text": "cholic acid",
            "confidence": 1.0,
            "uuid": "b6e13d68-45c6-44dd-90b2-fff7c986afdd",
            "name": "Cholic acid",
            "url": "https://haz-map.com/Agents/4391",
            "category": "agents"
          },
          {
            "type": "name_match",
            "text": "deoxycholic acid",
            "confidence": 1.0,
            "uuid": "49c9fcc4-802b-4d0a-aa91-8c6968790eeb",
            "name": "Deoxycholic acid",
            "url": "https://haz-map.com/Agents/4682",
            "category": "agents"
          }
        ]
      },
      "cas_number": {
        "original_name": "CAS Number",
        "value": "83-44-3",
        "links": [],
        "cross_references": []
      },
      "formula": {
        "original_name": "Formula",
        "value": "C24-H40-O4",
        "links": [],
        "cross_references": []
      },
      "major_category": {
        "original_name": "Major Category",
        "value": "Other Classes",
        "links": [],
        "cross_references": []
      },
      "synonyms": {
        "original_name": "Synonyms",
        "value": "17-beta-(1-Methyl-3-carboxypropyl)-etiocholane-3-alpha,12-alpha-diol; 3,12-Dihydroxycholan-24-oic acid, (3alpha,5beta,12alpha)-; 3,12-Dihydroxycholanic acid; 3-alpha,12-alpha-Dihydroxy-5-beta-cholanoic acid; 3-alpha,12-alpha-Dihydroxycholansaeure [German]; 3alpha,12alpha-Dihydroxy-5beta-cholan-24-oic acid; 3alpha,12alpha-Dihydroxy-5beta-cholanic acid; 5-beta-Deoxycholic acid; 5beta-Cholan-24-oic acid, 3alpha,12alpha-dihydroxy-; 7alpha-Deoxycholic acid; Cholan-24-oic, 3,12-dihydroxy-(3alpha,5beta,12alpha)-; Choleic acid; Cholerebic; Cholic acid, deoxy-; Cholorebic; Degalol; Deoxy cholic acid; Deoxycholatic acid; Desoxycholic acid; Desoxycholsaeure [German]; Dihydroxycholanoic acid; Droxolan; Pyrochol; Septochol; [ChemIDplus]",
        "links": [],
        "cross_references": [
          {
            "type": "name_match",
            "text": "cholic acid",
            "confidence": 1.0,
            "uuid": "b6e13d68-45c6-44dd-90b2-fff7c986afdd",
            "name": "Cholic acid",
            "url": "https://haz-map.com/Agents/4391",
            "category": "agents"
          },
          {
            "type": "name_match",
            "text": "deoxycholic acid",
            "confidence": 1.0,
            "uuid": "49c9fcc4-802b-4d0a-aa91-8c6968790eeb",
            "name": "Deoxycholic acid",
            "url": "https://haz-map.com/Agents/4682",
            "category": "agents"
          },
          {
            "type": "name_match",
            "text": "oleic acid",
            "confidence": 1.0,
            "uuid": "92fd92b6-f74c-4bd2-b9f1-919fbad882ae",
            "name": "Oleic acid",
            "url": "https://haz-map.com/Agents/6455",
            "category": "agents"
          }
        ]
      },
      "category": {
        "original_name": "Category",
        "value": "Organic Acids",
        "links": [],
        "cross_references": []
      },
      "description": {
        "original_name": "Description",
        "value": "Solid; [Merck Index] White powder; [MSDSonline]",
        "links": [],
        "cross_references": []
      },
      "sourcesuses": {
        "original_name": "Sources/Uses",
        "value": "Naturally occurs in the bile of man, ox, sheep, dog, goat, and rabbit; [Merck Index] Used as emulsifying agent in food, a precursor in the synthesis of cortisone, and a gallbladder stimulant; [HSDB]",
        "links": [],
        "cross_references": [
          {
            "type": "name_match",
            "text": "dde",
            "confidence": 1.0,
            "uuid": "88506fb4-e7b1-4bde-a283-917057f67fc2",
            "name": "DDE",
            "url": "https://haz-map.com/Agents/4656",
            "category": "agents"
          }
        ]
      },
      "comments": {
        "original_name": "Comments",
        "value": "Emergency treatment: symptomatic drug ingestion; [HSDB] An irritant; [MSDSonline]",
        "links": [],
        "cross_references": []
      },
      "biomedical_references": {
        "original_name": "Biomedical References",
        "value": "Search PubMed",
        "links": [
          {
            "text": "Search PubMed",
            "url": "https://www.ncbi.nlm.nih.gov/pubmed?term=Deoxycholic+acid%20AND%20human%5Bmh%5D%20AND%20%28Occupational%20Diseases%20%5Bmh%5D%20OR%20Occupational%20Exposure%20%5Bmh%5D%29%20%20AND%20%28tox%5Bsb%5D%29&cmd=search"
          }
        ],
        "cross_references": []
      }
    },
    "exposure_assessment": {
      "vapor_pressure": {
        "original_name": "Vapor Pressure",
        "value": "3E-13 mm Hg",
        "links": [],
        "cross_references": []
      }
    },
    "diseases_processes_and_activities_linked_to_this_agent": {
      "other_information": {
        "original_name": "Other Information",
        "value": "No other related information on this agent was found.",
        "links": [],
        "cross_references": []
      }
    }
  },
  "cross_references": [
    {
      "type": "name_match",
      "text": "cholic acid",
      "confidence": 1.0,
      "uuid": "b6e13d68-45c6-44dd-90b2-fff7c986afdd",
      "name": "Cholic acid",
      "url": "https://haz-map.com/Agents/4391",
      "category": "agents"
    },
    {
      "type": "name_match",
      "text": "dde",
      "confidence": 1.0,
      "uuid": "88506fb4-e7b1-4bde-a283-917057f67fc2",
      "name": "DDE",
      "url": "https://haz-map.com/Agents/4656",
      "category": "agents"
    },
    {
      "type": "name_match",
      "text": "deoxycholic acid",
      "confidence": 1.0,
      "uuid": "49c9fcc4-802b-4d0a-aa91-8c6968790eeb",
      "name": "Deoxycholic acid",
      "url": "https://haz-map.com/Agents/4682",
      "category": "agents"
    },
    {
      "type": "name_match",
      "text": "oleic acid",
      "confidence": 1.0,
      "uuid": "92fd92b6-f74c-4bd2-b9f1-919fbad882ae",
      "name": "Oleic acid",
      "url": "https://haz-map.com/Agents/6455",
      "category": "agents"
    }
  ],
  "all_links": [
    {
      "text": "Search PubMed",
      "url": "https://www.ncbi.nlm.nih.gov/pubmed?term=Deoxycholic+acid%20AND%20human%5Bmh%5D%20AND%20%28Occupational%20Diseases%20%5Bmh%5D%20OR%20Occupational%20Exposure%20%5Bmh%5D%29%20%20AND%20%28tox%5Bsb%5D%29&cmd=search"
    }
  ]
}