{
  "metadata": {
    "scraped_from": "https://haz-map.com/Agents/7475",
    "entity_name": "Tralomethrin",
    "category": "agents",
    "uuid": "49c9e236-7028-4cce-a4d6-bda72e359919",
    "scraped_at": "2025-07-23T20:13:02.852368"
  },
  "parsed_at": "2025-07-24T01:12:44.995140",
  "title": "Tralomethrin",
  "sections": {
    "general": {
      "agent_name": {
        "original_name": "Agent Name",
        "value": "Tralomethrin",
        "links": [],
        "cross_references": [
          {
            "type": "name_match",
            "text": "tralomethrin",
            "confidence": 1.0,
            "uuid": "49c9e236-7028-4cce-a4d6-bda72e359919",
            "name": "Tralomethrin",
            "url": "https://haz-map.com/Agents/7475",
            "category": "agents"
          }
        ]
      },
      "cas_number": {
        "original_name": "CAS Number",
        "value": "66841-25-6",
        "links": [],
        "cross_references": []
      },
      "formula": {
        "original_name": "Formula",
        "value": "C22-H19-Br4-N-O3",
        "links": [],
        "cross_references": []
      },
      "major_category": {
        "original_name": "Major Category",
        "value": "Pesticides",
        "links": [],
        "cross_references": []
      },
      "synonyms": {
        "original_name": "Synonyms",
        "value": "(S)-alpha-Cyano-3-phenoxybenzyl (1R)-cis-2,2-dimethyl-3-((RS)-1,2,2,2-tetrabromoethyl)-cyclopropanecarboxylate; (S)-alpha-Cyano-3-phenoxybenzyl (1R,3S)-2,2-dimethyl-3-((RS)-1,2,2,2-tetrabromoethyl)-cyclopropanecarboxylate; Bengal Fire Ant Killer; Cyano(3-phenoxyphenyl)methyl 2,2-dimethyl-3-(1,2,2,2-tetrabromoethyl)cyclopropanecarboxylate; HAG 107; HOE 107; RU 25472; SAGA; Scout; Scout X-tra; Tralomethrine [ISO-French]; Cyclopropanecarboxylic acid, 2,2-dimethyl-3-(1,2,2,2-tetrabromoethyl)-, alpha-cyano(3-phenoxyphenyl)methyl ester, (1R-cis-(1alpha(S*),3alpha(RS*)))-; Cyclopropanecarboxylic acid, 2,2-dimethyl-3-(1,2,2,2-tetrabromoethyl)-, cyano(3-phenoxyphenyl)methyl ester; [ChemIDplus]",
        "links": [],
        "cross_references": [
          {
            "type": "name_match",
            "text": "propane",
            "confidence": 1.0,
            "uuid": "563a611b-46ea-4bdc-b77b-17d8f7646283",
            "name": "Propane",
            "url": "https://haz-map.com/Agents/607",
            "category": "agents"
          },
          {
            "type": "name_match",
            "text": "cyclopropane",
            "confidence": 1.0,
            "uuid": "eff680c8-2b85-4f0d-9c04-449434d56b54",
            "name": "Cyclopropane",
            "url": "https://haz-map.com/Agents/4611",
            "category": "agents"
          },
          {
            "type": "name_match",
            "text": "tralomethrin",
            "confidence": 1.0,
            "uuid": "49c9e236-7028-4cce-a4d6-bda72e359919",
            "name": "Tralomethrin",
            "url": "https://haz-map.com/Agents/7475",
            "category": "agents"
          },
          {
            "type": "name_match",
            "text": "cyclopropanecarboxylic acid",
            "confidence": 1.0,
            "uuid": "34616f0c-ada5-417e-a983-ad8428383152",
            "name": "Cyclopropanecarboxylic acid",
            "url": "https://haz-map.com/Agents/13541",
            "category": "agents"
          }
        ]
      },
      "category": {
        "original_name": "Category",
        "value": "Pyrethrins/Pyrethroids",
        "links": [],
        "cross_references": []
      },
      "description": {
        "original_name": "Description",
        "value": "Yellow-orange solid; [HSDB] White or beige powder; [MSDSonline]",
        "links": [],
        "cross_references": []
      },
      "sourcesuses": {
        "original_name": "Sources/Uses",
        "value": "Used as insecticide for cereals, coffee, cotton, fruit, vegetables, and other crops; [HSDB]",
        "links": [],
        "cross_references": []
      },
      "comments": {
        "original_name": "Comments",
        "value": "A synthetic pyrethroid; [Merck Index] An eye irritant; [MSDSonline] See \"Pyrethrum.\"",
        "links": [],
        "cross_references": [
          {
            "type": "name_match",
            "text": "pyrethrum",
            "confidence": 1.0,
            "uuid": "2207eb81-00c4-4197-8027-9a241d9cab6a",
            "name": "Pyrethrum",
            "url": "https://haz-map.com/Agents/615",
            "category": "agents"
          }
        ]
      },
      "biomedical_references": {
        "original_name": "Biomedical References",
        "value": "Search PubMed",
        "links": [
          {
            "text": "Search PubMed",
            "url": "https://www.ncbi.nlm.nih.gov/pubmed?term=Tralomethrin%20AND%20human%5Bmh%5D%20AND%20%28Occupational%20Diseases%20%5Bmh%5D%20OR%20Occupational%20Exposure%20%5Bmh%5D%29%20%20AND%20%28tox%5Bsb%5D%29&cmd=search"
          }
        ],
        "cross_references": []
      }
    },
    "exposure_assessment": {
      "vapor_pressure": {
        "original_name": "Vapor Pressure",
        "value": "3.6E-11 mm Hg",
        "links": [],
        "cross_references": []
      },
      "lethal_concentration": {
        "original_name": "Lethal Concentration",
        "value": "LCLo (rat) = 286 mg/m3/4h",
        "links": [],
        "cross_references": []
      }
    },
    "adverse_effects": {
      "neurotoxin": {
        "original_name": "Neurotoxin",
        "value": "Other CNS neurotoxin",
        "links": [],
        "cross_references": []
      }
    },
    "diseases_processes_and_activities_linked_to_this_agent": {
      "processes": {
        "original_name": "Processes",
        "value": "Industrial Processes with risk of exposure: Farming (Pesticides)",
        "links": [
          {
            "text": "Farming (Pesticides)",
            "url": "https://haz-map.com/Processes/218"
          }
        ],
        "cross_references": [
          {
            "type": "url_match",
            "text": "Farming (Pesticides)",
            "url": "https://haz-map.com/Processes/218",
            "confidence": 1.0,
            "uuid": "cf1e5815-c9bb-4917-82a5-391848170b7e",
            "name": "Farming (Pesticides)",
            "category": "processes"
          }
        ]
      }
    }
  },
  "cross_references": [
    {
      "type": "url_match",
      "text": "Farming (Pesticides)",
      "url": "https://haz-map.com/Processes/218",
      "confidence": 1.0,
      "uuid": "cf1e5815-c9bb-4917-82a5-391848170b7e",
      "name": "Farming (Pesticides)",
      "category": "processes"
    },
    {
      "type": "name_match",
      "text": "propane",
      "confidence": 1.0,
      "uuid": "563a611b-46ea-4bdc-b77b-17d8f7646283",
      "name": "Propane",
      "url": "https://haz-map.com/Agents/607",
      "category": "agents"
    },
    {
      "type": "name_match",
      "text": "pyrethrum",
      "confidence": 1.0,
      "uuid": "2207eb81-00c4-4197-8027-9a241d9cab6a",
      "name": "Pyrethrum",
      "url": "https://haz-map.com/Agents/615",
      "category": "agents"
    },
    {
      "type": "name_match",
      "text": "cyclopropane",
      "confidence": 1.0,
      "uuid": "eff680c8-2b85-4f0d-9c04-449434d56b54",
      "name": "Cyclopropane",
      "url": "https://haz-map.com/Agents/4611",
      "category": "agents"
    },
    {
      "type": "name_match",
      "text": "tralomethrin",
      "confidence": 1.0,
      "uuid": "49c9e236-7028-4cce-a4d6-bda72e359919",
      "name": "Tralomethrin",
      "url": "https://haz-map.com/Agents/7475",
      "category": "agents"
    },
    {
      "type": "name_match",
      "text": "cyclopropanecarboxylic acid",
      "confidence": 1.0,
      "uuid": "34616f0c-ada5-417e-a983-ad8428383152",
      "name": "Cyclopropanecarboxylic acid",
      "url": "https://haz-map.com/Agents/13541",
      "category": "agents"
    }
  ],
  "all_links": [
    {
      "text": "Search PubMed",
      "url": "https://www.ncbi.nlm.nih.gov/pubmed?term=Tralomethrin%20AND%20human%5Bmh%5D%20AND%20%28Occupational%20Diseases%20%5Bmh%5D%20OR%20Occupational%20Exposure%20%5Bmh%5D%29%20%20AND%20%28tox%5Bsb%5D%29&cmd=search"
    },
    {
      "text": "Farming (Pesticides)",
      "url": "https://haz-map.com/Processes/218"
    }
  ]
}