{
  "metadata": {
    "scraped_from": "https://haz-map.com/Agents/13368",
    "entity_name": "1-Methylcyclobutane",
    "category": "agents",
    "uuid": "4a171f89-ad64-41e3-b47f-4f55c38c4e9f",
    "scraped_at": "2025-07-23T21:13:54.364449"
  },
  "parsed_at": "2025-07-24T00:58:02.917695",
  "title": "1-Methylcyclobutane",
  "sections": {
    "general": {
      "agent_name": {
        "original_name": "Agent Name",
        "value": "1-Methylcyclobutane",
        "links": [],
        "cross_references": [
          {
            "type": "name_match",
            "text": "cyclobutane",
            "confidence": 1.0,
            "uuid": "2bd1c60c-5aff-457d-8873-080846fd0ece",
            "name": "Cyclobutane",
            "url": "https://haz-map.com/Agents/4576",
            "category": "agents"
          },
          {
            "type": "name_match",
            "text": "ethylcyclobutane",
            "confidence": 1.0,
            "uuid": "1d755a88-98fc-4d04-b6f1-efc59084ec40",
            "name": "Ethylcyclobutane",
            "url": "https://haz-map.com/Agents/13367",
            "category": "agents"
          },
          {
            "type": "name_match",
            "text": "1-methylcyclobutane",
            "confidence": 1.0,
            "uuid": "4a171f89-ad64-41e3-b47f-4f55c38c4e9f",
            "name": "1-Methylcyclobutane",
            "url": "https://haz-map.com/Agents/13368",
            "category": "agents"
          }
        ]
      },
      "cas_number": {
        "original_name": "CAS Number",
        "value": "598-61-8",
        "links": [],
        "cross_references": []
      },
      "formula": {
        "original_name": "Formula",
        "value": "C5-H10",
        "links": [],
        "cross_references": []
      },
      "major_category": {
        "original_name": "Major Category",
        "value": "Solvents",
        "links": [],
        "cross_references": []
      },
      "synonyms": {
        "original_name": "Synonyms",
        "value": "Cyclobutane, methyl-; [ChemIDplus]",
        "links": [],
        "cross_references": [
          {
            "type": "name_match",
            "text": "cyclobutane",
            "confidence": 1.0,
            "uuid": "2bd1c60c-5aff-457d-8873-080846fd0ece",
            "name": "Cyclobutane",
            "url": "https://haz-map.com/Agents/4576",
            "category": "agents"
          }
        ]
      },
      "category": {
        "original_name": "Category",
        "value": "Aliphatics, Saturated (<C12)",
        "links": [],
        "cross_references": []
      },
      "description": {
        "original_name": "Description",
        "value": "Boiling point = 36.3 deg C; [ChemIDplus]",
        "links": [],
        "cross_references": []
      },
      "comments": {
        "original_name": "Comments",
        "value": "See \"Ethylcyclobutane.\"",
        "links": [],
        "cross_references": [
          {
            "type": "name_match",
            "text": "cyclobutane",
            "confidence": 1.0,
            "uuid": "2bd1c60c-5aff-457d-8873-080846fd0ece",
            "name": "Cyclobutane",
            "url": "https://haz-map.com/Agents/4576",
            "category": "agents"
          },
          {
            "type": "name_match",
            "text": "ethylcyclobutane",
            "confidence": 1.0,
            "uuid": "1d755a88-98fc-4d04-b6f1-efc59084ec40",
            "name": "Ethylcyclobutane",
            "url": "https://haz-map.com/Agents/13367",
            "category": "agents"
          }
        ]
      },
      "biomedical_references": {
        "original_name": "Biomedical References",
        "value": "Search PubMed",
        "links": [
          {
            "text": "Search PubMed",
            "url": "https://www.ncbi.nlm.nih.gov/pubmed?term=1-Methylcyclobutane%20AND%20human%5Bmh%5D%20AND%20%28Occupational%20Diseases%20%5Bmh%5D%20OR%20Occupational%20Exposure%20%5Bmh%5D%29%20%20AND%20%28tox%5Bsb%5D%29&cmd=search"
          }
        ],
        "cross_references": []
      }
    },
    "adverse_effects": {
      "neurotoxin": {
        "original_name": "Neurotoxin",
        "value": "Acute solvent syndrome",
        "links": [],
        "cross_references": []
      }
    },
    "diseases_processes_and_activities_linked_to_this_agent": {
      "diseases": {
        "original_name": "Diseases",
        "value": "Occupational diseases associated with exposure to this agent: Solvents, acute toxic effect",
        "links": [
          {
            "text": "Solvents, acute toxic effect",
            "url": "https://haz-map.com/Diseases/326"
          }
        ],
        "cross_references": [
          {
            "type": "url_match",
            "text": "Solvents, acute toxic effect",
            "url": "https://haz-map.com/Diseases/326",
            "confidence": 1.0,
            "uuid": "581e90e3-9d0c-45f0-aa6c-3468c28da129",
            "name": "Solvents, acute toxic effect",
            "category": "diseases"
          }
        ]
      }
    }
  },
  "cross_references": [
    {
      "type": "url_match",
      "text": "Solvents, acute toxic effect",
      "url": "https://haz-map.com/Diseases/326",
      "confidence": 1.0,
      "uuid": "581e90e3-9d0c-45f0-aa6c-3468c28da129",
      "name": "Solvents, acute toxic effect",
      "category": "diseases"
    },
    {
      "type": "name_match",
      "text": "cyclobutane",
      "confidence": 1.0,
      "uuid": "2bd1c60c-5aff-457d-8873-080846fd0ece",
      "name": "Cyclobutane",
      "url": "https://haz-map.com/Agents/4576",
      "category": "agents"
    },
    {
      "type": "name_match",
      "text": "ethylcyclobutane",
      "confidence": 1.0,
      "uuid": "1d755a88-98fc-4d04-b6f1-efc59084ec40",
      "name": "Ethylcyclobutane",
      "url": "https://haz-map.com/Agents/13367",
      "category": "agents"
    },
    {
      "type": "name_match",
      "text": "1-methylcyclobutane",
      "confidence": 1.0,
      "uuid": "4a171f89-ad64-41e3-b47f-4f55c38c4e9f",
      "name": "1-Methylcyclobutane",
      "url": "https://haz-map.com/Agents/13368",
      "category": "agents"
    }
  ],
  "all_links": [
    {
      "text": "Search PubMed",
      "url": "https://www.ncbi.nlm.nih.gov/pubmed?term=1-Methylcyclobutane%20AND%20human%5Bmh%5D%20AND%20%28Occupational%20Diseases%20%5Bmh%5D%20OR%20Occupational%20Exposure%20%5Bmh%5D%29%20%20AND%20%28tox%5Bsb%5D%29&cmd=search"
    },
    {
      "text": "Solvents, acute toxic effect",
      "url": "https://haz-map.com/Diseases/326"
    }
  ]
}