{
  "metadata": {
    "scraped_from": "https://haz-map.com/Agents/4195",
    "entity_name": "Caprolactone",
    "category": "agents",
    "uuid": "4a49e2e8-3155-4c66-aac5-32a6a8b7d681",
    "scraped_at": "2025-07-23T19:38:39.247668"
  },
  "parsed_at": "2025-07-24T01:05:30.733614",
  "title": "Caprolactone",
  "sections": {
    "general": {
      "agent_name": {
        "original_name": "Agent Name",
        "value": "Caprolactone",
        "links": [],
        "cross_references": [
          {
            "type": "name_match",
            "text": "caprolactone",
            "confidence": 1.0,
            "uuid": "4a49e2e8-3155-4c66-aac5-32a6a8b7d681",
            "name": "Caprolactone",
            "url": "https://haz-map.com/Agents/4195",
            "category": "agents"
          }
        ]
      },
      "cas_number": {
        "original_name": "CAS Number",
        "value": "502-44-3",
        "links": [],
        "cross_references": []
      },
      "formula": {
        "original_name": "Formula",
        "value": "C6-H10-O2",
        "links": [],
        "cross_references": []
      },
      "major_category": {
        "original_name": "Major Category",
        "value": "Other Classes",
        "links": [],
        "cross_references": []
      },
      "synonyms": {
        "original_name": "Synonyms",
        "value": "1,6-Hexanolide; 2-Oxepanone; 6-Hexanolactone; 6-Hydroxyhexanoic acid lactone; Epsilon-caprolactone; Hexamethylene oxide, 2-oxo-; Hexanoic acid, 6-hydroxy-, epsilon-lactone; Placcel M; epsilon-Kaprolakton [Czech]; [ChemIDplus]",
        "links": [],
        "cross_references": [
          {
            "type": "name_match",
            "text": "ethylene oxide",
            "confidence": 1.0,
            "uuid": "df29ee36-6345-4c09-b2c3-e3501b1449ec",
            "name": "Ethylene oxide",
            "url": "https://haz-map.com/Agents/21",
            "category": "agents"
          },
          {
            "type": "name_match",
            "text": "ethylene",
            "confidence": 1.0,
            "uuid": "958eacc0-5135-4b62-bb93-6df972bf552f",
            "name": "Ethylene",
            "url": "https://haz-map.com/Agents/1076",
            "category": "agents"
          },
          {
            "type": "name_match",
            "text": "caprolactone",
            "confidence": 1.0,
            "uuid": "4a49e2e8-3155-4c66-aac5-32a6a8b7d681",
            "name": "Caprolactone",
            "url": "https://haz-map.com/Agents/4195",
            "category": "agents"
          }
        ]
      },
      "category": {
        "original_name": "Category",
        "value": "Lactones",
        "links": [],
        "cross_references": []
      },
      "description": {
        "original_name": "Description",
        "value": "Colorless liquid; Miscible in water; [eChemPortal: SIDSUNEP] Colorless liquid; [MSDSonline]",
        "links": [],
        "cross_references": [
          {
            "type": "name_match",
            "text": "water",
            "confidence": 1.0,
            "uuid": "6f2a7557-dfd2-49bc-9b4b-a93cd8e225d4",
            "name": "Water",
            "url": "https://haz-map.com/Agents/18668",
            "category": "agents"
          }
        ]
      },
      "sourcesuses": {
        "original_name": "Sources/Uses",
        "value": "Used as a solvent, a diluent for epoxy resins, and an intermediate in adhesives, urethane coatings, and elastomers; [Hawley] Used in the production of polymers (polycaprolactones); [eChemPortal: SIDSUNEP]",
        "links": [],
        "cross_references": [
          {
            "type": "name_match",
            "text": "epoxy resins",
            "confidence": 1.0,
            "uuid": "4724cfe8-e98a-4ee6-a6de-25e8d9534e62",
            "name": "EPOXY RESINS",
            "url": "https://haz-map.com/Agents/30",
            "category": "agents"
          },
          {
            "type": "name_match",
            "text": "ethane",
            "confidence": 1.0,
            "uuid": "5162cc8c-dfb9-4060-81ac-38a8cec7f9dd",
            "name": "Ethane",
            "url": "https://haz-map.com/Agents/1075",
            "category": "agents"
          },
          {
            "type": "name_match",
            "text": "urethane",
            "confidence": 1.0,
            "uuid": "6405f173-6b8a-4d9b-a282-a1a6bf6901fd",
            "name": "Urethane",
            "url": "https://haz-map.com/Agents/2032",
            "category": "agents"
          },
          {
            "type": "name_match",
            "text": "caprolactone",
            "confidence": 1.0,
            "uuid": "4a49e2e8-3155-4c66-aac5-32a6a8b7d681",
            "name": "Caprolactone",
            "url": "https://haz-map.com/Agents/4195",
            "category": "agents"
          }
        ]
      },
      "comments": {
        "original_name": "Comments",
        "value": "Emergency treatment: \"irritants\"; [HSDB] Rapidly hydrolyzed in the body to 6-hydroxyhexanoic acid and rapidly excreted in urine; Irritating to eyes; No adverse effects in a 9-day inhalation study at 45 ppm; No evidence of reproductive effects; [ToxPlanet: UNEP: SIDS] An irritant; [MSDSonline]",
        "links": [],
        "cross_references": [
          {
            "type": "name_match",
            "text": "irritants",
            "confidence": 1.0,
            "uuid": "9d2b9572-8c3e-48a4-ac68-63d6e2eb6f49",
            "name": "Irritants",
            "url": "https://haz-map.com/Agents/2063",
            "category": "agents"
          }
        ]
      },
      "biomedical_references": {
        "original_name": "Biomedical References",
        "value": "Search PubMed",
        "links": [
          {
            "text": "Search PubMed",
            "url": "https://www.ncbi.nlm.nih.gov/pubmed?term=Caprolactone%20AND%20human%5Bmh%5D%20AND%20%28Occupational%20Diseases%20%5Bmh%5D%20OR%20Occupational%20Exposure%20%5Bmh%5D%29%20%20AND%20%28tox%5Bsb%5D%29&cmd=search"
          }
        ],
        "cross_references": []
      }
    },
    "exposure_assessment": {
      "vapor_pressure": {
        "original_name": "Vapor Pressure",
        "value": "0.135 mm Hg",
        "links": [],
        "cross_references": []
      },
      "explanatory_notes": {
        "original_name": "Explanatory Notes",
        "value": "VP from ChemIDplus;",
        "links": [],
        "cross_references": []
      }
    },
    "diseases_processes_and_activities_linked_to_this_agent": {
      "processes": {
        "original_name": "Processes",
        "value": "Industrial Processes with risk of exposure: Plastic Composites Manufacturing",
        "links": [
          {
            "text": "Plastic Composites Manufacturing",
            "url": "https://haz-map.com/Processes/222"
          }
        ],
        "cross_references": [
          {
            "type": "url_match",
            "text": "Plastic Composites Manufacturing",
            "url": "https://haz-map.com/Processes/222",
            "confidence": 1.0,
            "uuid": "d4461b82-dc77-4172-8e3d-0a5e3b213911",
            "name": "Plastic Composites Manufacturing",
            "category": "processes"
          }
        ]
      }
    }
  },
  "cross_references": [
    {
      "type": "url_match",
      "text": "Plastic Composites Manufacturing",
      "url": "https://haz-map.com/Processes/222",
      "confidence": 1.0,
      "uuid": "d4461b82-dc77-4172-8e3d-0a5e3b213911",
      "name": "Plastic Composites Manufacturing",
      "category": "processes"
    },
    {
      "type": "name_match",
      "text": "ethylene oxide",
      "confidence": 1.0,
      "uuid": "df29ee36-6345-4c09-b2c3-e3501b1449ec",
      "name": "Ethylene oxide",
      "url": "https://haz-map.com/Agents/21",
      "category": "agents"
    },
    {
      "type": "name_match",
      "text": "epoxy resins",
      "confidence": 1.0,
      "uuid": "4724cfe8-e98a-4ee6-a6de-25e8d9534e62",
      "name": "EPOXY RESINS",
      "url": "https://haz-map.com/Agents/30",
      "category": "agents"
    },
    {
      "type": "name_match",
      "text": "ethane",
      "confidence": 1.0,
      "uuid": "5162cc8c-dfb9-4060-81ac-38a8cec7f9dd",
      "name": "Ethane",
      "url": "https://haz-map.com/Agents/1075",
      "category": "agents"
    },
    {
      "type": "name_match",
      "text": "ethylene",
      "confidence": 1.0,
      "uuid": "958eacc0-5135-4b62-bb93-6df972bf552f",
      "name": "Ethylene",
      "url": "https://haz-map.com/Agents/1076",
      "category": "agents"
    },
    {
      "type": "name_match",
      "text": "urethane",
      "confidence": 1.0,
      "uuid": "6405f173-6b8a-4d9b-a282-a1a6bf6901fd",
      "name": "Urethane",
      "url": "https://haz-map.com/Agents/2032",
      "category": "agents"
    },
    {
      "type": "name_match",
      "text": "irritants",
      "confidence": 1.0,
      "uuid": "9d2b9572-8c3e-48a4-ac68-63d6e2eb6f49",
      "name": "Irritants",
      "url": "https://haz-map.com/Agents/2063",
      "category": "agents"
    },
    {
      "type": "name_match",
      "text": "caprolactone",
      "confidence": 1.0,
      "uuid": "4a49e2e8-3155-4c66-aac5-32a6a8b7d681",
      "name": "Caprolactone",
      "url": "https://haz-map.com/Agents/4195",
      "category": "agents"
    },
    {
      "type": "name_match",
      "text": "water",
      "confidence": 1.0,
      "uuid": "6f2a7557-dfd2-49bc-9b4b-a93cd8e225d4",
      "name": "Water",
      "url": "https://haz-map.com/Agents/18668",
      "category": "agents"
    }
  ],
  "all_links": [
    {
      "text": "Search PubMed",
      "url": "https://www.ncbi.nlm.nih.gov/pubmed?term=Caprolactone%20AND%20human%5Bmh%5D%20AND%20%28Occupational%20Diseases%20%5Bmh%5D%20OR%20Occupational%20Exposure%20%5Bmh%5D%29%20%20AND%20%28tox%5Bsb%5D%29&cmd=search"
    },
    {
      "text": "Plastic Composites Manufacturing",
      "url": "https://haz-map.com/Processes/222"
    }
  ]
}