{
  "metadata": {
    "scraped_from": "https://haz-map.com/Agents/6052",
    "entity_name": "Methyl 3-chlorobenzoate",
    "category": "agents",
    "uuid": "4a65d255-4f50-4225-a46e-33093b0f11e4",
    "scraped_at": "2025-07-23T19:58:02.414674"
  },
  "parsed_at": "2025-07-24T00:58:37.668128",
  "title": "Methyl 3-chlorobenzoate",
  "sections": {
    "general": {
      "agent_name": {
        "original_name": "Agent Name",
        "value": "Methyl 3-chlorobenzoate",
        "links": [],
        "cross_references": [
          {
            "type": "name_match",
            "text": "methyl 3-chlorobenzoate",
            "confidence": 1.0,
            "uuid": "4a65d255-4f50-4225-a46e-33093b0f11e4",
            "name": "Methyl 3-chlorobenzoate",
            "url": "https://haz-map.com/Agents/6052",
            "category": "agents"
          }
        ]
      },
      "cas_number": {
        "original_name": "CAS Number",
        "value": "2905-65-9",
        "links": [],
        "cross_references": []
      },
      "formula": {
        "original_name": "Formula",
        "value": "C8-H7-Cl-O2",
        "links": [],
        "cross_references": []
      },
      "major_category": {
        "original_name": "Major Category",
        "value": "Other Classes",
        "links": [],
        "cross_references": []
      },
      "synonyms": {
        "original_name": "Synonyms",
        "value": "Benzoic acid, 3-chloro-, methyl ester; Benzoic acid, m-chloro-, methyl ester; Methyl m-chlorobenzoate; m-Chlorobenzoic acid methyl ester; [ChemIDplus]",
        "links": [],
        "cross_references": [
          {
            "type": "name_match",
            "text": "benzoic acid",
            "confidence": 1.0,
            "uuid": "d2c5d3be-d826-4f55-bc32-7b16821aef40",
            "name": "Benzoic acid",
            "url": "https://haz-map.com/Agents/1883",
            "category": "agents"
          },
          {
            "type": "name_match",
            "text": "m-chlorobenzoic acid",
            "confidence": 1.0,
            "uuid": "26361cbb-ce39-465d-8eb6-0555725e7fe8",
            "name": "m-Chlorobenzoic acid",
            "url": "https://haz-map.com/Agents/3489",
            "category": "agents"
          }
        ]
      },
      "category": {
        "original_name": "Category",
        "value": "Benzoic Acid Derivatives",
        "links": [],
        "cross_references": [
          {
            "type": "name_match",
            "text": "benzoic acid",
            "confidence": 1.0,
            "uuid": "d2c5d3be-d826-4f55-bc32-7b16821aef40",
            "name": "Benzoic acid",
            "url": "https://haz-map.com/Agents/1883",
            "category": "agents"
          }
        ]
      },
      "description": {
        "original_name": "Description",
        "value": "Mp = 21 deg C; [ChemIDplus] Colorless to brown liquid; mp = 20-22 deg C; [MSDSonline]",
        "links": [],
        "cross_references": []
      },
      "comments": {
        "original_name": "Comments",
        "value": "An irritant; [MSDSonline]",
        "links": [],
        "cross_references": []
      },
      "biomedical_references": {
        "original_name": "Biomedical References",
        "value": "Search PubMed",
        "links": [
          {
            "text": "Search PubMed",
            "url": "https://www.ncbi.nlm.nih.gov/pubmed?term=Methyl+3-chlorobenzoate%20AND%20human%5Bmh%5D%20AND%20%28Occupational%20Diseases%20%5Bmh%5D%20OR%20Occupational%20Exposure%20%5Bmh%5D%29%20%20AND%20%28tox%5Bsb%5D%29&cmd=search"
          }
        ],
        "cross_references": []
      }
    },
    "exposure_assessment": {
      "vapor_pressure": {
        "original_name": "Vapor Pressure",
        "value": "0.091 mm Hg",
        "links": [],
        "cross_references": []
      },
      "explanatory_notes": {
        "original_name": "Explanatory Notes",
        "value": "VP from ChemIDplus;",
        "links": [],
        "cross_references": []
      }
    },
    "diseases_processes_and_activities_linked_to_this_agent": {
      "other_information": {
        "original_name": "Other Information",
        "value": "No other related information on this agent was found.",
        "links": [],
        "cross_references": []
      }
    }
  },
  "cross_references": [
    {
      "type": "name_match",
      "text": "benzoic acid",
      "confidence": 1.0,
      "uuid": "d2c5d3be-d826-4f55-bc32-7b16821aef40",
      "name": "Benzoic acid",
      "url": "https://haz-map.com/Agents/1883",
      "category": "agents"
    },
    {
      "type": "name_match",
      "text": "m-chlorobenzoic acid",
      "confidence": 1.0,
      "uuid": "26361cbb-ce39-465d-8eb6-0555725e7fe8",
      "name": "m-Chlorobenzoic acid",
      "url": "https://haz-map.com/Agents/3489",
      "category": "agents"
    },
    {
      "type": "name_match",
      "text": "methyl 3-chlorobenzoate",
      "confidence": 1.0,
      "uuid": "4a65d255-4f50-4225-a46e-33093b0f11e4",
      "name": "Methyl 3-chlorobenzoate",
      "url": "https://haz-map.com/Agents/6052",
      "category": "agents"
    }
  ],
  "all_links": [
    {
      "text": "Search PubMed",
      "url": "https://www.ncbi.nlm.nih.gov/pubmed?term=Methyl+3-chlorobenzoate%20AND%20human%5Bmh%5D%20AND%20%28Occupational%20Diseases%20%5Bmh%5D%20OR%20Occupational%20Exposure%20%5Bmh%5D%29%20%20AND%20%28tox%5Bsb%5D%29&cmd=search"
    }
  ]
}