{
  "metadata": {
    "scraped_from": "https://haz-map.com/Agents/19618",
    "entity_name": "2-Hydroxyphenylacetic acid",
    "category": "agents",
    "uuid": "4aae298d-5f75-45d8-bf11-e110f4e18d10",
    "scraped_at": "2025-07-23T22:09:36.932915"
  },
  "parsed_at": "2025-07-24T01:10:09.976462",
  "title": "2-Hydroxyphenylacetic acid",
  "sections": {
    "general": {
      "agent_name": {
        "original_name": "Agent Name",
        "value": "2-Hydroxyphenylacetic acid",
        "links": [],
        "cross_references": [
          {
            "type": "name_match",
            "text": "acetic acid",
            "confidence": 1.0,
            "uuid": "0905c6e4-df84-4895-a92d-658819239bbd",
            "name": "Acetic acid",
            "url": "https://haz-map.com/Agents/207",
            "category": "agents"
          },
          {
            "type": "name_match",
            "text": "phenylacetic acid",
            "confidence": 1.0,
            "uuid": "9fd56a07-b965-4725-89f1-49d42ccba118",
            "name": "Phenylacetic acid",
            "url": "https://haz-map.com/Agents/6638",
            "category": "agents"
          },
          {
            "type": "name_match",
            "text": "2-hydroxyphenylacetic acid",
            "confidence": 1.0,
            "uuid": "4aae298d-5f75-45d8-bf11-e110f4e18d10",
            "name": "2-Hydroxyphenylacetic acid",
            "url": "https://haz-map.com/Agents/19618",
            "category": "agents"
          }
        ]
      },
      "cas_number": {
        "original_name": "CAS Number",
        "value": "614-75-5",
        "links": [],
        "cross_references": []
      },
      "formula": {
        "original_name": "Formula",
        "value": "C8-H8-O3",
        "links": [],
        "cross_references": []
      },
      "major_category": {
        "original_name": "Major Category",
        "value": "Other Classes",
        "links": [],
        "cross_references": []
      },
      "synonyms": {
        "original_name": "Synonyms",
        "value": "(2-Hydroxyphenyl)acetic acid; 2-Hydroxybenzeneacetic acid; 2-Hydroxyphenylacetate; Hydroxyphenylacetic acid; o-Hydroxy phenylacetic acid; o-Hydroxyphenylacetic acid; Acetic acid, (o-hydroxyphenyl)- (8CI); Benzeneacetic acid, 2-hydroxy-; [ChemIDplus]",
        "links": [],
        "cross_references": [
          {
            "type": "name_match",
            "text": "benzene",
            "confidence": 1.0,
            "uuid": "b05124de-5f34-4c14-8f04-ccb20c3780d9",
            "name": "Benzene",
            "url": "https://haz-map.com/Agents/5",
            "category": "agents"
          },
          {
            "type": "name_match",
            "text": "acetic acid",
            "confidence": 1.0,
            "uuid": "0905c6e4-df84-4895-a92d-658819239bbd",
            "name": "Acetic acid",
            "url": "https://haz-map.com/Agents/207",
            "category": "agents"
          },
          {
            "type": "name_match",
            "text": "phenylacetic acid",
            "confidence": 1.0,
            "uuid": "9fd56a07-b965-4725-89f1-49d42ccba118",
            "name": "Phenylacetic acid",
            "url": "https://haz-map.com/Agents/6638",
            "category": "agents"
          }
        ]
      },
      "category": {
        "original_name": "Category",
        "value": "Organic Acids",
        "links": [],
        "cross_references": []
      },
      "description": {
        "original_name": "Description",
        "value": "Beige powder; [Sigma-Aldrich MSDS]",
        "links": [],
        "cross_references": []
      },
      "comments": {
        "original_name": "Comments",
        "value": "An irritant that may cause tissue destruction and serious eye injury on prolonged or repeated exposure; [Sigma-Aldrich MSDS]",
        "links": [],
        "cross_references": []
      },
      "biomedical_references": {
        "original_name": "Biomedical References",
        "value": "Search PubMed",
        "links": [
          {
            "text": "Search PubMed",
            "url": "https://www.ncbi.nlm.nih.gov/pubmed?term=2-Hydroxyphenylacetic+acid%20AND%20human%5Bmh%5D%20AND%20%28Occupational%20Diseases%20%5Bmh%5D%20OR%20Occupational%20Exposure%20%5Bmh%5D%29%20%20AND%20%28tox%5Bsb%5D%29&cmd=search"
          }
        ],
        "cross_references": []
      }
    },
    "exposure_assessment": {
      "vapor_pressure": {
        "original_name": "Vapor Pressure",
        "value": "5.55E-05 mm Hg",
        "links": [],
        "cross_references": []
      }
    },
    "adverse_effects": {
      "dermatotoxin": {
        "original_name": "Dermatotoxin",
        "value": "Skin burns",
        "links": [],
        "cross_references": [
          {
            "type": "name_match",
            "text": "burn",
            "confidence": 1.0,
            "uuid": "63665de5-6376-4918-8dbf-4c10c4d63837",
            "name": "burn",
            "url": "https://haz-map.com/Findings/204",
            "category": "findings"
          }
        ]
      }
    },
    "diseases_processes_and_activities_linked_to_this_agent": {
      "other_information": {
        "original_name": "Other Information",
        "value": "No other related information on this agent was found.",
        "links": [],
        "cross_references": []
      }
    }
  },
  "cross_references": [
    {
      "type": "name_match",
      "text": "burn",
      "confidence": 1.0,
      "uuid": "63665de5-6376-4918-8dbf-4c10c4d63837",
      "name": "burn",
      "url": "https://haz-map.com/Findings/204",
      "category": "findings"
    },
    {
      "type": "name_match",
      "text": "benzene",
      "confidence": 1.0,
      "uuid": "b05124de-5f34-4c14-8f04-ccb20c3780d9",
      "name": "Benzene",
      "url": "https://haz-map.com/Agents/5",
      "category": "agents"
    },
    {
      "type": "name_match",
      "text": "acetic acid",
      "confidence": 1.0,
      "uuid": "0905c6e4-df84-4895-a92d-658819239bbd",
      "name": "Acetic acid",
      "url": "https://haz-map.com/Agents/207",
      "category": "agents"
    },
    {
      "type": "name_match",
      "text": "phenylacetic acid",
      "confidence": 1.0,
      "uuid": "9fd56a07-b965-4725-89f1-49d42ccba118",
      "name": "Phenylacetic acid",
      "url": "https://haz-map.com/Agents/6638",
      "category": "agents"
    },
    {
      "type": "name_match",
      "text": "2-hydroxyphenylacetic acid",
      "confidence": 1.0,
      "uuid": "4aae298d-5f75-45d8-bf11-e110f4e18d10",
      "name": "2-Hydroxyphenylacetic acid",
      "url": "https://haz-map.com/Agents/19618",
      "category": "agents"
    }
  ],
  "all_links": [
    {
      "text": "Search PubMed",
      "url": "https://www.ncbi.nlm.nih.gov/pubmed?term=2-Hydroxyphenylacetic+acid%20AND%20human%5Bmh%5D%20AND%20%28Occupational%20Diseases%20%5Bmh%5D%20OR%20Occupational%20Exposure%20%5Bmh%5D%29%20%20AND%20%28tox%5Bsb%5D%29&cmd=search"
    }
  ]
}