{
  "metadata": {
    "scraped_from": "https://haz-map.com/Agents/10122",
    "entity_name": "1-Bromohexadecane",
    "category": "agents",
    "uuid": "4ae02aa9-cda6-4357-a241-10c75a341b52",
    "scraped_at": "2025-07-23T20:44:31.692368"
  },
  "parsed_at": "2025-07-24T01:00:48.789210",
  "title": "1-Bromohexadecane",
  "sections": {
    "general": {
      "agent_name": {
        "original_name": "Agent Name",
        "value": "1-Bromohexadecane",
        "links": [],
        "cross_references": [
          {
            "type": "name_match",
            "text": "hexadecane",
            "confidence": 1.0,
            "uuid": "c9e4222f-5899-4172-ab9b-49efb6c2ce75",
            "name": "Hexadecane",
            "url": "https://haz-map.com/Agents/1904",
            "category": "agents"
          },
          {
            "type": "name_match",
            "text": "1-bromohexadecane",
            "confidence": 1.0,
            "uuid": "4ae02aa9-cda6-4357-a241-10c75a341b52",
            "name": "1-Bromohexadecane",
            "url": "https://haz-map.com/Agents/10122",
            "category": "agents"
          }
        ]
      },
      "cas_number": {
        "original_name": "CAS Number",
        "value": "112-82-3",
        "links": [],
        "cross_references": []
      },
      "formula": {
        "original_name": "Formula",
        "value": "C16-H33-Br",
        "links": [],
        "cross_references": []
      },
      "major_category": {
        "original_name": "Major Category",
        "value": "Other Classes",
        "links": [],
        "cross_references": []
      },
      "synonyms": {
        "original_name": "Synonyms",
        "value": "1-Hexadecyl bromide; Cetyl bromide; Hexadecyl bromide; n-Hexadecyl bromide; n-Hexadecyl-1-bromide; Hexadecane, 1-bromo-; [ChemIDplus]",
        "links": [],
        "cross_references": [
          {
            "type": "name_match",
            "text": "hexadecane",
            "confidence": 1.0,
            "uuid": "c9e4222f-5899-4172-ab9b-49efb6c2ce75",
            "name": "Hexadecane",
            "url": "https://haz-map.com/Agents/1904",
            "category": "agents"
          },
          {
            "type": "name_match",
            "text": "decyl bromide",
            "confidence": 1.0,
            "uuid": "f8095bd9-61d9-4be8-803d-6bdf18e82adf",
            "name": "Decyl bromide",
            "url": "https://haz-map.com/Agents/9617",
            "category": "agents"
          }
        ]
      },
      "category": {
        "original_name": "Category",
        "value": "Halogenated Aliphatics, Saturated",
        "links": [],
        "cross_references": []
      },
      "description": {
        "original_name": "Description",
        "value": "Melting point = 18 deg C; [ChemIDplus] Colorless liquid; mp = 16-18 deg C; [Alfa Aesar MSDS]",
        "links": [],
        "cross_references": []
      },
      "comments": {
        "original_name": "Comments",
        "value": "An irritant; [Alfa Aesar MSDS] See \"Hexadecane.\"",
        "links": [],
        "cross_references": [
          {
            "type": "name_match",
            "text": "hexadecane",
            "confidence": 1.0,
            "uuid": "c9e4222f-5899-4172-ab9b-49efb6c2ce75",
            "name": "Hexadecane",
            "url": "https://haz-map.com/Agents/1904",
            "category": "agents"
          }
        ]
      },
      "biomedical_references": {
        "original_name": "Biomedical References",
        "value": "Search PubMed",
        "links": [
          {
            "text": "Search PubMed",
            "url": "https://www.ncbi.nlm.nih.gov/pubmed?term=1-Bromohexadecane%20AND%20human%5Bmh%5D%20AND%20%28Occupational%20Diseases%20%5Bmh%5D%20OR%20Occupational%20Exposure%20%5Bmh%5D%29%20%20AND%20%28tox%5Bsb%5D%29&cmd=search"
          }
        ],
        "cross_references": []
      }
    },
    "diseases_processes_and_activities_linked_to_this_agent": {
      "other_information": {
        "original_name": "Other Information",
        "value": "No other related information on this agent was found.",
        "links": [],
        "cross_references": []
      }
    }
  },
  "cross_references": [
    {
      "type": "name_match",
      "text": "hexadecane",
      "confidence": 1.0,
      "uuid": "c9e4222f-5899-4172-ab9b-49efb6c2ce75",
      "name": "Hexadecane",
      "url": "https://haz-map.com/Agents/1904",
      "category": "agents"
    },
    {
      "type": "name_match",
      "text": "decyl bromide",
      "confidence": 1.0,
      "uuid": "f8095bd9-61d9-4be8-803d-6bdf18e82adf",
      "name": "Decyl bromide",
      "url": "https://haz-map.com/Agents/9617",
      "category": "agents"
    },
    {
      "type": "name_match",
      "text": "1-bromohexadecane",
      "confidence": 1.0,
      "uuid": "4ae02aa9-cda6-4357-a241-10c75a341b52",
      "name": "1-Bromohexadecane",
      "url": "https://haz-map.com/Agents/10122",
      "category": "agents"
    }
  ],
  "all_links": [
    {
      "text": "Search PubMed",
      "url": "https://www.ncbi.nlm.nih.gov/pubmed?term=1-Bromohexadecane%20AND%20human%5Bmh%5D%20AND%20%28Occupational%20Diseases%20%5Bmh%5D%20OR%20Occupational%20Exposure%20%5Bmh%5D%29%20%20AND%20%28tox%5Bsb%5D%29&cmd=search"
    }
  ]
}