{
  "metadata": {
    "scraped_from": "https://haz-map.com/Agents/815",
    "entity_name": "o-Terphenyl",
    "category": "agents",
    "uuid": "4b0d5499-5933-4def-92fa-06408b10004f",
    "scraped_at": "2025-07-23T18:48:53.104366"
  },
  "parsed_at": "2025-07-24T01:17:08.283492",
  "title": "o-Terphenyl",
  "sections": {
    "general": {
      "agent_name": {
        "original_name": "Agent Name",
        "value": "o-Terphenyl",
        "links": [],
        "cross_references": [
          {
            "type": "name_match",
            "text": "o-terphenyl",
            "confidence": 1.0,
            "uuid": "4b0d5499-5933-4def-92fa-06408b10004f",
            "name": "o-Terphenyl",
            "url": "https://haz-map.com/Agents/815",
            "category": "agents"
          }
        ]
      },
      "cas_number": {
        "original_name": "CAS Number",
        "value": "84-15-1",
        "links": [],
        "cross_references": []
      },
      "formula": {
        "original_name": "Formula",
        "value": "C18-H14",
        "links": [],
        "cross_references": []
      },
      "major_category": {
        "original_name": "Major Category",
        "value": "Other Classes",
        "links": [],
        "cross_references": []
      },
      "synonyms": {
        "original_name": "Synonyms",
        "value": "o-Diphenylbenzene; 1,2-Diphenylbenzene; 2-Phenylbiphenyl; 1,2-Terphenyl; ortho-Terphenyl; o-Triphenyl; [NIOSH]",
        "links": [],
        "cross_references": [
          {
            "type": "name_match",
            "text": "benzene",
            "confidence": 1.0,
            "uuid": "b05124de-5f34-4c14-8f04-ccb20c3780d9",
            "name": "Benzene",
            "url": "https://haz-map.com/Agents/5",
            "category": "agents"
          },
          {
            "type": "name_match",
            "text": "biphenyl",
            "confidence": 1.0,
            "uuid": "740f90cb-888a-4a3b-b9ae-30768927fec2",
            "name": "Biphenyl",
            "url": "https://haz-map.com/Agents/306",
            "category": "agents"
          },
          {
            "type": "name_match",
            "text": "o-terphenyl",
            "confidence": 1.0,
            "uuid": "4b0d5499-5933-4def-92fa-06408b10004f",
            "name": "o-Terphenyl",
            "url": "https://haz-map.com/Agents/815",
            "category": "agents"
          }
        ]
      },
      "category": {
        "original_name": "Category",
        "value": "Terphenyls",
        "links": [],
        "cross_references": []
      },
      "description": {
        "original_name": "Description",
        "value": "Colorless or light-yellow solid; [NIOSH]",
        "links": [],
        "cross_references": [
          {
            "type": "name_match",
            "text": "ht",
            "confidence": 1.0,
            "uuid": "764df367-8d53-4a11-81a2-31ccfe122a8d",
            "name": "HT",
            "url": "https://haz-map.com/Agents/2168",
            "category": "agents"
          }
        ]
      },
      "sourcesuses": {
        "original_name": "Sources/Uses",
        "value": "Terphenyl mixtures are used as heat transfer media, dye carriers, and in the production of lubricants; [ACGIH]",
        "links": [],
        "cross_references": []
      },
      "comments": {
        "original_name": "Comments",
        "value": "o-Terphenyl caused kidney injury in subchronic feeding studies in rats. Workers complained of eye and respiratory irritation after inhaling vapors of heated terphenyls. The TLV Basis for Terphenyls is upper respiratory tract and eye irritation; [ACGIH] A skin, eye, and respiratory tract irritant; [ICSC]",
        "links": [],
        "cross_references": [
          {
            "type": "name_match",
            "text": "o-terphenyl",
            "confidence": 1.0,
            "uuid": "4b0d5499-5933-4def-92fa-06408b10004f",
            "name": "o-Terphenyl",
            "url": "https://haz-map.com/Agents/815",
            "category": "agents"
          }
        ]
      },
      "biomedical_references": {
        "original_name": "Biomedical References",
        "value": "Search PubMed",
        "links": [
          {
            "text": "Search PubMed",
            "url": "https://www.ncbi.nlm.nih.gov/pubmed?term=o-Terphenyl%20AND%20human%5Bmh%5D%20AND%20%28Occupational%20Diseases%20%5Bmh%5D%20OR%20Occupational%20Exposure%20%5Bmh%5D%29%20%20AND%20%28tox%5Bsb%5D%29&cmd=search"
          }
        ],
        "cross_references": []
      }
    },
    "exposure_assessment": {
      "skin_designation_acgih": {
        "original_name": "Skin Designation (ACGIH)",
        "value": "Insufficient data",
        "links": [],
        "cross_references": []
      },
      "ceiling_acgih": {
        "original_name": "Ceiling (ACGIH)",
        "value": "5 mg/m3",
        "links": [],
        "cross_references": []
      },
      "pel_osha": {
        "original_name": "PEL (OSHA)",
        "value": "Ceiling(OSHA) = 9 mg/m3",
        "links": [],
        "cross_references": []
      },
      "idlh_niosh": {
        "original_name": "IDLH (NIOSH)",
        "value": "500 mg/m3",
        "links": [],
        "cross_references": []
      },
      "excerpts_from_documentation_for_idlhs": {
        "original_name": "Excerpts from Documentation for IDLHs",
        "value": "Other animal data: In 30足day feeding studies involving doses of 250 or 500 mg/kg/day, rats fed o足terphenyl showed elevated liver and kidney weight ratios, rats fed m足terphenyl showed elevated kidney weight ratios only, and rats fed p足terphenyl showed no elevation in liver or kidney weight ratios [Cornish et al. 1962]. Human data: It has been reported that workers have been exposed to 280 mg/m3 without adverse effect [Testa and Masi 1964]",
        "links": [],
        "cross_references": [
          {
            "type": "name_match",
            "text": "ht",
            "confidence": 1.0,
            "uuid": "764df367-8d53-4a11-81a2-31ccfe122a8d",
            "name": "HT",
            "url": "https://haz-map.com/Agents/2168",
            "category": "agents"
          }
        ]
      },
      "vapor_pressure": {
        "original_name": "Vapor Pressure",
        "value": "0.00025 mm Hg",
        "links": [],
        "cross_references": []
      },
      "explanatory_notes": {
        "original_name": "Explanatory Notes",
        "value": "Flash point = 163 deg C;",
        "links": [],
        "cross_references": [
          {
            "type": "name_match",
            "text": "ash",
            "confidence": 1.0,
            "uuid": "68b360f1-5ad0-4337-bea0-d7adca2961b5",
            "name": "Ash",
            "url": "https://haz-map.com/Agents/965",
            "category": "agents"
          }
        ]
      },
      "nfpa": {
        "original_name": "NFPA",
        "value": "must be preheated",
        "links": [],
        "cross_references": []
      }
    },
    "diseases_processes_and_activities_linked_to_this_agent": {
      "other_information": {
        "original_name": "Other Information",
        "value": "No other related information on this agent was found.",
        "links": [],
        "cross_references": []
      }
    }
  },
  "cross_references": [
    {
      "type": "name_match",
      "text": "benzene",
      "confidence": 1.0,
      "uuid": "b05124de-5f34-4c14-8f04-ccb20c3780d9",
      "name": "Benzene",
      "url": "https://haz-map.com/Agents/5",
      "category": "agents"
    },
    {
      "type": "name_match",
      "text": "biphenyl",
      "confidence": 1.0,
      "uuid": "740f90cb-888a-4a3b-b9ae-30768927fec2",
      "name": "Biphenyl",
      "url": "https://haz-map.com/Agents/306",
      "category": "agents"
    },
    {
      "type": "name_match",
      "text": "o-terphenyl",
      "confidence": 1.0,
      "uuid": "4b0d5499-5933-4def-92fa-06408b10004f",
      "name": "o-Terphenyl",
      "url": "https://haz-map.com/Agents/815",
      "category": "agents"
    },
    {
      "type": "name_match",
      "text": "ash",
      "confidence": 1.0,
      "uuid": "68b360f1-5ad0-4337-bea0-d7adca2961b5",
      "name": "Ash",
      "url": "https://haz-map.com/Agents/965",
      "category": "agents"
    },
    {
      "type": "name_match",
      "text": "ht",
      "confidence": 1.0,
      "uuid": "764df367-8d53-4a11-81a2-31ccfe122a8d",
      "name": "HT",
      "url": "https://haz-map.com/Agents/2168",
      "category": "agents"
    }
  ],
  "all_links": [
    {
      "text": "Search PubMed",
      "url": "https://www.ncbi.nlm.nih.gov/pubmed?term=o-Terphenyl%20AND%20human%5Bmh%5D%20AND%20%28Occupational%20Diseases%20%5Bmh%5D%20OR%20Occupational%20Exposure%20%5Bmh%5D%29%20%20AND%20%28tox%5Bsb%5D%29&cmd=search"
    }
  ]
}