{
  "metadata": {
    "scraped_from": "https://haz-map.com/Agents/20563",
    "entity_name": "n-Butyl sulfide",
    "category": "agents",
    "uuid": "4b239d3b-838a-4364-b2c7-cdfeeecb7f25",
    "scraped_at": "2025-07-23T22:27:31.823131"
  },
  "parsed_at": "2025-07-24T01:02:53.853001",
  "title": "n-Butyl sulfide",
  "sections": {
    "general": {
      "agent_name": {
        "original_name": "Agent Name",
        "value": "n-Butyl sulfide",
        "links": [],
        "cross_references": [
          {
            "type": "name_match",
            "text": "n-butyl sulfide",
            "confidence": 1.0,
            "uuid": "4b239d3b-838a-4364-b2c7-cdfeeecb7f25",
            "name": "n-Butyl sulfide",
            "url": "https://haz-map.com/Agents/20563",
            "category": "agents"
          }
        ]
      },
      "cas_number": {
        "original_name": "CAS Number",
        "value": "544-40-1",
        "links": [],
        "cross_references": []
      },
      "formula": {
        "original_name": "Formula",
        "value": "C8-H18-S",
        "links": [],
        "cross_references": []
      },
      "major_category": {
        "original_name": "Major Category",
        "value": "Other Classes",
        "links": [],
        "cross_references": []
      },
      "synonyms": {
        "original_name": "Synonyms",
        "value": "1,1'-Thiobis(butane); 5-Thianonane; Butane, 1,1'-thiobis-; Butyl monosulfide; Butylthiobutane; Di-n-butylsulfide; Dibutyl sulfide; Dibutyl sulphide; Dibutyl thioether; n-Butyl-sulfide; n-Dibutyl sulfide; Thiononane-5; Butyl sulfide; [ChemIDplus] 1,1'-Thiobisbutane; [Merck Index]",
        "links": [],
        "cross_references": [
          {
            "type": "name_match",
            "text": "nonane",
            "confidence": 1.0,
            "uuid": "fe0f019a-d093-4bb9-a7d3-2f2ceaf91953",
            "name": "Nonane",
            "url": "https://haz-map.com/Agents/578",
            "category": "agents"
          }
        ]
      },
      "category": {
        "original_name": "Category",
        "value": "Sulfur Compounds",
        "links": [],
        "cross_references": [
          {
            "type": "name_match",
            "text": "sulfur",
            "confidence": 1.0,
            "uuid": "5aabdef6-71c8-44c8-b762-feaabff50696",
            "name": "Sulfur",
            "url": "https://haz-map.com/Agents/1942",
            "category": "agents"
          }
        ]
      },
      "description": {
        "original_name": "Description",
        "value": "Liquid; [Merck Index] Light yellow liquid with a stench; [Sigma-Aldrich MSDS]",
        "links": [],
        "cross_references": [
          {
            "type": "name_match",
            "text": "ht",
            "confidence": 1.0,
            "uuid": "764df367-8d53-4a11-81a2-31ccfe122a8d",
            "name": "HT",
            "url": "https://haz-map.com/Agents/2168",
            "category": "agents"
          }
        ]
      },
      "sourcesuses": {
        "original_name": "Sources/Uses",
        "value": "Used as a flavoring agent; [FDA]",
        "links": [],
        "cross_references": []
      },
      "comments": {
        "original_name": "Comments",
        "value": "A moderate skin irritant; [RTECS] Safe when used as a flavoring agent in food; [JECFA] A skin and strong eye irritant; [Sigma-Aldrich MSDS] See \"Dimethyl sulfide\" and \"Diethyl sulfide.\"",
        "links": [],
        "cross_references": [
          {
            "type": "name_match",
            "text": "dimethyl sulfide",
            "confidence": 1.0,
            "uuid": "56db4d96-09ed-4e17-950a-42fc2bf7ea96",
            "name": "Dimethyl sulfide",
            "url": "https://haz-map.com/Agents/1363",
            "category": "agents"
          },
          {
            "type": "name_match",
            "text": "diethyl sulfide",
            "confidence": 1.0,
            "uuid": "a1d2a348-b8ea-45e6-8aa4-9d6ab50f7f7f",
            "name": "Diethyl sulfide",
            "url": "https://haz-map.com/Agents/2701",
            "category": "agents"
          }
        ]
      },
      "biomedical_references": {
        "original_name": "Biomedical References",
        "value": "Search PubMed",
        "links": [
          {
            "text": "Search PubMed",
            "url": "https://www.ncbi.nlm.nih.gov/pubmed?term=n-Butyl+sulfide%20AND%20human%5Bmh%5D%20AND%20%28Occupational%20Diseases%20%5Bmh%5D%20OR%20Occupational%20Exposure%20%5Bmh%5D%29%20%20AND%20%28tox%5Bsb%5D%29&cmd=search"
          }
        ],
        "cross_references": []
      }
    },
    "exposure_assessment": {
      "vapor_pressure": {
        "original_name": "Vapor Pressure",
        "value": "1.2 mm Hg",
        "links": [],
        "cross_references": []
      }
    },
    "diseases_processes_and_activities_linked_to_this_agent": {
      "other_information": {
        "original_name": "Other Information",
        "value": "No other related information on this agent was found.",
        "links": [],
        "cross_references": []
      }
    }
  },
  "cross_references": [
    {
      "type": "name_match",
      "text": "nonane",
      "confidence": 1.0,
      "uuid": "fe0f019a-d093-4bb9-a7d3-2f2ceaf91953",
      "name": "Nonane",
      "url": "https://haz-map.com/Agents/578",
      "category": "agents"
    },
    {
      "type": "name_match",
      "text": "dimethyl sulfide",
      "confidence": 1.0,
      "uuid": "56db4d96-09ed-4e17-950a-42fc2bf7ea96",
      "name": "Dimethyl sulfide",
      "url": "https://haz-map.com/Agents/1363",
      "category": "agents"
    },
    {
      "type": "name_match",
      "text": "sulfur",
      "confidence": 1.0,
      "uuid": "5aabdef6-71c8-44c8-b762-feaabff50696",
      "name": "Sulfur",
      "url": "https://haz-map.com/Agents/1942",
      "category": "agents"
    },
    {
      "type": "name_match",
      "text": "ht",
      "confidence": 1.0,
      "uuid": "764df367-8d53-4a11-81a2-31ccfe122a8d",
      "name": "HT",
      "url": "https://haz-map.com/Agents/2168",
      "category": "agents"
    },
    {
      "type": "name_match",
      "text": "diethyl sulfide",
      "confidence": 1.0,
      "uuid": "a1d2a348-b8ea-45e6-8aa4-9d6ab50f7f7f",
      "name": "Diethyl sulfide",
      "url": "https://haz-map.com/Agents/2701",
      "category": "agents"
    },
    {
      "type": "name_match",
      "text": "n-butyl sulfide",
      "confidence": 1.0,
      "uuid": "4b239d3b-838a-4364-b2c7-cdfeeecb7f25",
      "name": "n-Butyl sulfide",
      "url": "https://haz-map.com/Agents/20563",
      "category": "agents"
    }
  ],
  "all_links": [
    {
      "text": "Search PubMed",
      "url": "https://www.ncbi.nlm.nih.gov/pubmed?term=n-Butyl+sulfide%20AND%20human%5Bmh%5D%20AND%20%28Occupational%20Diseases%20%5Bmh%5D%20OR%20Occupational%20Exposure%20%5Bmh%5D%29%20%20AND%20%28tox%5Bsb%5D%29&cmd=search"
    }
  ]
}