{
  "metadata": {
    "scraped_from": "https://haz-map.com/Agents/13900",
    "entity_name": "Folic acid",
    "category": "agents",
    "uuid": "4b2d3d86-1340-4704-9236-e327d66eefcd",
    "scraped_at": "2025-07-23T21:19:13.092415"
  },
  "parsed_at": "2025-07-24T00:56:15.531275",
  "title": "Folic acid",
  "sections": {
    "general": {
      "agent_name": {
        "original_name": "Agent Name",
        "value": "Folic acid",
        "links": [],
        "cross_references": [
          {
            "type": "name_match",
            "text": "folic acid",
            "confidence": 1.0,
            "uuid": "4b2d3d86-1340-4704-9236-e327d66eefcd",
            "name": "Folic acid",
            "url": "https://haz-map.com/Agents/13900",
            "category": "agents"
          }
        ]
      },
      "cas_number": {
        "original_name": "CAS Number",
        "value": "59-30-3",
        "links": [],
        "cross_references": []
      },
      "formula": {
        "original_name": "Formula",
        "value": "C19-H19-N7-O6",
        "links": [],
        "cross_references": []
      },
      "major_category": {
        "original_name": "Major Category",
        "value": "Biological Agents",
        "links": [],
        "cross_references": []
      },
      "synonyms": {
        "original_name": "Synonyms",
        "value": "N-(4-(((2-Amino-1,4-dihydro-4-oxo-6-pteridinyl)methyl)amino)benzoyl)-L-glutamic acid; 4-Pteridinol, 2-amino-6-((p-((1,3-dicarboxypropyl)carbamoyl)anilino)methyl)-; Acfol (Spain); Acide folique [INN-French]; Acido folico [INN-Spanish]; Acidum folicum [INN-Latin]; Acifolic; Antianemia factor; Cytofol; Facid; Factor U; Folacid; Folacin; Folaemin [Netherlands]; Folasic (Australia); Folate; Folbal; Folcidin; Folcysteine; Foldine [France]; Folettes; Foliamin; Folicet; Folico (Italy); Folina (Italy); Folipac; Folsan; Folsaure; Folsav; Folvite; Glutamic acid, N-(p-(((2-amino-4-hydroxy-6-pteridinyl)methyl)amino)benzoyl)-, L-; Glutamic acid, N-(p-(((2-amino-4-hydroxypyrimido(4,5-b)pyrazin-6-yl)methyl)amino)benzoyl)-, L; Glutamic acid, pteroyl-, L-; Incafolic; Kyselina listova [Czech]; L-Glutamic acid, N-(4-(((2-amino-1,4-dihydro-4-oxo-6-pteridinyl)methyl)amino)benzoyl)-; Liver Lactobacillus casei factor; Megafol; Millafol; Mittafol; N-(p-(((2-Amino-4-hydroxy-6-pteridinyl)methyl)amino)benzoyl)-L-glutamic acid; Nifolin [Denmark]; Novofolacid [Canada]; PGA; Pteglu; Pteroyl-L-glutamic acid; Pteroyl-L-monoglutamic acid; Pteroylglutamic acid; Pteroylmonoglutamate; Pteroylmonoglutamic acid; Vitamin B11; Vitamin B9; Vitamin Bc; Vitamin Be; Vitamin M; L-Glutamic acid, N-(4-(((2-amino-3,4-dihydro-4-oxo-6-pteridinyl)methyl)amino)benzoyl)-; [ChemIDplus]",
        "links": [],
        "cross_references": [
          {
            "type": "name_match",
            "text": "anemia",
            "confidence": 1.0,
            "uuid": "be5db7c0-2652-4940-a3d9-d0afb3e2b182",
            "name": "anemia",
            "url": "https://haz-map.com/Findings/54",
            "category": "findings"
          },
          {
            "type": "name_match",
            "text": "cysteine",
            "confidence": 1.0,
            "uuid": "1172412c-8165-4312-af39-1107dc30e4f4",
            "name": "Cysteine",
            "url": "https://haz-map.com/Agents/13558",
            "category": "agents"
          },
          {
            "type": "name_match",
            "text": "glutamic acid",
            "confidence": 1.0,
            "uuid": "dbdea175-eb1d-411e-a848-f822084191d7",
            "name": "Glutamic acid",
            "url": "https://haz-map.com/Agents/14420",
            "category": "agents"
          }
        ]
      },
      "category": {
        "original_name": "Category",
        "value": "Vitamins and Derivatives",
        "links": [],
        "cross_references": []
      },
      "description": {
        "original_name": "Description",
        "value": "Yellowish-orange solid; [Merck Index] Yellow solid; [Sigma-Aldrich MSDS]",
        "links": [],
        "cross_references": []
      },
      "sourcesuses": {
        "original_name": "Sources/Uses",
        "value": "High concentrations in liver, kidney, mushrooms, spinach, yeast, and green leaves; Used as a vitamin (hematopoietic) and dietary requirement for poultry; [Merck Index] Used as a nutritional supplement; [FDA] Essential vitamin for erythropoiesis; Used in treatment of methanol poisoning; [Olson, p. 557]",
        "links": [],
        "cross_references": []
      },
      "comments": {
        "original_name": "Comments",
        "value": "Rare allergic reactions after IV injection reported; [Olson, p. 557] May cause allergic sensitization; [NTP] May cause irritation; [Sigma-Aldrich MSDS]",
        "links": [],
        "cross_references": []
      },
      "biomedical_references": {
        "original_name": "Biomedical References",
        "value": "Search PubMed",
        "links": [
          {
            "text": "Search PubMed",
            "url": "https://www.ncbi.nlm.nih.gov/pubmed?term=Folic+acid%20AND%20human%5Bmh%5D%20AND%20%28Occupational%20Diseases%20%5Bmh%5D%20OR%20Occupational%20Exposure%20%5Bmh%5D%29%20%20AND%20%28tox%5Bsb%5D%29&cmd=search"
          }
        ],
        "cross_references": []
      }
    },
    "exposure_assessment": {
      "vapor_pressure": {
        "original_name": "Vapor Pressure",
        "value": "3.37E-21 mm Hg",
        "links": [],
        "cross_references": []
      }
    },
    "diseases_processes_and_activities_linked_to_this_agent": {
      "processes": {
        "original_name": "Processes",
        "value": "Industrial Processes with risk of exposure: Farming (Feed Additives)",
        "links": [
          {
            "text": "Farming (Feed Additives)",
            "url": "https://haz-map.com/Processes/262"
          }
        ],
        "cross_references": []
      }
    }
  },
  "cross_references": [
    {
      "type": "name_match",
      "text": "anemia",
      "confidence": 1.0,
      "uuid": "be5db7c0-2652-4940-a3d9-d0afb3e2b182",
      "name": "anemia",
      "url": "https://haz-map.com/Findings/54",
      "category": "findings"
    },
    {
      "type": "name_match",
      "text": "cysteine",
      "confidence": 1.0,
      "uuid": "1172412c-8165-4312-af39-1107dc30e4f4",
      "name": "Cysteine",
      "url": "https://haz-map.com/Agents/13558",
      "category": "agents"
    },
    {
      "type": "name_match",
      "text": "folic acid",
      "confidence": 1.0,
      "uuid": "4b2d3d86-1340-4704-9236-e327d66eefcd",
      "name": "Folic acid",
      "url": "https://haz-map.com/Agents/13900",
      "category": "agents"
    },
    {
      "type": "name_match",
      "text": "glutamic acid",
      "confidence": 1.0,
      "uuid": "dbdea175-eb1d-411e-a848-f822084191d7",
      "name": "Glutamic acid",
      "url": "https://haz-map.com/Agents/14420",
      "category": "agents"
    }
  ],
  "all_links": [
    {
      "text": "Search PubMed",
      "url": "https://www.ncbi.nlm.nih.gov/pubmed?term=Folic+acid%20AND%20human%5Bmh%5D%20AND%20%28Occupational%20Diseases%20%5Bmh%5D%20OR%20Occupational%20Exposure%20%5Bmh%5D%29%20%20AND%20%28tox%5Bsb%5D%29&cmd=search"
    },
    {
      "text": "Farming (Feed Additives)",
      "url": "https://haz-map.com/Processes/262"
    }
  ]
}