{
  "metadata": {
    "scraped_from": "https://haz-map.com/Agents/16426",
    "entity_name": "Pentamethylene sulfide",
    "category": "agents",
    "uuid": "4b99033e-7948-4412-8653-2ab56c67e199",
    "scraped_at": "2025-07-23T21:37:23.365527"
  },
  "parsed_at": "2025-07-24T00:58:56.963943",
  "title": "Pentamethylene sulfide",
  "sections": {
    "general": {
      "agent_name": {
        "original_name": "Agent Name",
        "value": "Pentamethylene sulfide",
        "links": [],
        "cross_references": [
          {
            "type": "name_match",
            "text": "ethylene",
            "confidence": 1.0,
            "uuid": "958eacc0-5135-4b62-bb93-6df972bf552f",
            "name": "Ethylene",
            "url": "https://haz-map.com/Agents/1076",
            "category": "agents"
          },
          {
            "type": "name_match",
            "text": "ethylene sulfide",
            "confidence": 1.0,
            "uuid": "2f3b028f-4b22-47fd-b929-ba2496b6f048",
            "name": "Ethylene sulfide",
            "url": "https://haz-map.com/Agents/5227",
            "category": "agents"
          },
          {
            "type": "name_match",
            "text": "pentamethylene sulfide",
            "confidence": 1.0,
            "uuid": "4b99033e-7948-4412-8653-2ab56c67e199",
            "name": "Pentamethylene sulfide",
            "url": "https://haz-map.com/Agents/16426",
            "category": "agents"
          }
        ]
      },
      "cas_number": {
        "original_name": "CAS Number",
        "value": "1613-51-0",
        "links": [],
        "cross_references": []
      },
      "formula": {
        "original_name": "Formula",
        "value": "C5-H10-S",
        "links": [],
        "cross_references": []
      },
      "major_category": {
        "original_name": "Major Category",
        "value": "Other Classes",
        "links": [],
        "cross_references": []
      },
      "synonyms": {
        "original_name": "Synonyms",
        "value": "Tetrahydrothiopyran; Thiane; [ChemIDplus] UN1993",
        "links": [],
        "cross_references": []
      },
      "category": {
        "original_name": "Category",
        "value": "Sulfur Compounds",
        "links": [],
        "cross_references": [
          {
            "type": "name_match",
            "text": "sulfur",
            "confidence": 1.0,
            "uuid": "5aabdef6-71c8-44c8-b762-feaabff50696",
            "name": "Sulfur",
            "url": "https://haz-map.com/Agents/1942",
            "category": "agents"
          }
        ]
      },
      "description": {
        "original_name": "Description",
        "value": "Colorless liquid with an unpleasant odor; [Alfa Aesar MSDS]",
        "links": [],
        "cross_references": []
      },
      "comments": {
        "original_name": "Comments",
        "value": "May cause irritation; [Alfa Aesar MSDS] See \"Diethyl sulfide\" and \"Tetrahydrothiophene.\"",
        "links": [],
        "cross_references": [
          {
            "type": "name_match",
            "text": "tetrahydrothiophene",
            "confidence": 1.0,
            "uuid": "745145be-8e04-4622-8375-b4802f56b399",
            "name": "Tetrahydrothiophene",
            "url": "https://haz-map.com/Agents/1478",
            "category": "agents"
          },
          {
            "type": "name_match",
            "text": "thiophene",
            "confidence": 1.0,
            "uuid": "f7ccd5a0-b31f-419d-b64f-3472ae89f92f",
            "name": "Thiophene",
            "url": "https://haz-map.com/Agents/1479",
            "category": "agents"
          },
          {
            "type": "name_match",
            "text": "diethyl sulfide",
            "confidence": 1.0,
            "uuid": "a1d2a348-b8ea-45e6-8aa4-9d6ab50f7f7f",
            "name": "Diethyl sulfide",
            "url": "https://haz-map.com/Agents/2701",
            "category": "agents"
          }
        ]
      },
      "biomedical_references": {
        "original_name": "Biomedical References",
        "value": "Search PubMed",
        "links": [
          {
            "text": "Search PubMed",
            "url": "https://www.ncbi.nlm.nih.gov/pubmed?term=Pentamethylene+sulfide%20AND%20human%5Bmh%5D%20AND%20%28Occupational%20Diseases%20%5Bmh%5D%20OR%20Occupational%20Exposure%20%5Bmh%5D%29%20%20AND%20%28tox%5Bsb%5D%29&cmd=search"
          }
        ],
        "cross_references": []
      }
    },
    "exposure_assessment": {
      "vapor_pressure": {
        "original_name": "Vapor Pressure",
        "value": "8 mm Hg",
        "links": [],
        "cross_references": []
      },
      "explanatory_notes": {
        "original_name": "Explanatory Notes",
        "value": "The Guide in the Emergency Response Guidebook is for \"Flammable liquid, n.o.s.\"",
        "links": [],
        "cross_references": []
      }
    },
    "diseases_processes_and_activities_linked_to_this_agent": {
      "other_information": {
        "original_name": "Other Information",
        "value": "No other related information on this agent was found.",
        "links": [],
        "cross_references": []
      }
    }
  },
  "cross_references": [
    {
      "type": "name_match",
      "text": "ethylene",
      "confidence": 1.0,
      "uuid": "958eacc0-5135-4b62-bb93-6df972bf552f",
      "name": "Ethylene",
      "url": "https://haz-map.com/Agents/1076",
      "category": "agents"
    },
    {
      "type": "name_match",
      "text": "tetrahydrothiophene",
      "confidence": 1.0,
      "uuid": "745145be-8e04-4622-8375-b4802f56b399",
      "name": "Tetrahydrothiophene",
      "url": "https://haz-map.com/Agents/1478",
      "category": "agents"
    },
    {
      "type": "name_match",
      "text": "thiophene",
      "confidence": 1.0,
      "uuid": "f7ccd5a0-b31f-419d-b64f-3472ae89f92f",
      "name": "Thiophene",
      "url": "https://haz-map.com/Agents/1479",
      "category": "agents"
    },
    {
      "type": "name_match",
      "text": "sulfur",
      "confidence": 1.0,
      "uuid": "5aabdef6-71c8-44c8-b762-feaabff50696",
      "name": "Sulfur",
      "url": "https://haz-map.com/Agents/1942",
      "category": "agents"
    },
    {
      "type": "name_match",
      "text": "diethyl sulfide",
      "confidence": 1.0,
      "uuid": "a1d2a348-b8ea-45e6-8aa4-9d6ab50f7f7f",
      "name": "Diethyl sulfide",
      "url": "https://haz-map.com/Agents/2701",
      "category": "agents"
    },
    {
      "type": "name_match",
      "text": "ethylene sulfide",
      "confidence": 1.0,
      "uuid": "2f3b028f-4b22-47fd-b929-ba2496b6f048",
      "name": "Ethylene sulfide",
      "url": "https://haz-map.com/Agents/5227",
      "category": "agents"
    },
    {
      "type": "name_match",
      "text": "pentamethylene sulfide",
      "confidence": 1.0,
      "uuid": "4b99033e-7948-4412-8653-2ab56c67e199",
      "name": "Pentamethylene sulfide",
      "url": "https://haz-map.com/Agents/16426",
      "category": "agents"
    }
  ],
  "all_links": [
    {
      "text": "Search PubMed",
      "url": "https://www.ncbi.nlm.nih.gov/pubmed?term=Pentamethylene+sulfide%20AND%20human%5Bmh%5D%20AND%20%28Occupational%20Diseases%20%5Bmh%5D%20OR%20Occupational%20Exposure%20%5Bmh%5D%29%20%20AND%20%28tox%5Bsb%5D%29&cmd=search"
    }
  ]
}