{
  "metadata": {
    "scraped_from": "https://haz-map.com/Agents/448",
    "entity_name": "1,1-Dichloro-1-nitroethane",
    "category": "agents",
    "uuid": "4bae8f5a-83dd-4898-b598-4eb65e64616d",
    "scraped_at": "2025-07-23T18:42:01.206181"
  },
  "parsed_at": "2025-07-24T00:54:58.108199",
  "title": "1,1-Dichloro-1-nitroethane",
  "sections": {
    "general": {
      "agent_name": {
        "original_name": "Agent Name",
        "value": "1,1-Dichloro-1-nitroethane",
        "links": [],
        "cross_references": [
          {
            "type": "name_match",
            "text": "1,1-dichloro-1-nitroethane",
            "confidence": 1.0,
            "uuid": "4bae8f5a-83dd-4898-b598-4eb65e64616d",
            "name": "1,1-Dichloro-1-nitroethane",
            "url": "https://haz-map.com/Agents/448",
            "category": "agents"
          },
          {
            "type": "name_match",
            "text": "nitroethane",
            "confidence": 1.0,
            "uuid": "629833cf-5709-4364-82ed-199b57356803",
            "name": "Nitroethane",
            "url": "https://haz-map.com/Agents/570",
            "category": "agents"
          },
          {
            "type": "name_match",
            "text": "ethane",
            "confidence": 1.0,
            "uuid": "5162cc8c-dfb9-4060-81ac-38a8cec7f9dd",
            "name": "Ethane",
            "url": "https://haz-map.com/Agents/1075",
            "category": "agents"
          }
        ]
      },
      "cas_number": {
        "original_name": "CAS Number",
        "value": "594-72-9",
        "links": [],
        "cross_references": []
      },
      "formula": {
        "original_name": "Formula",
        "value": "C2-H3-Cl2-N-O2",
        "links": [],
        "cross_references": []
      },
      "major_category": {
        "original_name": "Major Category",
        "value": "Nitrogen Compounds",
        "links": [],
        "cross_references": [
          {
            "type": "name_match",
            "text": "nitrogen",
            "confidence": 1.0,
            "uuid": "db5e90a9-06d2-45b9-8b81-f345a89b0bc0",
            "name": "Nitrogen",
            "url": "https://haz-map.com/Agents/1072",
            "category": "agents"
          }
        ]
      },
      "synonyms": {
        "original_name": "Synonyms",
        "value": "1,1-Dichloor-1-nitroethaan [Dutch]; 1,1-Dichlor-1-nitroaethan [German]; 1,1-Dichloro-1-nitroethane; 1,1-Dicloro-1-nitroetano [Italian]; Dichloro-1-nitroethane; Dichloronitroethane; Ethane, 1,1-dichloro-1-nitro-; Ethide; [ChemIDplus] UN2650",
        "links": [],
        "cross_references": [
          {
            "type": "name_match",
            "text": "1,1-dichloro-1-nitroethane",
            "confidence": 1.0,
            "uuid": "4bae8f5a-83dd-4898-b598-4eb65e64616d",
            "name": "1,1-Dichloro-1-nitroethane",
            "url": "https://haz-map.com/Agents/448",
            "category": "agents"
          },
          {
            "type": "name_match",
            "text": "nitroethane",
            "confidence": 1.0,
            "uuid": "629833cf-5709-4364-82ed-199b57356803",
            "name": "Nitroethane",
            "url": "https://haz-map.com/Agents/570",
            "category": "agents"
          },
          {
            "type": "name_match",
            "text": "ethane",
            "confidence": 1.0,
            "uuid": "5162cc8c-dfb9-4060-81ac-38a8cec7f9dd",
            "name": "Ethane",
            "url": "https://haz-map.com/Agents/1075",
            "category": "agents"
          },
          {
            "type": "name_match",
            "text": "tali",
            "confidence": 1.0,
            "uuid": "8c3a0f99-2143-4122-b539-ec5cc49596b0",
            "name": "Tali",
            "url": "https://haz-map.com/Agents/1128",
            "category": "agents"
          }
        ]
      },
      "category": {
        "original_name": "Category",
        "value": "Nitros, Aliphatic",
        "links": [],
        "cross_references": []
      },
      "description": {
        "original_name": "Description",
        "value": "Colorless liquid with an unpleasant odor; [NIOSH]",
        "links": [],
        "cross_references": []
      },
      "sourcesuses": {
        "original_name": "Sources/Uses",
        "value": "Used in the synthesis of fumigants, insecticides, and rubber cements; [ACGIH]",
        "links": [],
        "cross_references": [
          {
            "type": "name_match",
            "text": "fumigants",
            "confidence": 1.0,
            "uuid": "01ad5510-2dbd-4a10-8a54-0defa348e7db",
            "name": "FUMIGANTS",
            "url": "https://haz-map.com/Agents/707",
            "category": "agents"
          }
        ]
      },
      "comments": {
        "original_name": "Comments",
        "value": "Inhalation studies of animals show lung edema, congestion, and hemorrhage. The heart, blood vessels, liver, and kidneys are also damaged. [ACGIH] A lachrymator; [CHEMINFO]",
        "links": [],
        "cross_references": []
      },
      "biomedical_references": {
        "original_name": "Biomedical References",
        "value": "Search PubMed",
        "links": [
          {
            "text": "Search PubMed",
            "url": "https://www.ncbi.nlm.nih.gov/pubmed?term=1%2c1-Dichloro-1-nitroethane%20AND%20human%5Bmh%5D%20AND%20%28Occupational%20Diseases%20%5Bmh%5D%20OR%20Occupational%20Exposure%20%5Bmh%5D%29%20%20AND%20%28tox%5Bsb%5D%29&cmd=search"
          }
        ],
        "cross_references": []
      }
    },
    "exposure_assessment": {
      "skin_designation_acgih": {
        "original_name": "Skin Designation (ACGIH)",
        "value": "Insufficient data",
        "links": [],
        "cross_references": []
      },
      "tlv_acgih": {
        "original_name": "TLV (ACGIH)",
        "value": "2 ppm",
        "links": [],
        "cross_references": []
      },
      "pel_osha": {
        "original_name": "PEL (OSHA)",
        "value": "Ceiling(OSHA) = 10 ppm",
        "links": [],
        "cross_references": []
      },
      "idlh_niosh": {
        "original_name": "IDLH (NIOSH)",
        "value": "25 ppm",
        "links": [],
        "cross_references": []
      },
      "excerpts_from_documentation_for_idlhs": {
        "original_name": "Excerpts from Documentation for IDLHs",
        "value": "Basis for original (SCP) IDLH: The chosen IDLH is based on the study by Machle et al. [1945] in which autopsies on animals exposed to over 170 ppm for over 30 minutes revealed pulmonary edema and hemorrhage, with damage to the heart, liver, and kidneys. . . . Other animal data: Animals have tolerated 25 ppm for 204 hours [ Machle et al. 1945]. Human data: None relevant for use in determining the revised IDLH.",
        "links": [],
        "cross_references": [
          {
            "type": "name_match",
            "text": "mining",
            "confidence": 1.0,
            "uuid": "aaa4a4af-567a-4a01-83bc-ccad9fc73d04",
            "name": "Mining",
            "url": "https://haz-map.com/Processes/219",
            "category": "processes"
          },
          {
            "type": "name_match",
            "text": "pulmonary edema",
            "confidence": 1.0,
            "uuid": "ee39114e-c922-40fd-9588-a532de404962",
            "name": "pulmonary edema",
            "url": "https://haz-map.com/Findings/186",
            "category": "findings"
          }
        ]
      },
      "vapor_pressure": {
        "original_name": "Vapor Pressure",
        "value": "16 mm Hg",
        "links": [],
        "cross_references": []
      },
      "lethal_concentration": {
        "original_name": "Lethal Concentration",
        "value": "LCLo (guinea pigs) = 580 mg/m3/6H",
        "links": [],
        "cross_references": []
      },
      "explanatory_notes": {
        "original_name": "Explanatory Notes",
        "value": "Flash point = 76 deg C; VP from HSDB;",
        "links": [],
        "cross_references": [
          {
            "type": "name_match",
            "text": "ash",
            "confidence": 1.0,
            "uuid": "68b360f1-5ad0-4337-bea0-d7adca2961b5",
            "name": "Ash",
            "url": "https://haz-map.com/Agents/965",
            "category": "agents"
          }
        ]
      },
      "nfpa": {
        "original_name": "NFPA",
        "value": "high ambient temp required",
        "links": [],
        "cross_references": []
      }
    },
    "adverse_effects": {
      "lachrymator": {
        "original_name": "Lachrymator",
        "value": "Yes",
        "links": [],
        "cross_references": []
      },
      "toxic_pneumonitis": {
        "original_name": "Toxic Pneumonitis",
        "value": "Yes",
        "links": [],
        "cross_references": []
      },
      "hepatotoxin": {
        "original_name": "Hepatotoxin",
        "value": "Hepatoxic (a) from occupational exposure (secondary effect) or (b) in animal studies or in humans after ingestion",
        "links": [],
        "cross_references": []
      }
    },
    "diseases_processes_and_activities_linked_to_this_agent": {
      "other_information": {
        "original_name": "Other Information",
        "value": "No other related information on this agent was found.",
        "links": [],
        "cross_references": []
      }
    }
  },
  "cross_references": [
    {
      "type": "name_match",
      "text": "mining",
      "confidence": 1.0,
      "uuid": "aaa4a4af-567a-4a01-83bc-ccad9fc73d04",
      "name": "Mining",
      "url": "https://haz-map.com/Processes/219",
      "category": "processes"
    },
    {
      "type": "name_match",
      "text": "pulmonary edema",
      "confidence": 1.0,
      "uuid": "ee39114e-c922-40fd-9588-a532de404962",
      "name": "pulmonary edema",
      "url": "https://haz-map.com/Findings/186",
      "category": "findings"
    },
    {
      "type": "name_match",
      "text": "1,1-dichloro-1-nitroethane",
      "confidence": 1.0,
      "uuid": "4bae8f5a-83dd-4898-b598-4eb65e64616d",
      "name": "1,1-Dichloro-1-nitroethane",
      "url": "https://haz-map.com/Agents/448",
      "category": "agents"
    },
    {
      "type": "name_match",
      "text": "nitroethane",
      "confidence": 1.0,
      "uuid": "629833cf-5709-4364-82ed-199b57356803",
      "name": "Nitroethane",
      "url": "https://haz-map.com/Agents/570",
      "category": "agents"
    },
    {
      "type": "name_match",
      "text": "fumigants",
      "confidence": 1.0,
      "uuid": "01ad5510-2dbd-4a10-8a54-0defa348e7db",
      "name": "FUMIGANTS",
      "url": "https://haz-map.com/Agents/707",
      "category": "agents"
    },
    {
      "type": "name_match",
      "text": "ash",
      "confidence": 1.0,
      "uuid": "68b360f1-5ad0-4337-bea0-d7adca2961b5",
      "name": "Ash",
      "url": "https://haz-map.com/Agents/965",
      "category": "agents"
    },
    {
      "type": "name_match",
      "text": "nitrogen",
      "confidence": 1.0,
      "uuid": "db5e90a9-06d2-45b9-8b81-f345a89b0bc0",
      "name": "Nitrogen",
      "url": "https://haz-map.com/Agents/1072",
      "category": "agents"
    },
    {
      "type": "name_match",
      "text": "ethane",
      "confidence": 1.0,
      "uuid": "5162cc8c-dfb9-4060-81ac-38a8cec7f9dd",
      "name": "Ethane",
      "url": "https://haz-map.com/Agents/1075",
      "category": "agents"
    },
    {
      "type": "name_match",
      "text": "tali",
      "confidence": 1.0,
      "uuid": "8c3a0f99-2143-4122-b539-ec5cc49596b0",
      "name": "Tali",
      "url": "https://haz-map.com/Agents/1128",
      "category": "agents"
    }
  ],
  "all_links": [
    {
      "text": "Search PubMed",
      "url": "https://www.ncbi.nlm.nih.gov/pubmed?term=1%2c1-Dichloro-1-nitroethane%20AND%20human%5Bmh%5D%20AND%20%28Occupational%20Diseases%20%5Bmh%5D%20OR%20Occupational%20Exposure%20%5Bmh%5D%29%20%20AND%20%28tox%5Bsb%5D%29&cmd=search"
    }
  ]
}