{
  "metadata": {
    "scraped_from": "https://haz-map.com/Agents/7608",
    "entity_name": "Trimethylammonium chloride",
    "category": "agents",
    "uuid": "4c001cd6-78f3-41e8-ab04-fb1715c1f848",
    "scraped_at": "2025-07-23T20:14:47.100030"
  },
  "parsed_at": "2025-07-24T01:11:16.426367",
  "title": "Trimethylammonium chloride",
  "sections": {
    "general": {
      "agent_name": {
        "original_name": "Agent Name",
        "value": "Trimethylammonium chloride",
        "links": [],
        "cross_references": [
          {
            "type": "name_match",
            "text": "trimethylammonium chloride",
            "confidence": 1.0,
            "uuid": "4c001cd6-78f3-41e8-ab04-fb1715c1f848",
            "name": "Trimethylammonium chloride",
            "url": "https://haz-map.com/Agents/7608",
            "category": "agents"
          }
        ]
      },
      "alternative_name": {
        "original_name": "Alternative Name",
        "value": "Trimethylamine hydrochloride",
        "links": [],
        "cross_references": [
          {
            "type": "name_match",
            "text": "methylamine",
            "confidence": 1.0,
            "uuid": "7c3781b5-5294-474a-a015-e59574d00b69",
            "name": "Methylamine",
            "url": "https://haz-map.com/Agents/217",
            "category": "agents"
          },
          {
            "type": "name_match",
            "text": "trimethylamine",
            "confidence": 1.0,
            "uuid": "3a21152b-0cd4-42e0-a7f0-f9a4dcf674be",
            "name": "Trimethylamine",
            "url": "https://haz-map.com/Agents/219",
            "category": "agents"
          },
          {
            "type": "name_match",
            "text": "ethylamine",
            "confidence": 1.0,
            "uuid": "41ca4da8-b990-420a-86b2-3d77404fb7f4",
            "name": "Ethylamine",
            "url": "https://haz-map.com/Agents/220",
            "category": "agents"
          },
          {
            "type": "name_match",
            "text": "ethylamine hydrochloride",
            "confidence": 1.0,
            "uuid": "08a09ef2-946e-4ee5-aa9d-a81dc3e85697",
            "name": "Ethylamine hydrochloride",
            "url": "https://haz-map.com/Agents/14218",
            "category": "agents"
          },
          {
            "type": "name_match",
            "text": "methylamine hydrochloride",
            "confidence": 1.0,
            "uuid": "2a643b6b-9fea-42ca-8bea-d5a8439a124f",
            "name": "Methylamine hydrochloride",
            "url": "https://haz-map.com/Agents/15589",
            "category": "agents"
          }
        ]
      },
      "cas_number": {
        "original_name": "CAS Number",
        "value": "593-81-7",
        "links": [],
        "cross_references": []
      },
      "formula": {
        "original_name": "Formula",
        "value": "C3-H9-N.Cl-H",
        "links": [],
        "cross_references": []
      },
      "major_category": {
        "original_name": "Major Category",
        "value": "Nitrogen Compounds",
        "links": [],
        "cross_references": [
          {
            "type": "name_match",
            "text": "nitrogen",
            "confidence": 1.0,
            "uuid": "db5e90a9-06d2-45b9-8b81-f345a89b0bc0",
            "name": "Nitrogen",
            "url": "https://haz-map.com/Agents/1072",
            "category": "agents"
          }
        ]
      },
      "synonyms": {
        "original_name": "Synonyms",
        "value": "Trimethylamine hydrochloride; Methanamine, N,N-dimethyl-, hydrochloride; Trimethylamine monohydrochloride; Trimethylamine, hydrochloride; [ChemIDplus]",
        "links": [],
        "cross_references": [
          {
            "type": "name_match",
            "text": "methylamine",
            "confidence": 1.0,
            "uuid": "7c3781b5-5294-474a-a015-e59574d00b69",
            "name": "Methylamine",
            "url": "https://haz-map.com/Agents/217",
            "category": "agents"
          },
          {
            "type": "name_match",
            "text": "trimethylamine",
            "confidence": 1.0,
            "uuid": "3a21152b-0cd4-42e0-a7f0-f9a4dcf674be",
            "name": "Trimethylamine",
            "url": "https://haz-map.com/Agents/219",
            "category": "agents"
          },
          {
            "type": "name_match",
            "text": "ethylamine",
            "confidence": 1.0,
            "uuid": "41ca4da8-b990-420a-86b2-3d77404fb7f4",
            "name": "Ethylamine",
            "url": "https://haz-map.com/Agents/220",
            "category": "agents"
          },
          {
            "type": "name_match",
            "text": "ethylamine hydrochloride",
            "confidence": 1.0,
            "uuid": "08a09ef2-946e-4ee5-aa9d-a81dc3e85697",
            "name": "Ethylamine hydrochloride",
            "url": "https://haz-map.com/Agents/14218",
            "category": "agents"
          },
          {
            "type": "name_match",
            "text": "methylamine hydrochloride",
            "confidence": 1.0,
            "uuid": "2a643b6b-9fea-42ca-8bea-d5a8439a124f",
            "name": "Methylamine hydrochloride",
            "url": "https://haz-map.com/Agents/15589",
            "category": "agents"
          }
        ]
      },
      "category": {
        "original_name": "Category",
        "value": "Amines, Aliphatic",
        "links": [],
        "cross_references": []
      },
      "description": {
        "original_name": "Description",
        "value": "Deliquescent solid with fishy odor; [Merck Index] White crystalline powder; [MSDSonline]",
        "links": [],
        "cross_references": [
          {
            "type": "fuzzy_match",
            "text": "crystalline",
            "matched_name": "Silica, crystalline",
            "confidence": 0.7061403508771931,
            "uuid": "f920e8a2-46df-41b7-af8d-0368a777251e",
            "category": "agents",
            "url": "https://haz-map.com/Agents/427"
          }
        ]
      },
      "sourcesuses": {
        "original_name": "Sources/Uses",
        "value": "Used as an insect attractant and to make quaternary ammonium compounds; [HSDB] Formed in the stomach from ingestion of trimethylamine which is found naturally in foods; [IUCLID]",
        "links": [],
        "cross_references": [
          {
            "type": "name_match",
            "text": "methylamine",
            "confidence": 1.0,
            "uuid": "7c3781b5-5294-474a-a015-e59574d00b69",
            "name": "Methylamine",
            "url": "https://haz-map.com/Agents/217",
            "category": "agents"
          },
          {
            "type": "name_match",
            "text": "trimethylamine",
            "confidence": 1.0,
            "uuid": "3a21152b-0cd4-42e0-a7f0-f9a4dcf674be",
            "name": "Trimethylamine",
            "url": "https://haz-map.com/Agents/219",
            "category": "agents"
          },
          {
            "type": "name_match",
            "text": "ethylamine",
            "confidence": 1.0,
            "uuid": "41ca4da8-b990-420a-86b2-3d77404fb7f4",
            "name": "Ethylamine",
            "url": "https://haz-map.com/Agents/220",
            "category": "agents"
          }
        ]
      },
      "comments": {
        "original_name": "Comments",
        "value": "An irritant; May be harmful by ingestion, inhalation, or skin absorption; [Aldrich MSDS]",
        "links": [],
        "cross_references": []
      },
      "biomedical_references": {
        "original_name": "Biomedical References",
        "value": "Search PubMed",
        "links": [
          {
            "text": "Search PubMed",
            "url": "https://www.ncbi.nlm.nih.gov/pubmed?term=Trimethylammonium+chloride%20AND%20human%5Bmh%5D%20AND%20%28Occupational%20Diseases%20%5Bmh%5D%20OR%20Occupational%20Exposure%20%5Bmh%5D%29%20%20AND%20%28tox%5Bsb%5D%29&cmd=search"
          }
        ],
        "cross_references": []
      }
    },
    "exposure_assessment": {
      "vapor_pressure": {
        "original_name": "Vapor Pressure",
        "value": "1.66E-06 mm Hg",
        "links": [],
        "cross_references": []
      }
    },
    "diseases_processes_and_activities_linked_to_this_agent": {
      "other_information": {
        "original_name": "Other Information",
        "value": "No other related information on this agent was found.",
        "links": [],
        "cross_references": []
      }
    }
  },
  "cross_references": [
    {
      "type": "name_match",
      "text": "methylamine",
      "confidence": 1.0,
      "uuid": "7c3781b5-5294-474a-a015-e59574d00b69",
      "name": "Methylamine",
      "url": "https://haz-map.com/Agents/217",
      "category": "agents"
    },
    {
      "type": "name_match",
      "text": "trimethylamine",
      "confidence": 1.0,
      "uuid": "3a21152b-0cd4-42e0-a7f0-f9a4dcf674be",
      "name": "Trimethylamine",
      "url": "https://haz-map.com/Agents/219",
      "category": "agents"
    },
    {
      "type": "name_match",
      "text": "ethylamine",
      "confidence": 1.0,
      "uuid": "41ca4da8-b990-420a-86b2-3d77404fb7f4",
      "name": "Ethylamine",
      "url": "https://haz-map.com/Agents/220",
      "category": "agents"
    },
    {
      "type": "name_match",
      "text": "nitrogen",
      "confidence": 1.0,
      "uuid": "db5e90a9-06d2-45b9-8b81-f345a89b0bc0",
      "name": "Nitrogen",
      "url": "https://haz-map.com/Agents/1072",
      "category": "agents"
    },
    {
      "type": "name_match",
      "text": "trimethylammonium chloride",
      "confidence": 1.0,
      "uuid": "4c001cd6-78f3-41e8-ab04-fb1715c1f848",
      "name": "Trimethylammonium chloride",
      "url": "https://haz-map.com/Agents/7608",
      "category": "agents"
    },
    {
      "type": "name_match",
      "text": "ethylamine hydrochloride",
      "confidence": 1.0,
      "uuid": "08a09ef2-946e-4ee5-aa9d-a81dc3e85697",
      "name": "Ethylamine hydrochloride",
      "url": "https://haz-map.com/Agents/14218",
      "category": "agents"
    },
    {
      "type": "name_match",
      "text": "methylamine hydrochloride",
      "confidence": 1.0,
      "uuid": "2a643b6b-9fea-42ca-8bea-d5a8439a124f",
      "name": "Methylamine hydrochloride",
      "url": "https://haz-map.com/Agents/15589",
      "category": "agents"
    },
    {
      "type": "fuzzy_match",
      "text": "crystalline",
      "matched_name": "Silica, crystalline",
      "confidence": 0.7061403508771931,
      "uuid": "f920e8a2-46df-41b7-af8d-0368a777251e",
      "category": "agents",
      "url": "https://haz-map.com/Agents/427"
    }
  ],
  "all_links": [
    {
      "text": "Search PubMed",
      "url": "https://www.ncbi.nlm.nih.gov/pubmed?term=Trimethylammonium+chloride%20AND%20human%5Bmh%5D%20AND%20%28Occupational%20Diseases%20%5Bmh%5D%20OR%20Occupational%20Exposure%20%5Bmh%5D%29%20%20AND%20%28tox%5Bsb%5D%29&cmd=search"
    }
  ]
}