{
  "metadata": {
    "scraped_from": "https://haz-map.com/Agents/2999",
    "entity_name": "2,4-Di-t-pentylphenol",
    "category": "agents",
    "uuid": "4c1cb95f-9670-47db-b57e-d39371312dd3",
    "scraped_at": "2025-07-23T19:22:24.958005"
  },
  "parsed_at": "2025-07-24T01:04:15.415236",
  "title": "2,4-Di-t-pentylphenol",
  "sections": {
    "general": {
      "agent_name": {
        "original_name": "Agent Name",
        "value": "2,4-Di-t-pentylphenol",
        "links": [],
        "cross_references": [
          {
            "type": "name_match",
            "text": "phenol",
            "confidence": 1.0,
            "uuid": "03141a03-a7df-4f51-9a37-adde1a7c4b31",
            "name": "Phenol",
            "url": "https://haz-map.com/Agents/84",
            "category": "agents"
          },
          {
            "type": "name_match",
            "text": "2,4-d",
            "confidence": 1.0,
            "uuid": "bed35f54-2d93-4ffd-a3ee-723ab365faf1",
            "name": "2,4-D",
            "url": "https://haz-map.com/Agents/389",
            "category": "agents"
          },
          {
            "type": "name_match",
            "text": "2,4-di-t-pentylphenol",
            "confidence": 1.0,
            "uuid": "4c1cb95f-9670-47db-b57e-d39371312dd3",
            "name": "2,4-Di-t-pentylphenol",
            "url": "https://haz-map.com/Agents/2999",
            "category": "agents"
          }
        ]
      },
      "cas_number": {
        "original_name": "CAS Number",
        "value": "120-95-6",
        "links": [],
        "cross_references": []
      },
      "formula": {
        "original_name": "Formula",
        "value": "C16-H26-O",
        "links": [],
        "cross_references": []
      },
      "major_category": {
        "original_name": "Major Category",
        "value": "Other Classes",
        "links": [],
        "cross_references": []
      },
      "synonyms": {
        "original_name": "Synonyms",
        "value": "2,4-Di-tert-amylphenol; 2,4-Di-tert-pentylphenol; Di-tert-amylphenol; Phenol, 2,4-bis(1,1-dimethylpropyl)-; Phenol, 2,4-di-tert-pentyl-; Prodox 156; [ChemIDplus]",
        "links": [],
        "cross_references": [
          {
            "type": "name_match",
            "text": "phenol",
            "confidence": 1.0,
            "uuid": "03141a03-a7df-4f51-9a37-adde1a7c4b31",
            "name": "Phenol",
            "url": "https://haz-map.com/Agents/84",
            "category": "agents"
          },
          {
            "type": "name_match",
            "text": "2,4-d",
            "confidence": 1.0,
            "uuid": "bed35f54-2d93-4ffd-a3ee-723ab365faf1",
            "name": "2,4-D",
            "url": "https://haz-map.com/Agents/389",
            "category": "agents"
          }
        ]
      },
      "category": {
        "original_name": "Category",
        "value": "Phenols",
        "links": [],
        "cross_references": [
          {
            "type": "name_match",
            "text": "phenol",
            "confidence": 1.0,
            "uuid": "03141a03-a7df-4f51-9a37-adde1a7c4b31",
            "name": "Phenol",
            "url": "https://haz-map.com/Agents/84",
            "category": "agents"
          }
        ]
      },
      "description": {
        "original_name": "Description",
        "value": "Semi-solid that melts to colorless liquid; mp = 25 deg C; [MSDSonline]",
        "links": [],
        "cross_references": []
      },
      "sourcesuses": {
        "original_name": "Sources/Uses",
        "value": "Used as a chemical intermediate; [HSDB]",
        "links": [],
        "cross_references": [
          {
            "type": "name_match",
            "text": "mica",
            "confidence": 1.0,
            "uuid": "433f26f1-c399-4596-b179-ce3843cfd465",
            "name": "Mica",
            "url": "https://haz-map.com/Agents/621",
            "category": "agents"
          }
        ]
      },
      "comments": {
        "original_name": "Comments",
        "value": "A moderate eye irritant when tested in rabbits; [RTECS] An eye irritant; [MSDSonline]",
        "links": [],
        "cross_references": []
      },
      "biomedical_references": {
        "original_name": "Biomedical References",
        "value": "Search PubMed",
        "links": [
          {
            "text": "Search PubMed",
            "url": "https://www.ncbi.nlm.nih.gov/pubmed?term=2%2c4-Di-t-pentylphenol%20AND%20human%5Bmh%5D%20AND%20%28Occupational%20Diseases%20%5Bmh%5D%20OR%20Occupational%20Exposure%20%5Bmh%5D%29%20%20AND%20%28tox%5Bsb%5D%29&cmd=search"
          }
        ],
        "cross_references": []
      }
    },
    "exposure_assessment": {
      "vapor_pressure": {
        "original_name": "Vapor Pressure",
        "value": "8.41E-05 mm Hg",
        "links": [],
        "cross_references": []
      }
    },
    "diseases_processes_and_activities_linked_to_this_agent": {
      "other_information": {
        "original_name": "Other Information",
        "value": "No other related information on this agent was found.",
        "links": [],
        "cross_references": []
      }
    }
  },
  "cross_references": [
    {
      "type": "name_match",
      "text": "phenol",
      "confidence": 1.0,
      "uuid": "03141a03-a7df-4f51-9a37-adde1a7c4b31",
      "name": "Phenol",
      "url": "https://haz-map.com/Agents/84",
      "category": "agents"
    },
    {
      "type": "name_match",
      "text": "2,4-d",
      "confidence": 1.0,
      "uuid": "bed35f54-2d93-4ffd-a3ee-723ab365faf1",
      "name": "2,4-D",
      "url": "https://haz-map.com/Agents/389",
      "category": "agents"
    },
    {
      "type": "name_match",
      "text": "mica",
      "confidence": 1.0,
      "uuid": "433f26f1-c399-4596-b179-ce3843cfd465",
      "name": "Mica",
      "url": "https://haz-map.com/Agents/621",
      "category": "agents"
    },
    {
      "type": "name_match",
      "text": "2,4-di-t-pentylphenol",
      "confidence": 1.0,
      "uuid": "4c1cb95f-9670-47db-b57e-d39371312dd3",
      "name": "2,4-Di-t-pentylphenol",
      "url": "https://haz-map.com/Agents/2999",
      "category": "agents"
    }
  ],
  "all_links": [
    {
      "text": "Search PubMed",
      "url": "https://www.ncbi.nlm.nih.gov/pubmed?term=2%2c4-Di-t-pentylphenol%20AND%20human%5Bmh%5D%20AND%20%28Occupational%20Diseases%20%5Bmh%5D%20OR%20Occupational%20Exposure%20%5Bmh%5D%29%20%20AND%20%28tox%5Bsb%5D%29&cmd=search"
    }
  ]
}