{
  "metadata": {
    "scraped_from": "https://haz-map.com/Agents/6513",
    "entity_name": "p-Tolylsulfonylmethylnitrosamide",
    "category": "agents",
    "uuid": "4ce6a4da-a6f9-4bf6-881d-94eb400a92eb",
    "scraped_at": "2025-07-23T20:02:43.405025"
  },
  "parsed_at": "2025-07-24T01:01:33.286988",
  "title": "p-Tolylsulfonylmethylnitrosamide",
  "sections": {
    "general": {
      "agent_name": {
        "original_name": "Agent Name",
        "value": "p-Tolylsulfonylmethylnitrosamide",
        "links": [],
        "cross_references": [
          {
            "type": "name_match",
            "text": "p-tolylsulfonylmethylnitrosamide",
            "confidence": 1.0,
            "uuid": "4ce6a4da-a6f9-4bf6-881d-94eb400a92eb",
            "name": "p-Tolylsulfonylmethylnitrosamide",
            "url": "https://haz-map.com/Agents/6513",
            "category": "agents"
          }
        ]
      },
      "cas_number": {
        "original_name": "CAS Number",
        "value": "80-11-5",
        "links": [],
        "cross_references": []
      },
      "formula": {
        "original_name": "Formula",
        "value": "C8-H10-N2-O3-S",
        "links": [],
        "cross_references": []
      },
      "major_category": {
        "original_name": "Major Category",
        "value": "Nitrogen Compounds",
        "links": [],
        "cross_references": [
          {
            "type": "name_match",
            "text": "nitrogen",
            "confidence": 1.0,
            "uuid": "db5e90a9-06d2-45b9-8b81-f345a89b0bc0",
            "name": "Nitrogen",
            "url": "https://haz-map.com/Agents/1072",
            "category": "agents"
          }
        ]
      },
      "synonyms": {
        "original_name": "Synonyms",
        "value": "Diazalo; Benzenesulfonamide, N,4-dimethyl-N-nitroso-; Diazald; Diazale; Methylnitroso-p-toluenesulfonamide; N-Methyl-N-nitroso-p-toluenesulfonamide; N-Methyl-N-nitroso-p-tolylsulfonylamide; N-Nitroso-N-methyl-4-tolylsulfonamide; N-Nitroso-N-methyl-p-toluenesulfamide; Toluene-p-sulfonylmethylnitrosamide; p-Toluenesulfonamide, N-methyl-N-nitroso-; p-Tolylsulfonyl-methyl-nitrosamid [German]; p-Tolylsulfonylmethylnitrosamine; [ChemIDplus] UN3224",
        "links": [],
        "cross_references": [
          {
            "type": "name_match",
            "text": "benzene",
            "confidence": 1.0,
            "uuid": "b05124de-5f34-4c14-8f04-ccb20c3780d9",
            "name": "Benzene",
            "url": "https://haz-map.com/Agents/5",
            "category": "agents"
          },
          {
            "type": "name_match",
            "text": "toluene",
            "confidence": 1.0,
            "uuid": "0a34d5de-e924-4c47-aff5-7ae8e48c6772",
            "name": "Toluene",
            "url": "https://haz-map.com/Agents/83",
            "category": "agents"
          },
          {
            "type": "name_match",
            "text": "p-toluenesulfonamide",
            "confidence": 1.0,
            "uuid": "16e0440c-0427-4f47-af29-507771d3eecd",
            "name": "p-Toluenesulfonamide",
            "url": "https://haz-map.com/Agents/6512",
            "category": "agents"
          },
          {
            "type": "name_match",
            "text": "toluenesulfonamide",
            "confidence": 1.0,
            "uuid": "bf0cba41-3611-4558-8902-0bc6be119c60",
            "name": "Toluenesulfonamide",
            "url": "https://haz-map.com/Agents/7465",
            "category": "agents"
          },
          {
            "type": "name_match",
            "text": "benzenesulfonamide",
            "confidence": 1.0,
            "uuid": "66d8b92e-3d51-4461-ac5b-4ff3501d45e5",
            "name": "Benzenesulfonamide",
            "url": "https://haz-map.com/Agents/20287",
            "category": "agents"
          }
        ]
      },
      "category": {
        "original_name": "Category",
        "value": "Benzenesulfonic Acid Derivatives",
        "links": [],
        "cross_references": [
          {
            "type": "name_match",
            "text": "benzene",
            "confidence": 1.0,
            "uuid": "b05124de-5f34-4c14-8f04-ccb20c3780d9",
            "name": "Benzene",
            "url": "https://haz-map.com/Agents/5",
            "category": "agents"
          },
          {
            "type": "name_match",
            "text": "benzenesulfonic acid",
            "confidence": 1.0,
            "uuid": "39630619-7b3f-4266-b4e1-e41deb2f24e6",
            "name": "Benzenesulfonic acid",
            "url": "https://haz-map.com/Agents/3840",
            "category": "agents"
          }
        ]
      },
      "description": {
        "original_name": "Description",
        "value": "Yellow solid; [Merck Index] Fine light yellow crystals; [MSDSonline]",
        "links": [],
        "cross_references": [
          {
            "type": "name_match",
            "text": "ht",
            "confidence": 1.0,
            "uuid": "764df367-8d53-4a11-81a2-31ccfe122a8d",
            "name": "HT",
            "url": "https://haz-map.com/Agents/2168",
            "category": "agents"
          }
        ]
      },
      "sourcesuses": {
        "original_name": "Sources/Uses",
        "value": "Used to make diazomethane in the laboratory; [Merck Index]",
        "links": [],
        "cross_references": [
          {
            "type": "name_match",
            "text": "diazomethane",
            "confidence": 1.0,
            "uuid": "eb54012d-a153-4e65-acdf-3c5c567a2588",
            "name": "Diazomethane",
            "url": "https://haz-map.com/Agents/396",
            "category": "agents"
          },
          {
            "type": "name_match",
            "text": "methane",
            "confidence": 1.0,
            "uuid": "5018bf73-24be-4353-8643-c351d5f52186",
            "name": "Methane",
            "url": "https://haz-map.com/Agents/1074",
            "category": "agents"
          },
          {
            "type": "name_match",
            "text": "ethane",
            "confidence": 1.0,
            "uuid": "5162cc8c-dfb9-4060-81ac-38a8cec7f9dd",
            "name": "Ethane",
            "url": "https://haz-map.com/Agents/1075",
            "category": "agents"
          }
        ]
      },
      "comments": {
        "original_name": "Comments",
        "value": "A mutagen and tumorigen; [RTECS] May explode from shock or friction; May polymerize; An irritant; May cause skin sensitization; [MSDSonline]",
        "links": [],
        "cross_references": [
          {
            "type": "name_match",
            "text": "shock",
            "confidence": 1.0,
            "uuid": "184088a3-33cc-4d64-b02e-bfb90ba4cbe5",
            "name": "shock",
            "url": "https://haz-map.com/Findings/76",
            "category": "findings"
          }
        ]
      },
      "biomedical_references": {
        "original_name": "Biomedical References",
        "value": "Search PubMed",
        "links": [
          {
            "text": "Search PubMed",
            "url": "https://www.ncbi.nlm.nih.gov/pubmed?term=p-Tolylsulfonylmethylnitrosamide%20AND%20human%5Bmh%5D%20AND%20%28Occupational%20Diseases%20%5Bmh%5D%20OR%20Occupational%20Exposure%20%5Bmh%5D%29%20%20AND%20%28tox%5Bsb%5D%29&cmd=search"
          }
        ],
        "cross_references": []
      }
    },
    "exposure_assessment": {
      "vapor_pressure": {
        "original_name": "Vapor Pressure",
        "value": "4.79E-06 mm Hg",
        "links": [],
        "cross_references": []
      },
      "explanatory_notes": {
        "original_name": "Explanatory Notes",
        "value": "The Guide in the Emergency Response Guidebook is for \"Self-reactive solid type C.\"",
        "links": [],
        "cross_references": []
      }
    },
    "diseases_processes_and_activities_linked_to_this_agent": {
      "other_information": {
        "original_name": "Other Information",
        "value": "No other related information on this agent was found.",
        "links": [],
        "cross_references": []
      }
    }
  },
  "cross_references": [
    {
      "type": "name_match",
      "text": "shock",
      "confidence": 1.0,
      "uuid": "184088a3-33cc-4d64-b02e-bfb90ba4cbe5",
      "name": "shock",
      "url": "https://haz-map.com/Findings/76",
      "category": "findings"
    },
    {
      "type": "name_match",
      "text": "benzene",
      "confidence": 1.0,
      "uuid": "b05124de-5f34-4c14-8f04-ccb20c3780d9",
      "name": "Benzene",
      "url": "https://haz-map.com/Agents/5",
      "category": "agents"
    },
    {
      "type": "name_match",
      "text": "toluene",
      "confidence": 1.0,
      "uuid": "0a34d5de-e924-4c47-aff5-7ae8e48c6772",
      "name": "Toluene",
      "url": "https://haz-map.com/Agents/83",
      "category": "agents"
    },
    {
      "type": "name_match",
      "text": "diazomethane",
      "confidence": 1.0,
      "uuid": "eb54012d-a153-4e65-acdf-3c5c567a2588",
      "name": "Diazomethane",
      "url": "https://haz-map.com/Agents/396",
      "category": "agents"
    },
    {
      "type": "name_match",
      "text": "nitrogen",
      "confidence": 1.0,
      "uuid": "db5e90a9-06d2-45b9-8b81-f345a89b0bc0",
      "name": "Nitrogen",
      "url": "https://haz-map.com/Agents/1072",
      "category": "agents"
    },
    {
      "type": "name_match",
      "text": "methane",
      "confidence": 1.0,
      "uuid": "5018bf73-24be-4353-8643-c351d5f52186",
      "name": "Methane",
      "url": "https://haz-map.com/Agents/1074",
      "category": "agents"
    },
    {
      "type": "name_match",
      "text": "ethane",
      "confidence": 1.0,
      "uuid": "5162cc8c-dfb9-4060-81ac-38a8cec7f9dd",
      "name": "Ethane",
      "url": "https://haz-map.com/Agents/1075",
      "category": "agents"
    },
    {
      "type": "name_match",
      "text": "ht",
      "confidence": 1.0,
      "uuid": "764df367-8d53-4a11-81a2-31ccfe122a8d",
      "name": "HT",
      "url": "https://haz-map.com/Agents/2168",
      "category": "agents"
    },
    {
      "type": "name_match",
      "text": "benzenesulfonic acid",
      "confidence": 1.0,
      "uuid": "39630619-7b3f-4266-b4e1-e41deb2f24e6",
      "name": "Benzenesulfonic acid",
      "url": "https://haz-map.com/Agents/3840",
      "category": "agents"
    },
    {
      "type": "name_match",
      "text": "p-toluenesulfonamide",
      "confidence": 1.0,
      "uuid": "16e0440c-0427-4f47-af29-507771d3eecd",
      "name": "p-Toluenesulfonamide",
      "url": "https://haz-map.com/Agents/6512",
      "category": "agents"
    },
    {
      "type": "name_match",
      "text": "p-tolylsulfonylmethylnitrosamide",
      "confidence": 1.0,
      "uuid": "4ce6a4da-a6f9-4bf6-881d-94eb400a92eb",
      "name": "p-Tolylsulfonylmethylnitrosamide",
      "url": "https://haz-map.com/Agents/6513",
      "category": "agents"
    },
    {
      "type": "name_match",
      "text": "toluenesulfonamide",
      "confidence": 1.0,
      "uuid": "bf0cba41-3611-4558-8902-0bc6be119c60",
      "name": "Toluenesulfonamide",
      "url": "https://haz-map.com/Agents/7465",
      "category": "agents"
    },
    {
      "type": "name_match",
      "text": "benzenesulfonamide",
      "confidence": 1.0,
      "uuid": "66d8b92e-3d51-4461-ac5b-4ff3501d45e5",
      "name": "Benzenesulfonamide",
      "url": "https://haz-map.com/Agents/20287",
      "category": "agents"
    }
  ],
  "all_links": [
    {
      "text": "Search PubMed",
      "url": "https://www.ncbi.nlm.nih.gov/pubmed?term=p-Tolylsulfonylmethylnitrosamide%20AND%20human%5Bmh%5D%20AND%20%28Occupational%20Diseases%20%5Bmh%5D%20OR%20Occupational%20Exposure%20%5Bmh%5D%29%20%20AND%20%28tox%5Bsb%5D%29&cmd=search"
    }
  ]
}