{
  "metadata": {
    "scraped_from": "https://haz-map.com/Agents/6232",
    "entity_name": "N-Ethyl-N-benzylaniline",
    "category": "agents",
    "uuid": "4cf22fd8-413f-4192-baf5-2fd3627433fc",
    "scraped_at": "2025-07-23T19:59:56.703628"
  },
  "parsed_at": "2025-07-24T01:06:39.208104",
  "title": "N-Ethyl-N-benzylaniline",
  "sections": {
    "general": {
      "agent_name": {
        "original_name": "Agent Name",
        "value": "N-Ethyl-N-benzylaniline",
        "links": [],
        "cross_references": [
          {
            "type": "name_match",
            "text": "aniline",
            "confidence": 1.0,
            "uuid": "e4932692-8d9c-4a98-8c5c-81e55b12aedf",
            "name": "Aniline",
            "url": "https://haz-map.com/Agents/296",
            "category": "agents"
          },
          {
            "type": "name_match",
            "text": "n-ethyl-n-benzylaniline",
            "confidence": 1.0,
            "uuid": "4cf22fd8-413f-4192-baf5-2fd3627433fc",
            "name": "N-Ethyl-N-benzylaniline",
            "url": "https://haz-map.com/Agents/6232",
            "category": "agents"
          },
          {
            "type": "name_match",
            "text": "benzylaniline",
            "confidence": 1.0,
            "uuid": "e98698db-79df-420b-8109-46c563788c19",
            "name": "Benzylaniline",
            "url": "https://haz-map.com/Agents/21365",
            "category": "agents"
          }
        ]
      },
      "cas_number": {
        "original_name": "CAS Number",
        "value": "92-59-1",
        "links": [],
        "cross_references": []
      },
      "formula": {
        "original_name": "Formula",
        "value": "C15-H17-N",
        "links": [],
        "cross_references": []
      },
      "major_category": {
        "original_name": "Major Category",
        "value": "Nitrogen Compounds",
        "links": [],
        "cross_references": [
          {
            "type": "name_match",
            "text": "nitrogen",
            "confidence": 1.0,
            "uuid": "db5e90a9-06d2-45b9-8b81-f345a89b0bc0",
            "name": "Nitrogen",
            "url": "https://haz-map.com/Agents/1072",
            "category": "agents"
          }
        ]
      },
      "synonyms": {
        "original_name": "Synonyms",
        "value": "Amine, benzyl ethyl phenyl; Benzenemethanamine, N-ethyl-N-phenyl-; Benzylamine, N-ethyl-N-phenyl-; Benzylethylphenylamine; Ethylbenzylaniline; N-Benzyl-N-ethylaniline; N-Ethyl-N-phenylbenzenemethanamine; N-Ethyl-N-phenylbenzylamine; Phenylethylbenzylamine; [ChemIDplus] UN2274",
        "links": [],
        "cross_references": [
          {
            "type": "name_match",
            "text": "benzene",
            "confidence": 1.0,
            "uuid": "b05124de-5f34-4c14-8f04-ccb20c3780d9",
            "name": "Benzene",
            "url": "https://haz-map.com/Agents/5",
            "category": "agents"
          },
          {
            "type": "name_match",
            "text": "aniline",
            "confidence": 1.0,
            "uuid": "e4932692-8d9c-4a98-8c5c-81e55b12aedf",
            "name": "Aniline",
            "url": "https://haz-map.com/Agents/296",
            "category": "agents"
          },
          {
            "type": "name_match",
            "text": "benzylamine",
            "confidence": 1.0,
            "uuid": "e3ff102c-c372-46ae-ab9f-a1fd3d630249",
            "name": "Benzylamine",
            "url": "https://haz-map.com/Agents/1380",
            "category": "agents"
          },
          {
            "type": "name_match",
            "text": "n-ethylaniline",
            "confidence": 1.0,
            "uuid": "faf30957-f960-4bdd-855b-dc5afc39ec8b",
            "name": "N-Ethylaniline",
            "url": "https://haz-map.com/Agents/1470",
            "category": "agents"
          },
          {
            "type": "name_match",
            "text": "benzylaniline",
            "confidence": 1.0,
            "uuid": "e98698db-79df-420b-8109-46c563788c19",
            "name": "Benzylaniline",
            "url": "https://haz-map.com/Agents/21365",
            "category": "agents"
          }
        ]
      },
      "category": {
        "original_name": "Category",
        "value": "Amines, Polyaromatic",
        "links": [],
        "cross_references": []
      },
      "description": {
        "original_name": "Description",
        "value": "Light yellow to brown liquid; mp = -30 deg C; [ICSC] Colorless to light yellow liquid or yellow solid; mp = 34 deg C; [HSDB] Light yellow liquid; mp = 34-36 deg C; [NTP]",
        "links": [],
        "cross_references": [
          {
            "type": "name_match",
            "text": "ht",
            "confidence": 1.0,
            "uuid": "764df367-8d53-4a11-81a2-31ccfe122a8d",
            "name": "HT",
            "url": "https://haz-map.com/Agents/2168",
            "category": "agents"
          }
        ]
      },
      "sourcesuses": {
        "original_name": "Sources/Uses",
        "value": "Used to make dyes and other organic chemicals; [Merck Index] Used as photographic intermediate; [NTP]",
        "links": [],
        "cross_references": [
          {
            "type": "name_match",
            "text": "mica",
            "confidence": 1.0,
            "uuid": "433f26f1-c399-4596-b179-ce3843cfd465",
            "name": "Mica",
            "url": "https://haz-map.com/Agents/621",
            "category": "agents"
          }
        ]
      },
      "comments": {
        "original_name": "Comments",
        "value": "A mild skin irritant; [ICSC] An irritant; May be harmful after ingestion or skin contact; [Alfa Aesar MSDS]",
        "links": [],
        "cross_references": []
      },
      "biomedical_references": {
        "original_name": "Biomedical References",
        "value": "Search PubMed",
        "links": [
          {
            "text": "Search PubMed",
            "url": "https://www.ncbi.nlm.nih.gov/pubmed?term=N-Ethyl-N-benzylaniline%20AND%20human%5Bmh%5D%20AND%20%28Occupational%20Diseases%20%5Bmh%5D%20OR%20Occupational%20Exposure%20%5Bmh%5D%29%20%20AND%20%28tox%5Bsb%5D%29&cmd=search"
          }
        ],
        "cross_references": []
      }
    },
    "exposure_assessment": {
      "vapor_pressure": {
        "original_name": "Vapor Pressure",
        "value": "0.97 mm Hg",
        "links": [],
        "cross_references": []
      },
      "nfpa": {
        "original_name": "NFPA",
        "value": "must be preheated",
        "links": [],
        "cross_references": []
      }
    },
    "diseases_processes_and_activities_linked_to_this_agent": {
      "processes": {
        "original_name": "Processes",
        "value": "Industrial Processes with risk of exposure: Photographic Processing",
        "links": [
          {
            "text": "Photographic Processing",
            "url": "https://haz-map.com/Processes/231"
          }
        ],
        "cross_references": []
      }
    }
  },
  "cross_references": [
    {
      "type": "name_match",
      "text": "benzene",
      "confidence": 1.0,
      "uuid": "b05124de-5f34-4c14-8f04-ccb20c3780d9",
      "name": "Benzene",
      "url": "https://haz-map.com/Agents/5",
      "category": "agents"
    },
    {
      "type": "name_match",
      "text": "aniline",
      "confidence": 1.0,
      "uuid": "e4932692-8d9c-4a98-8c5c-81e55b12aedf",
      "name": "Aniline",
      "url": "https://haz-map.com/Agents/296",
      "category": "agents"
    },
    {
      "type": "name_match",
      "text": "mica",
      "confidence": 1.0,
      "uuid": "433f26f1-c399-4596-b179-ce3843cfd465",
      "name": "Mica",
      "url": "https://haz-map.com/Agents/621",
      "category": "agents"
    },
    {
      "type": "name_match",
      "text": "nitrogen",
      "confidence": 1.0,
      "uuid": "db5e90a9-06d2-45b9-8b81-f345a89b0bc0",
      "name": "Nitrogen",
      "url": "https://haz-map.com/Agents/1072",
      "category": "agents"
    },
    {
      "type": "name_match",
      "text": "benzylamine",
      "confidence": 1.0,
      "uuid": "e3ff102c-c372-46ae-ab9f-a1fd3d630249",
      "name": "Benzylamine",
      "url": "https://haz-map.com/Agents/1380",
      "category": "agents"
    },
    {
      "type": "name_match",
      "text": "n-ethylaniline",
      "confidence": 1.0,
      "uuid": "faf30957-f960-4bdd-855b-dc5afc39ec8b",
      "name": "N-Ethylaniline",
      "url": "https://haz-map.com/Agents/1470",
      "category": "agents"
    },
    {
      "type": "name_match",
      "text": "ht",
      "confidence": 1.0,
      "uuid": "764df367-8d53-4a11-81a2-31ccfe122a8d",
      "name": "HT",
      "url": "https://haz-map.com/Agents/2168",
      "category": "agents"
    },
    {
      "type": "name_match",
      "text": "n-ethyl-n-benzylaniline",
      "confidence": 1.0,
      "uuid": "4cf22fd8-413f-4192-baf5-2fd3627433fc",
      "name": "N-Ethyl-N-benzylaniline",
      "url": "https://haz-map.com/Agents/6232",
      "category": "agents"
    },
    {
      "type": "name_match",
      "text": "benzylaniline",
      "confidence": 1.0,
      "uuid": "e98698db-79df-420b-8109-46c563788c19",
      "name": "Benzylaniline",
      "url": "https://haz-map.com/Agents/21365",
      "category": "agents"
    }
  ],
  "all_links": [
    {
      "text": "Search PubMed",
      "url": "https://www.ncbi.nlm.nih.gov/pubmed?term=N-Ethyl-N-benzylaniline%20AND%20human%5Bmh%5D%20AND%20%28Occupational%20Diseases%20%5Bmh%5D%20OR%20Occupational%20Exposure%20%5Bmh%5D%29%20%20AND%20%28tox%5Bsb%5D%29&cmd=search"
    },
    {
      "text": "Photographic Processing",
      "url": "https://haz-map.com/Processes/231"
    }
  ]
}