{
  "metadata": {
    "scraped_from": "https://haz-map.com/Agents/4291",
    "entity_name": "Chlorobutanol",
    "category": "agents",
    "uuid": "4cf5e019-3dca-42eb-96eb-e08624a799b2",
    "scraped_at": "2025-07-23T19:39:32.174831"
  },
  "parsed_at": "2025-07-24T01:01:34.449931",
  "title": "Chlorobutanol",
  "sections": {
    "general": {
      "agent_name": {
        "original_name": "Agent Name",
        "value": "Chlorobutanol",
        "links": [],
        "cross_references": [
          {
            "type": "name_match",
            "text": "chlorobutanol",
            "confidence": 1.0,
            "uuid": "4cf5e019-3dca-42eb-96eb-e08624a799b2",
            "name": "Chlorobutanol",
            "url": "https://haz-map.com/Agents/4291",
            "category": "agents"
          }
        ]
      },
      "alternative_name": {
        "original_name": "Alternative Name",
        "value": "Chloretone",
        "links": [],
        "cross_references": []
      },
      "cas_number": {
        "original_name": "CAS Number",
        "value": "57-15-8",
        "links": [],
        "cross_references": []
      },
      "formula": {
        "original_name": "Formula",
        "value": "C4-H7-Cl3-O",
        "links": [],
        "cross_references": []
      },
      "major_category": {
        "original_name": "Major Category",
        "value": "Other Classes",
        "links": [],
        "cross_references": []
      },
      "synonyms": {
        "original_name": "Synonyms",
        "value": "Chloretone; 1,1,1-Trichloro-2-methyl-2-propanol; 1,1,1-Trichloro-tert-butyl alcohol; 2-(Trichloromethyl)-2-propanol; 2-Propanol, 1,1,1-trichloro-2-methyl-; 2-Propanol, 2-methyl-1,1,1-trichloro-; Acetochlorone; Acetonchloroform; Acetone chloroform; Anhydrous chlorobutanol; Chlorbutanol; Chlorbutanolum; Chlorbutol; Chlorbutolum; Chloreton; Chlorobutanol, anhydrous; Chlorobutanolum [INN-Latin]; Chlortran; Clorobutanol [INN-Spanish]; Clorobutanolo; Clorobutanolo [DCIT]; Clortran; Coliquifilm; Dentalone; HCP; Khloreton; Methaform; Sedaform; Trichlorisobutylalcohol; Trichloro-t-butyl alcohol; Trichloro-tert-butanol; beta,beta,beta-Trichloro-tert-butyl alcohol; [ChemIDplus]",
        "links": [],
        "cross_references": [
          {
            "type": "name_match",
            "text": "chloroform",
            "confidence": 1.0,
            "uuid": "c05794fb-7374-465e-8219-dc071fdda4a7",
            "name": "Chloroform",
            "url": "https://haz-map.com/Agents/53",
            "category": "agents"
          },
          {
            "type": "name_match",
            "text": "acetone",
            "confidence": 1.0,
            "uuid": "31b7bdae-eb37-44cc-9c56-b6dfc1908d64",
            "name": "Acetone",
            "url": "https://haz-map.com/Agents/138",
            "category": "agents"
          },
          {
            "type": "name_match",
            "text": "tert-butyl alcohol",
            "confidence": 1.0,
            "uuid": "3facdaaf-7c66-440f-928e-9a5dededdbb7",
            "name": "tert-Butyl alcohol",
            "url": "https://haz-map.com/Agents/327",
            "category": "agents"
          },
          {
            "type": "name_match",
            "text": "acetochlor",
            "confidence": 1.0,
            "uuid": "9a8d23d5-5890-426e-ab2c-c54f0173a680",
            "name": "Acetochlor",
            "url": "https://haz-map.com/Agents/3414",
            "category": "agents"
          },
          {
            "type": "name_match",
            "text": "chlorobutanol",
            "confidence": 1.0,
            "uuid": "4cf5e019-3dca-42eb-96eb-e08624a799b2",
            "name": "Chlorobutanol",
            "url": "https://haz-map.com/Agents/4291",
            "category": "agents"
          }
        ]
      },
      "category": {
        "original_name": "Category",
        "value": "Halogenated Alcohols",
        "links": [],
        "cross_references": []
      },
      "description": {
        "original_name": "Description",
        "value": "Colorless to white solid; [Merck Index] Crystalline solid; [MSDSonline]",
        "links": [],
        "cross_references": [
          {
            "type": "fuzzy_match",
            "text": "crystalline",
            "matched_name": "Silica, crystalline",
            "confidence": 0.7061403508771931,
            "uuid": "f920e8a2-46df-41b7-af8d-0368a777251e",
            "category": "agents",
            "url": "https://haz-map.com/Agents/427"
          }
        ]
      },
      "sourcesuses": {
        "original_name": "Sources/Uses",
        "value": "Used as a plasticizer for cellulose esters and ethers, in medical practice (preservative, antimicrobial agent, anesthetic in dentistry, sedative and hypnotic, antiemetic), and in veterinary practice (antiseptic, local anesthetic, sedative, antiemetic, antipruritic, and hypnotic); [HSDB]",
        "links": [],
        "cross_references": [
          {
            "type": "name_match",
            "text": "cellulose",
            "confidence": 1.0,
            "uuid": "b9b1b190-806c-4622-8201-8f09b0a87eca",
            "name": "Cellulose",
            "url": "https://haz-map.com/Agents/347",
            "category": "agents"
          }
        ]
      },
      "comments": {
        "original_name": "Comments",
        "value": "A skin and eye irritant; 0.4% solution caused keratitis in rabbit eyes following continuous bathing; Emergency treatment is for \"chloral hydrate and related agents.\" [HSDB]",
        "links": [],
        "cross_references": [
          {
            "type": "name_match",
            "text": "chloral",
            "confidence": 1.0,
            "uuid": "4484bb9d-804f-4aa4-bb27-31f95359d89e",
            "name": "Chloral",
            "url": "https://haz-map.com/Agents/4272",
            "category": "agents"
          },
          {
            "type": "name_match",
            "text": "chloral hydrate",
            "confidence": 1.0,
            "uuid": "d75d97f5-e969-4121-8029-2b078b7cf0c7",
            "name": "Chloral hydrate",
            "url": "https://haz-map.com/Agents/8325",
            "category": "agents"
          }
        ]
      },
      "biomedical_references": {
        "original_name": "Biomedical References",
        "value": "Search PubMed",
        "links": [
          {
            "text": "Search PubMed",
            "url": "https://www.ncbi.nlm.nih.gov/pubmed?term=Chlorobutanol%20AND%20human%5Bmh%5D%20AND%20%28Occupational%20Diseases%20%5Bmh%5D%20OR%20Occupational%20Exposure%20%5Bmh%5D%29%20%20AND%20%28tox%5Bsb%5D%29&cmd=search"
          }
        ],
        "cross_references": []
      }
    },
    "exposure_assessment": {
      "vapor_pressure": {
        "original_name": "Vapor Pressure",
        "value": "0.833 mm Hg",
        "links": [],
        "cross_references": []
      },
      "explanatory_notes": {
        "original_name": "Explanatory Notes",
        "value": "VP from ChemIDplus;",
        "links": [],
        "cross_references": []
      }
    },
    "adverse_effects": {
      "neurotoxin": {
        "original_name": "Neurotoxin",
        "value": "Acute solvent syndrome",
        "links": [],
        "cross_references": []
      }
    },
    "diseases_processes_and_activities_linked_to_this_agent": {
      "diseases": {
        "original_name": "Diseases",
        "value": "Occupational diseases associated with exposure to this agent: Solvents, acute toxic effect",
        "links": [
          {
            "text": "Solvents, acute toxic effect",
            "url": "https://haz-map.com/Diseases/326"
          }
        ],
        "cross_references": [
          {
            "type": "url_match",
            "text": "Solvents, acute toxic effect",
            "url": "https://haz-map.com/Diseases/326",
            "confidence": 1.0,
            "uuid": "581e90e3-9d0c-45f0-aa6c-3468c28da129",
            "name": "Solvents, acute toxic effect",
            "category": "diseases"
          }
        ]
      },
      "processes": {
        "original_name": "Processes",
        "value": "Industrial Processes with risk of exposure: Using Disinfectants or Biocides",
        "links": [
          {
            "text": "Using Disinfectants or Biocides",
            "url": "https://haz-map.com/Processes/167"
          }
        ],
        "cross_references": [
          {
            "type": "url_match",
            "text": "Using Disinfectants or Biocides",
            "url": "https://haz-map.com/Processes/167",
            "confidence": 1.0,
            "uuid": "7accb745-ad60-4ef8-9039-8ac4febb8fd8",
            "name": "Using Disinfectants or Biocides",
            "category": "processes"
          }
        ]
      }
    }
  },
  "cross_references": [
    {
      "type": "url_match",
      "text": "Solvents, acute toxic effect",
      "url": "https://haz-map.com/Diseases/326",
      "confidence": 1.0,
      "uuid": "581e90e3-9d0c-45f0-aa6c-3468c28da129",
      "name": "Solvents, acute toxic effect",
      "category": "diseases"
    },
    {
      "type": "url_match",
      "text": "Using Disinfectants or Biocides",
      "url": "https://haz-map.com/Processes/167",
      "confidence": 1.0,
      "uuid": "7accb745-ad60-4ef8-9039-8ac4febb8fd8",
      "name": "Using Disinfectants or Biocides",
      "category": "processes"
    },
    {
      "type": "name_match",
      "text": "chloroform",
      "confidence": 1.0,
      "uuid": "c05794fb-7374-465e-8219-dc071fdda4a7",
      "name": "Chloroform",
      "url": "https://haz-map.com/Agents/53",
      "category": "agents"
    },
    {
      "type": "name_match",
      "text": "acetone",
      "confidence": 1.0,
      "uuid": "31b7bdae-eb37-44cc-9c56-b6dfc1908d64",
      "name": "Acetone",
      "url": "https://haz-map.com/Agents/138",
      "category": "agents"
    },
    {
      "type": "name_match",
      "text": "tert-butyl alcohol",
      "confidence": 1.0,
      "uuid": "3facdaaf-7c66-440f-928e-9a5dededdbb7",
      "name": "tert-Butyl alcohol",
      "url": "https://haz-map.com/Agents/327",
      "category": "agents"
    },
    {
      "type": "name_match",
      "text": "cellulose",
      "confidence": 1.0,
      "uuid": "b9b1b190-806c-4622-8201-8f09b0a87eca",
      "name": "Cellulose",
      "url": "https://haz-map.com/Agents/347",
      "category": "agents"
    },
    {
      "type": "name_match",
      "text": "acetochlor",
      "confidence": 1.0,
      "uuid": "9a8d23d5-5890-426e-ab2c-c54f0173a680",
      "name": "Acetochlor",
      "url": "https://haz-map.com/Agents/3414",
      "category": "agents"
    },
    {
      "type": "name_match",
      "text": "chloral",
      "confidence": 1.0,
      "uuid": "4484bb9d-804f-4aa4-bb27-31f95359d89e",
      "name": "Chloral",
      "url": "https://haz-map.com/Agents/4272",
      "category": "agents"
    },
    {
      "type": "name_match",
      "text": "chlorobutanol",
      "confidence": 1.0,
      "uuid": "4cf5e019-3dca-42eb-96eb-e08624a799b2",
      "name": "Chlorobutanol",
      "url": "https://haz-map.com/Agents/4291",
      "category": "agents"
    },
    {
      "type": "name_match",
      "text": "chloral hydrate",
      "confidence": 1.0,
      "uuid": "d75d97f5-e969-4121-8029-2b078b7cf0c7",
      "name": "Chloral hydrate",
      "url": "https://haz-map.com/Agents/8325",
      "category": "agents"
    },
    {
      "type": "fuzzy_match",
      "text": "crystalline",
      "matched_name": "Silica, crystalline",
      "confidence": 0.7061403508771931,
      "uuid": "f920e8a2-46df-41b7-af8d-0368a777251e",
      "category": "agents",
      "url": "https://haz-map.com/Agents/427"
    }
  ],
  "all_links": [
    {
      "text": "Search PubMed",
      "url": "https://www.ncbi.nlm.nih.gov/pubmed?term=Chlorobutanol%20AND%20human%5Bmh%5D%20AND%20%28Occupational%20Diseases%20%5Bmh%5D%20OR%20Occupational%20Exposure%20%5Bmh%5D%29%20%20AND%20%28tox%5Bsb%5D%29&cmd=search"
    },
    {
      "text": "Solvents, acute toxic effect",
      "url": "https://haz-map.com/Diseases/326"
    },
    {
      "text": "Using Disinfectants or Biocides",
      "url": "https://haz-map.com/Processes/167"
    }
  ]
}