{
  "metadata": {
    "scraped_from": "https://haz-map.com/Agents/19288",
    "entity_name": "1,5-Dichloropentane",
    "category": "agents",
    "uuid": "4d4143f2-09f8-4154-bff0-f6a1638bb187",
    "scraped_at": "2025-07-23T22:03:02.724013"
  },
  "parsed_at": "2025-07-24T01:15:54.447250",
  "title": "1,5-Dichloropentane",
  "sections": {
    "general": {
      "agent_name": {
        "original_name": "Agent Name",
        "value": "1,5-Dichloropentane",
        "links": [],
        "cross_references": [
          {
            "type": "name_match",
            "text": "1,5-dichloropentane",
            "confidence": 1.0,
            "uuid": "4d4143f2-09f8-4154-bff0-f6a1638bb187",
            "name": "1,5-Dichloropentane",
            "url": "https://haz-map.com/Agents/19288",
            "category": "agents"
          }
        ]
      },
      "cas_number": {
        "original_name": "CAS Number",
        "value": "628-76-2",
        "links": [],
        "cross_references": []
      },
      "formula": {
        "original_name": "Formula",
        "value": "C5-H10-Cl2",
        "links": [],
        "cross_references": []
      },
      "major_category": {
        "original_name": "Major Category",
        "value": "Other Classes",
        "links": [],
        "cross_references": []
      },
      "synonyms": {
        "original_name": "Synonyms",
        "value": "Amylene chloride; Pentamethylene chloride; Pentamethylene dichloride; Pentane, 1,5-dichloro-; [ChemIDplus] UN1152",
        "links": [],
        "cross_references": [
          {
            "type": "name_match",
            "text": "methylene chloride",
            "confidence": 1.0,
            "uuid": "86944b92-0839-4b4b-b92f-488827ba4cd2",
            "name": "Methylene chloride",
            "url": "https://haz-map.com/Agents/12",
            "category": "agents"
          },
          {
            "type": "name_match",
            "text": "ethylene dichloride",
            "confidence": 1.0,
            "uuid": "eeccb42e-da4e-4454-abf2-27041a104f91",
            "name": "Ethylene dichloride",
            "url": "https://haz-map.com/Agents/35",
            "category": "agents"
          },
          {
            "type": "name_match",
            "text": "ethylene",
            "confidence": 1.0,
            "uuid": "958eacc0-5135-4b62-bb93-6df972bf552f",
            "name": "Ethylene",
            "url": "https://haz-map.com/Agents/1076",
            "category": "agents"
          },
          {
            "type": "name_match",
            "text": "amylene",
            "confidence": 1.0,
            "uuid": "dad255c7-7e07-4276-9a3d-d181bdd07265",
            "name": "Amylene",
            "url": "https://haz-map.com/Agents/3691",
            "category": "agents"
          }
        ]
      },
      "category": {
        "original_name": "Category",
        "value": "Halogenated Aliphatics, Saturated",
        "links": [],
        "cross_references": []
      },
      "description": {
        "original_name": "Description",
        "value": "Colorless liquid; [Alfa Aesar MSDS]",
        "links": [],
        "cross_references": []
      },
      "comments": {
        "original_name": "Comments",
        "value": "A skin and strong eye irritant; Toxic by ingestion; [Alfa Aesar MSDS] See \"1,3-Dichloropropane\" and \"1,4-Dichlorobutane.\"",
        "links": [],
        "cross_references": [
          {
            "type": "name_match",
            "text": "propane",
            "confidence": 1.0,
            "uuid": "563a611b-46ea-4bdc-b77b-17d8f7646283",
            "name": "Propane",
            "url": "https://haz-map.com/Agents/607",
            "category": "agents"
          },
          {
            "type": "name_match",
            "text": "1,3-dichloropropane",
            "confidence": 1.0,
            "uuid": "485a2389-e7df-4985-a35c-6b0108c925fe",
            "name": "1,3-Dichloropropane",
            "url": "https://haz-map.com/Agents/2794",
            "category": "agents"
          },
          {
            "type": "name_match",
            "text": "1,4-dichlorobutane",
            "confidence": 1.0,
            "uuid": "c4a0d331-48c7-4e17-b952-59f57e409fcb",
            "name": "1,4-Dichlorobutane",
            "url": "https://haz-map.com/Agents/10466",
            "category": "agents"
          }
        ]
      },
      "biomedical_references": {
        "original_name": "Biomedical References",
        "value": "Search PubMed",
        "links": [
          {
            "text": "Search PubMed",
            "url": "https://www.ncbi.nlm.nih.gov/pubmed?term=1%2c5-Dichloropentane%20AND%20human%5Bmh%5D%20AND%20%28Occupational%20Diseases%20%5Bmh%5D%20OR%20Occupational%20Exposure%20%5Bmh%5D%29%20%20AND%20%28tox%5Bsb%5D%29&cmd=search"
          }
        ],
        "cross_references": []
      }
    },
    "exposure_assessment": {
      "vapor_pressure": {
        "original_name": "Vapor Pressure",
        "value": "1.13 mm Hg",
        "links": [],
        "cross_references": []
      },
      "explanatory_notes": {
        "original_name": "Explanatory Notes",
        "value": "The Guide in the Emergency Response Guidebook is for \"Dichloropentanes.\"",
        "links": [],
        "cross_references": []
      }
    },
    "diseases_processes_and_activities_linked_to_this_agent": {
      "other_information": {
        "original_name": "Other Information",
        "value": "No other related information on this agent was found.",
        "links": [],
        "cross_references": []
      }
    }
  },
  "cross_references": [
    {
      "type": "name_match",
      "text": "methylene chloride",
      "confidence": 1.0,
      "uuid": "86944b92-0839-4b4b-b92f-488827ba4cd2",
      "name": "Methylene chloride",
      "url": "https://haz-map.com/Agents/12",
      "category": "agents"
    },
    {
      "type": "name_match",
      "text": "ethylene dichloride",
      "confidence": 1.0,
      "uuid": "eeccb42e-da4e-4454-abf2-27041a104f91",
      "name": "Ethylene dichloride",
      "url": "https://haz-map.com/Agents/35",
      "category": "agents"
    },
    {
      "type": "name_match",
      "text": "propane",
      "confidence": 1.0,
      "uuid": "563a611b-46ea-4bdc-b77b-17d8f7646283",
      "name": "Propane",
      "url": "https://haz-map.com/Agents/607",
      "category": "agents"
    },
    {
      "type": "name_match",
      "text": "ethylene",
      "confidence": 1.0,
      "uuid": "958eacc0-5135-4b62-bb93-6df972bf552f",
      "name": "Ethylene",
      "url": "https://haz-map.com/Agents/1076",
      "category": "agents"
    },
    {
      "type": "name_match",
      "text": "1,3-dichloropropane",
      "confidence": 1.0,
      "uuid": "485a2389-e7df-4985-a35c-6b0108c925fe",
      "name": "1,3-Dichloropropane",
      "url": "https://haz-map.com/Agents/2794",
      "category": "agents"
    },
    {
      "type": "name_match",
      "text": "amylene",
      "confidence": 1.0,
      "uuid": "dad255c7-7e07-4276-9a3d-d181bdd07265",
      "name": "Amylene",
      "url": "https://haz-map.com/Agents/3691",
      "category": "agents"
    },
    {
      "type": "name_match",
      "text": "1,4-dichlorobutane",
      "confidence": 1.0,
      "uuid": "c4a0d331-48c7-4e17-b952-59f57e409fcb",
      "name": "1,4-Dichlorobutane",
      "url": "https://haz-map.com/Agents/10466",
      "category": "agents"
    },
    {
      "type": "name_match",
      "text": "1,5-dichloropentane",
      "confidence": 1.0,
      "uuid": "4d4143f2-09f8-4154-bff0-f6a1638bb187",
      "name": "1,5-Dichloropentane",
      "url": "https://haz-map.com/Agents/19288",
      "category": "agents"
    }
  ],
  "all_links": [
    {
      "text": "Search PubMed",
      "url": "https://www.ncbi.nlm.nih.gov/pubmed?term=1%2c5-Dichloropentane%20AND%20human%5Bmh%5D%20AND%20%28Occupational%20Diseases%20%5Bmh%5D%20OR%20Occupational%20Exposure%20%5Bmh%5D%29%20%20AND%20%28tox%5Bsb%5D%29&cmd=search"
    }
  ]
}