{
  "metadata": {
    "scraped_from": "https://haz-map.com/Agents/10063",
    "entity_name": "1,3,5-Triallyl isocyanurate",
    "category": "agents",
    "uuid": "4d58a1a6-7d21-40d3-91aa-9f3846ffc0ba",
    "scraped_at": "2025-07-23T20:44:17.528696"
  },
  "parsed_at": "2025-07-24T00:59:05.213699",
  "title": "1,3,5-Triallyl isocyanurate",
  "sections": {
    "general": {
      "agent_name": {
        "original_name": "Agent Name",
        "value": "1,3,5-Triallyl isocyanurate",
        "links": [],
        "cross_references": [
          {
            "type": "name_match",
            "text": "1,3,5-triallyl isocyanurate",
            "confidence": 1.0,
            "uuid": "4d58a1a6-7d21-40d3-91aa-9f3846ffc0ba",
            "name": "1,3,5-Triallyl isocyanurate",
            "url": "https://haz-map.com/Agents/10063",
            "category": "agents"
          }
        ]
      },
      "cas_number": {
        "original_name": "CAS Number",
        "value": "1025-15-6",
        "links": [],
        "cross_references": []
      },
      "formula": {
        "original_name": "Formula",
        "value": "C12-H15-N3-O3",
        "links": [],
        "cross_references": []
      },
      "major_category": {
        "original_name": "Major Category",
        "value": "Plastics & Rubber",
        "links": [],
        "cross_references": []
      },
      "synonyms": {
        "original_name": "Synonyms",
        "value": "1,3,5-Triallylisocyanurate; 1,3,5-Triallylisocyanuric acid; Diak 7; Isocyanuric acid triallyl ester; TAIC; Triallyl isocyanurate; Triallylisocyanurate; s-Triazine-2,4,6(1H,3H,5H)-trione, triallyl-; 1,3,5-Triallyl-1,3,5-triazine-2,4,6(1H,3H,5H)-trione; 1,3,5-Triazine-2,4,6(1H,3H,5H)-trione, 1,3,5-tri-2-propen-1-yl-; 1,3,5-Triazine-2,4,6(1H,3H,5H)-trione, 1,3,5-tri-2-propenyl-; [ChemIDplus]",
        "links": [],
        "cross_references": [
          {
            "type": "name_match",
            "text": "cyanuric acid",
            "confidence": 1.0,
            "uuid": "b96aef2d-3d9d-401e-9fce-f07beb176709",
            "name": "Cyanuric acid",
            "url": "https://haz-map.com/Agents/4567",
            "category": "agents"
          },
          {
            "type": "name_match",
            "text": "uric acid",
            "confidence": 1.0,
            "uuid": "bd67e9b1-899e-4f1c-95f0-d25380f3c966",
            "name": "Uric acid",
            "url": "https://haz-map.com/Agents/18587",
            "category": "agents"
          }
        ]
      },
      "category": {
        "original_name": "Category",
        "value": "Other Monomers",
        "links": [],
        "cross_references": []
      },
      "description": {
        "original_name": "Description",
        "value": "Melting point = 20.5 deg C; [ChemIDplus] White solid; mp = 23-25 deg C; [CAMEO] Colorless viscous liquid; [Aldrich MSDS]",
        "links": [],
        "cross_references": []
      },
      "comments": {
        "original_name": "Comments",
        "value": "Increased liver weights and increased liver enzymes (AST, ALT, and LDH) observed in male rats in 28-day oral study at 50 mg/kg/day; Histopathological liver changes observed at the lowest tested dose of 5 mg/kg/day; No evidence of mutagenicity; [JECDB] Causes changes in liver, bladder, and spleen weights in 14-day intermittent oral studies of rats; [RTECS] May cause irritation; Harmful by ingestion; [Aldrich MSDS] See \"1,3,5-Tris(2-hydroxyethyl) isocyanurate.\"",
        "links": [],
        "cross_references": [
          {
            "type": "name_match",
            "text": "enzymes",
            "confidence": 1.0,
            "uuid": "fe84a5f3-127f-4a3f-bd93-9a905dddee93",
            "name": "ENZYMES",
            "url": "https://haz-map.com/Agents/741",
            "category": "agents"
          },
          {
            "type": "name_match",
            "text": "ht",
            "confidence": 1.0,
            "uuid": "764df367-8d53-4a11-81a2-31ccfe122a8d",
            "name": "HT",
            "url": "https://haz-map.com/Agents/2168",
            "category": "agents"
          },
          {
            "type": "name_match",
            "text": "dde",
            "confidence": 1.0,
            "uuid": "88506fb4-e7b1-4bde-a283-917057f67fc2",
            "name": "DDE",
            "url": "https://haz-map.com/Agents/4656",
            "category": "agents"
          },
          {
            "type": "name_match",
            "text": "1,3,5-tris(2-hydroxyethyl) isocyanurate",
            "confidence": 1.0,
            "uuid": "b4f42377-a4d9-4ac8-9d4a-45d65724ebb7",
            "name": "1,3,5-Tris(2-hydroxyethyl) isocyanurate",
            "url": "https://haz-map.com/Agents/5689",
            "category": "agents"
          }
        ]
      },
      "biomedical_references": {
        "original_name": "Biomedical References",
        "value": "Search PubMed",
        "links": [
          {
            "text": "Search PubMed",
            "url": "https://www.ncbi.nlm.nih.gov/pubmed?term=1%2c3%2c5-Triallyl+isocyanurate%20AND%20human%5Bmh%5D%20AND%20%28Occupational%20Diseases%20%5Bmh%5D%20OR%20Occupational%20Exposure%20%5Bmh%5D%29%20%20AND%20%28tox%5Bsb%5D%29&cmd=search"
          }
        ],
        "cross_references": []
      }
    },
    "adverse_effects": {
      "hepatotoxin": {
        "original_name": "Hepatotoxin",
        "value": "Hepatoxic (a) from occupational exposure (secondary effect) or (b) in animal studies or in humans after ingestion",
        "links": [],
        "cross_references": []
      }
    },
    "diseases_processes_and_activities_linked_to_this_agent": {
      "other_information": {
        "original_name": "Other Information",
        "value": "No other related information on this agent was found.",
        "links": [],
        "cross_references": []
      }
    }
  },
  "cross_references": [
    {
      "type": "name_match",
      "text": "enzymes",
      "confidence": 1.0,
      "uuid": "fe84a5f3-127f-4a3f-bd93-9a905dddee93",
      "name": "ENZYMES",
      "url": "https://haz-map.com/Agents/741",
      "category": "agents"
    },
    {
      "type": "name_match",
      "text": "ht",
      "confidence": 1.0,
      "uuid": "764df367-8d53-4a11-81a2-31ccfe122a8d",
      "name": "HT",
      "url": "https://haz-map.com/Agents/2168",
      "category": "agents"
    },
    {
      "type": "name_match",
      "text": "cyanuric acid",
      "confidence": 1.0,
      "uuid": "b96aef2d-3d9d-401e-9fce-f07beb176709",
      "name": "Cyanuric acid",
      "url": "https://haz-map.com/Agents/4567",
      "category": "agents"
    },
    {
      "type": "name_match",
      "text": "dde",
      "confidence": 1.0,
      "uuid": "88506fb4-e7b1-4bde-a283-917057f67fc2",
      "name": "DDE",
      "url": "https://haz-map.com/Agents/4656",
      "category": "agents"
    },
    {
      "type": "name_match",
      "text": "1,3,5-tris(2-hydroxyethyl) isocyanurate",
      "confidence": 1.0,
      "uuid": "b4f42377-a4d9-4ac8-9d4a-45d65724ebb7",
      "name": "1,3,5-Tris(2-hydroxyethyl) isocyanurate",
      "url": "https://haz-map.com/Agents/5689",
      "category": "agents"
    },
    {
      "type": "name_match",
      "text": "1,3,5-triallyl isocyanurate",
      "confidence": 1.0,
      "uuid": "4d58a1a6-7d21-40d3-91aa-9f3846ffc0ba",
      "name": "1,3,5-Triallyl isocyanurate",
      "url": "https://haz-map.com/Agents/10063",
      "category": "agents"
    },
    {
      "type": "name_match",
      "text": "uric acid",
      "confidence": 1.0,
      "uuid": "bd67e9b1-899e-4f1c-95f0-d25380f3c966",
      "name": "Uric acid",
      "url": "https://haz-map.com/Agents/18587",
      "category": "agents"
    }
  ],
  "all_links": [
    {
      "text": "Search PubMed",
      "url": "https://www.ncbi.nlm.nih.gov/pubmed?term=1%2c3%2c5-Triallyl+isocyanurate%20AND%20human%5Bmh%5D%20AND%20%28Occupational%20Diseases%20%5Bmh%5D%20OR%20Occupational%20Exposure%20%5Bmh%5D%29%20%20AND%20%28tox%5Bsb%5D%29&cmd=search"
    }
  ]
}