{
  "metadata": {
    "scraped_from": "https://haz-map.com/Agents/20065",
    "entity_name": "4-Methylcatechol",
    "category": "agents",
    "uuid": "4d81ad63-d206-48a3-bec5-1823fd33aa4e",
    "scraped_at": "2025-07-23T22:18:21.200183"
  },
  "parsed_at": "2025-07-24T01:02:32.365953",
  "title": "4-Methylcatechol",
  "sections": {
    "general": {
      "agent_name": {
        "original_name": "Agent Name",
        "value": "4-Methylcatechol",
        "links": [],
        "cross_references": [
          {
            "type": "name_match",
            "text": "catechol",
            "confidence": 1.0,
            "uuid": "f171132b-f7fb-42b9-ba76-091eb240fa4a",
            "name": "Catechol",
            "url": "https://haz-map.com/Agents/346",
            "category": "agents"
          },
          {
            "type": "name_match",
            "text": "4-methylcatechol",
            "confidence": 1.0,
            "uuid": "4d81ad63-d206-48a3-bec5-1823fd33aa4e",
            "name": "4-Methylcatechol",
            "url": "https://haz-map.com/Agents/20065",
            "category": "agents"
          }
        ]
      },
      "cas_number": {
        "original_name": "CAS Number",
        "value": "452-86-8",
        "links": [],
        "cross_references": []
      },
      "formula": {
        "original_name": "Formula",
        "value": "C7-H8-O2",
        "links": [],
        "cross_references": []
      },
      "major_category": {
        "original_name": "Major Category",
        "value": "Other Classes",
        "links": [],
        "cross_references": []
      },
      "synonyms": {
        "original_name": "Synonyms",
        "value": "1,2-Dihydroxy-4-methylbenzene; 3,4-Dihydroxytoluene; 4-Methyl-1,2-benzenediol; 4-Methyl-1,2-dihydroxybenzene; 4-Methylpyrocatechol; Homocatechol; Homopyrocatechol; p-Methylcatechol; p-Methylpyrocatechol; Toluene-3,4-diol; 1,2-Benzenediol, 4-methyl-; Pyrocatechol, 4-methyl-; [ChemIDplus]",
        "links": [],
        "cross_references": [
          {
            "type": "name_match",
            "text": "benzene",
            "confidence": 1.0,
            "uuid": "b05124de-5f34-4c14-8f04-ccb20c3780d9",
            "name": "Benzene",
            "url": "https://haz-map.com/Agents/5",
            "category": "agents"
          },
          {
            "type": "name_match",
            "text": "toluene",
            "confidence": 1.0,
            "uuid": "0a34d5de-e924-4c47-aff5-7ae8e48c6772",
            "name": "Toluene",
            "url": "https://haz-map.com/Agents/83",
            "category": "agents"
          },
          {
            "type": "name_match",
            "text": "catechol",
            "confidence": 1.0,
            "uuid": "f171132b-f7fb-42b9-ba76-091eb240fa4a",
            "name": "Catechol",
            "url": "https://haz-map.com/Agents/346",
            "category": "agents"
          }
        ]
      },
      "category": {
        "original_name": "Category",
        "value": "Phenols",
        "links": [],
        "cross_references": [
          {
            "type": "name_match",
            "text": "phenol",
            "confidence": 1.0,
            "uuid": "03141a03-a7df-4f51-9a37-adde1a7c4b31",
            "name": "Phenol",
            "url": "https://haz-map.com/Agents/84",
            "category": "agents"
          }
        ]
      },
      "description": {
        "original_name": "Description",
        "value": "White or light brown solid; [Alfa Aesar MSDS]",
        "links": [],
        "cross_references": [
          {
            "type": "name_match",
            "text": "ht",
            "confidence": 1.0,
            "uuid": "764df367-8d53-4a11-81a2-31ccfe122a8d",
            "name": "HT",
            "url": "https://haz-map.com/Agents/2168",
            "category": "agents"
          }
        ]
      },
      "comments": {
        "original_name": "Comments",
        "value": "A skin and strong eye irritant; Harmful by inhalation; Toxic by ingestion and skin absorption; [Alfa Aesar MSDS] See \"Catechol.\"",
        "links": [],
        "cross_references": [
          {
            "type": "name_match",
            "text": "catechol",
            "confidence": 1.0,
            "uuid": "f171132b-f7fb-42b9-ba76-091eb240fa4a",
            "name": "Catechol",
            "url": "https://haz-map.com/Agents/346",
            "category": "agents"
          }
        ]
      },
      "biomedical_references": {
        "original_name": "Biomedical References",
        "value": "Search PubMed",
        "links": [
          {
            "text": "Search PubMed",
            "url": "https://www.ncbi.nlm.nih.gov/pubmed?term=4-Methylcatechol%20AND%20human%5Bmh%5D%20AND%20%28Occupational%20Diseases%20%5Bmh%5D%20OR%20Occupational%20Exposure%20%5Bmh%5D%29%20%20AND%20%28tox%5Bsb%5D%29&cmd=search"
          }
        ],
        "cross_references": []
      }
    },
    "exposure_assessment": {
      "vapor_pressure": {
        "original_name": "Vapor Pressure",
        "value": "0.0028 mm Hg",
        "links": [],
        "cross_references": []
      }
    },
    "diseases_processes_and_activities_linked_to_this_agent": {
      "other_information": {
        "original_name": "Other Information",
        "value": "No other related information on this agent was found.",
        "links": [],
        "cross_references": []
      }
    }
  },
  "cross_references": [
    {
      "type": "name_match",
      "text": "benzene",
      "confidence": 1.0,
      "uuid": "b05124de-5f34-4c14-8f04-ccb20c3780d9",
      "name": "Benzene",
      "url": "https://haz-map.com/Agents/5",
      "category": "agents"
    },
    {
      "type": "name_match",
      "text": "toluene",
      "confidence": 1.0,
      "uuid": "0a34d5de-e924-4c47-aff5-7ae8e48c6772",
      "name": "Toluene",
      "url": "https://haz-map.com/Agents/83",
      "category": "agents"
    },
    {
      "type": "name_match",
      "text": "phenol",
      "confidence": 1.0,
      "uuid": "03141a03-a7df-4f51-9a37-adde1a7c4b31",
      "name": "Phenol",
      "url": "https://haz-map.com/Agents/84",
      "category": "agents"
    },
    {
      "type": "name_match",
      "text": "catechol",
      "confidence": 1.0,
      "uuid": "f171132b-f7fb-42b9-ba76-091eb240fa4a",
      "name": "Catechol",
      "url": "https://haz-map.com/Agents/346",
      "category": "agents"
    },
    {
      "type": "name_match",
      "text": "ht",
      "confidence": 1.0,
      "uuid": "764df367-8d53-4a11-81a2-31ccfe122a8d",
      "name": "HT",
      "url": "https://haz-map.com/Agents/2168",
      "category": "agents"
    },
    {
      "type": "name_match",
      "text": "4-methylcatechol",
      "confidence": 1.0,
      "uuid": "4d81ad63-d206-48a3-bec5-1823fd33aa4e",
      "name": "4-Methylcatechol",
      "url": "https://haz-map.com/Agents/20065",
      "category": "agents"
    }
  ],
  "all_links": [
    {
      "text": "Search PubMed",
      "url": "https://www.ncbi.nlm.nih.gov/pubmed?term=4-Methylcatechol%20AND%20human%5Bmh%5D%20AND%20%28Occupational%20Diseases%20%5Bmh%5D%20OR%20Occupational%20Exposure%20%5Bmh%5D%29%20%20AND%20%28tox%5Bsb%5D%29&cmd=search"
    }
  ]
}