{
  "metadata": {
    "scraped_from": "https://haz-map.com/Agents/19351",
    "entity_name": "1-Chloroethyl chloroformate",
    "category": "agents",
    "uuid": "4dde1a12-8245-45be-b264-da7d75cde827",
    "scraped_at": "2025-07-23T22:04:21.611004"
  },
  "parsed_at": "2025-07-24T01:03:18.775966",
  "title": "1-Chloroethyl chloroformate",
  "sections": {
    "general": {
      "agent_name": {
        "original_name": "Agent Name",
        "value": "1-Chloroethyl chloroformate",
        "links": [],
        "cross_references": [
          {
            "type": "name_match",
            "text": "chloroform",
            "confidence": 1.0,
            "uuid": "c05794fb-7374-465e-8219-dc071fdda4a7",
            "name": "Chloroform",
            "url": "https://haz-map.com/Agents/53",
            "category": "agents"
          },
          {
            "type": "name_match",
            "text": "ethyl chloroformate",
            "confidence": 1.0,
            "uuid": "179bf6b2-6026-4972-ba95-56ad40f8e998",
            "name": "Ethyl chloroformate",
            "url": "https://haz-map.com/Agents/2221",
            "category": "agents"
          },
          {
            "type": "name_match",
            "text": "chloroethyl chloroformate",
            "confidence": 1.0,
            "uuid": "974e98b2-1466-41f1-be5f-e2317358e059",
            "name": "Chloroethyl chloroformate",
            "url": "https://haz-map.com/Agents/4337",
            "category": "agents"
          },
          {
            "type": "name_match",
            "text": "1-chloroethyl chloroformate",
            "confidence": 1.0,
            "uuid": "4dde1a12-8245-45be-b264-da7d75cde827",
            "name": "1-Chloroethyl chloroformate",
            "url": "https://haz-map.com/Agents/19351",
            "category": "agents"
          }
        ]
      },
      "cas_number": {
        "original_name": "CAS Number",
        "value": "50893-53-3",
        "links": [],
        "cross_references": []
      },
      "formula": {
        "original_name": "Formula",
        "value": "C3-H4-Cl2-O2",
        "links": [],
        "cross_references": []
      },
      "major_category": {
        "original_name": "Major Category",
        "value": "Toxic Gases & Vapors",
        "links": [],
        "cross_references": []
      },
      "synonyms": {
        "original_name": "Synonyms",
        "value": "UN2742",
        "links": [],
        "cross_references": []
      },
      "category": {
        "original_name": "Category",
        "value": "Acid Halides",
        "links": [],
        "cross_references": []
      },
      "description": {
        "original_name": "Description",
        "value": "Colorless liquid with a pungent odor; [Alfa Aesar MSDS]",
        "links": [],
        "cross_references": []
      },
      "comments": {
        "original_name": "Comments",
        "value": "Reacts with water; Causes burns and lachrymation; Harmful by ingestion; Toxic by inhalation; [Alfa Aesar MSDS] See \"CHLOROFORMATES.\"",
        "links": [],
        "cross_references": [
          {
            "type": "name_match",
            "text": "burn",
            "confidence": 1.0,
            "uuid": "63665de5-6376-4918-8dbf-4c10c4d63837",
            "name": "burn",
            "url": "https://haz-map.com/Findings/204",
            "category": "findings"
          },
          {
            "type": "name_match",
            "text": "chloroform",
            "confidence": 1.0,
            "uuid": "c05794fb-7374-465e-8219-dc071fdda4a7",
            "name": "Chloroform",
            "url": "https://haz-map.com/Agents/53",
            "category": "agents"
          },
          {
            "type": "name_match",
            "text": "chloroformates",
            "confidence": 1.0,
            "uuid": "18fdfe1e-9a94-47b8-a3d2-638e06cadfa9",
            "name": "CHLOROFORMATES",
            "url": "https://haz-map.com/Agents/1591",
            "category": "agents"
          },
          {
            "type": "name_match",
            "text": "water",
            "confidence": 1.0,
            "uuid": "6f2a7557-dfd2-49bc-9b4b-a93cd8e225d4",
            "name": "Water",
            "url": "https://haz-map.com/Agents/18668",
            "category": "agents"
          }
        ]
      },
      "biomedical_references": {
        "original_name": "Biomedical References",
        "value": "Search PubMed",
        "links": [
          {
            "text": "Search PubMed",
            "url": "https://www.ncbi.nlm.nih.gov/pubmed?term=1-Chloroethyl+chloroformate%20AND%20human%5Bmh%5D%20AND%20%28Occupational%20Diseases%20%5Bmh%5D%20OR%20Occupational%20Exposure%20%5Bmh%5D%29%20%20AND%20%28tox%5Bsb%5D%29&cmd=search"
          }
        ],
        "cross_references": []
      }
    },
    "exposure_assessment": {
      "tih": {
        "original_name": "TIH",
        "value": "Yes",
        "links": [],
        "cross_references": []
      },
      "vapor_pressure": {
        "original_name": "Vapor Pressure",
        "value": "18 mm Hg",
        "links": [],
        "cross_references": []
      },
      "explanatory_notes": {
        "original_name": "Explanatory Notes",
        "value": "The Guide in the Emergency Response Guidebook is for \"Chloroformates, toxic, corrosive, flammable, n.o.s.\"",
        "links": [],
        "cross_references": [
          {
            "type": "name_match",
            "text": "chloroform",
            "confidence": 1.0,
            "uuid": "c05794fb-7374-465e-8219-dc071fdda4a7",
            "name": "Chloroform",
            "url": "https://haz-map.com/Agents/53",
            "category": "agents"
          },
          {
            "type": "name_match",
            "text": "chloroformates",
            "confidence": 1.0,
            "uuid": "18fdfe1e-9a94-47b8-a3d2-638e06cadfa9",
            "name": "CHLOROFORMATES",
            "url": "https://haz-map.com/Agents/1591",
            "category": "agents"
          }
        ]
      }
    },
    "adverse_effects": {
      "lachrymator": {
        "original_name": "Lachrymator",
        "value": "Yes",
        "links": [],
        "cross_references": []
      },
      "toxic_pneumonitis": {
        "original_name": "Toxic Pneumonitis",
        "value": "Yes",
        "links": [],
        "cross_references": []
      },
      "dermatotoxin": {
        "original_name": "Dermatotoxin",
        "value": "Skin burns",
        "links": [],
        "cross_references": [
          {
            "type": "name_match",
            "text": "burn",
            "confidence": 1.0,
            "uuid": "63665de5-6376-4918-8dbf-4c10c4d63837",
            "name": "burn",
            "url": "https://haz-map.com/Findings/204",
            "category": "findings"
          }
        ]
      }
    },
    "diseases_processes_and_activities_linked_to_this_agent": {
      "diseases": {
        "original_name": "Diseases",
        "value": "Occupational diseases associated with exposure to this agent: Pneumonitis, toxic",
        "links": [
          {
            "text": "Pneumonitis, toxic",
            "url": "https://haz-map.com/Diseases/306"
          }
        ],
        "cross_references": [
          {
            "type": "url_match",
            "text": "Pneumonitis, toxic",
            "url": "https://haz-map.com/Diseases/306",
            "confidence": 1.0,
            "uuid": "cd799281-0284-450d-bb82-ed6b675616ac",
            "name": "Pneumonitis, toxic",
            "category": "diseases"
          }
        ]
      }
    }
  },
  "cross_references": [
    {
      "type": "url_match",
      "text": "Pneumonitis, toxic",
      "url": "https://haz-map.com/Diseases/306",
      "confidence": 1.0,
      "uuid": "cd799281-0284-450d-bb82-ed6b675616ac",
      "name": "Pneumonitis, toxic",
      "category": "diseases"
    },
    {
      "type": "name_match",
      "text": "burn",
      "confidence": 1.0,
      "uuid": "63665de5-6376-4918-8dbf-4c10c4d63837",
      "name": "burn",
      "url": "https://haz-map.com/Findings/204",
      "category": "findings"
    },
    {
      "type": "name_match",
      "text": "chloroform",
      "confidence": 1.0,
      "uuid": "c05794fb-7374-465e-8219-dc071fdda4a7",
      "name": "Chloroform",
      "url": "https://haz-map.com/Agents/53",
      "category": "agents"
    },
    {
      "type": "name_match",
      "text": "chloroformates",
      "confidence": 1.0,
      "uuid": "18fdfe1e-9a94-47b8-a3d2-638e06cadfa9",
      "name": "CHLOROFORMATES",
      "url": "https://haz-map.com/Agents/1591",
      "category": "agents"
    },
    {
      "type": "name_match",
      "text": "ethyl chloroformate",
      "confidence": 1.0,
      "uuid": "179bf6b2-6026-4972-ba95-56ad40f8e998",
      "name": "Ethyl chloroformate",
      "url": "https://haz-map.com/Agents/2221",
      "category": "agents"
    },
    {
      "type": "name_match",
      "text": "chloroethyl chloroformate",
      "confidence": 1.0,
      "uuid": "974e98b2-1466-41f1-be5f-e2317358e059",
      "name": "Chloroethyl chloroformate",
      "url": "https://haz-map.com/Agents/4337",
      "category": "agents"
    },
    {
      "type": "name_match",
      "text": "water",
      "confidence": 1.0,
      "uuid": "6f2a7557-dfd2-49bc-9b4b-a93cd8e225d4",
      "name": "Water",
      "url": "https://haz-map.com/Agents/18668",
      "category": "agents"
    },
    {
      "type": "name_match",
      "text": "1-chloroethyl chloroformate",
      "confidence": 1.0,
      "uuid": "4dde1a12-8245-45be-b264-da7d75cde827",
      "name": "1-Chloroethyl chloroformate",
      "url": "https://haz-map.com/Agents/19351",
      "category": "agents"
    }
  ],
  "all_links": [
    {
      "text": "Search PubMed",
      "url": "https://www.ncbi.nlm.nih.gov/pubmed?term=1-Chloroethyl+chloroformate%20AND%20human%5Bmh%5D%20AND%20%28Occupational%20Diseases%20%5Bmh%5D%20OR%20Occupational%20Exposure%20%5Bmh%5D%29%20%20AND%20%28tox%5Bsb%5D%29&cmd=search"
    },
    {
      "text": "Pneumonitis, toxic",
      "url": "https://haz-map.com/Diseases/306"
    }
  ]
}