{
  "metadata": {
    "scraped_from": "https://haz-map.com/Agents/5869",
    "entity_name": "Fenazaflor",
    "category": "agents",
    "uuid": "4e710077-51d4-4033-808d-597652f5e5c5",
    "scraped_at": "2025-07-23T19:56:32.068391"
  },
  "parsed_at": "2025-07-24T01:02:49.763520",
  "title": "Fenazaflor",
  "sections": {
    "general": {
      "agent_name": {
        "original_name": "Agent Name",
        "value": "Fenazaflor",
        "links": [],
        "cross_references": [
          {
            "type": "name_match",
            "text": "fenazaflor",
            "confidence": 1.0,
            "uuid": "4e710077-51d4-4033-808d-597652f5e5c5",
            "name": "Fenazaflor",
            "url": "https://haz-map.com/Agents/5869",
            "category": "agents"
          }
        ]
      },
      "alternative_name": {
        "original_name": "Alternative Name",
        "value": "Lovozal",
        "links": [],
        "cross_references": []
      },
      "cas_number": {
        "original_name": "CAS Number",
        "value": "14255-88-0",
        "links": [],
        "cross_references": []
      },
      "formula": {
        "original_name": "Formula",
        "value": "C15-H7-Cl2-F3-N2-O2",
        "links": [],
        "cross_references": []
      },
      "major_category": {
        "original_name": "Major Category",
        "value": "Pesticides",
        "links": [],
        "cross_references": []
      },
      "synonyms": {
        "original_name": "Synonyms",
        "value": "Lovozal; 1-Benzimidazolecarboxylic acid, 5,6-dichloro-2-(trifluoromethyl)-, phenyl ester; 1H-Benzimidazole-1-carboxylic acid, 5,6-dichloro-2-(trifluoromethyl)-, phenyl ester; 5,6-Dichloro-1-phenoxycarbonyl-2-trifluoromethylbenzimidazole; ENT 27438; Fenazaflor [ISO]; Fenoflurazole; Fenozaflor; Fenzaflor; Fisons NC 5016; Lavozal; Lovozal; NC 5016; OMS 1243; Phenyl 5,6-dichloro-2-(trifluoromethyl)-1-benzimidazolecarboxylate; Phenyl-5,6-dichloro-2-(trifluoromethyl)-1H-benzimidazole-1-carboxylate; Phenyl-5,6-dichloro-2-trifluoromethyl-benzimidazole-1-carboxylate; Tarzol; [ChemIDplus]",
        "links": [],
        "cross_references": [
          {
            "type": "name_match",
            "text": "carbon",
            "confidence": 1.0,
            "uuid": "b53f8815-ee80-40ef-b4aa-3b000e17dab5",
            "name": "Carbon",
            "url": "https://haz-map.com/Agents/1891",
            "category": "agents"
          },
          {
            "type": "name_match",
            "text": "benzimidazole",
            "confidence": 1.0,
            "uuid": "c4af891e-415a-4fdf-bd5d-ad91665b9cca",
            "name": "Benzimidazole",
            "url": "https://haz-map.com/Agents/3848",
            "category": "agents"
          },
          {
            "type": "name_match",
            "text": "fenazaflor",
            "confidence": 1.0,
            "uuid": "4e710077-51d4-4033-808d-597652f5e5c5",
            "name": "Fenazaflor",
            "url": "https://haz-map.com/Agents/5869",
            "category": "agents"
          },
          {
            "type": "name_match",
            "text": "imidazole",
            "confidence": 1.0,
            "uuid": "c328c03e-2b26-487b-8c01-799a91dd318e",
            "name": "Imidazole",
            "url": "https://haz-map.com/Agents/18775",
            "category": "agents"
          }
        ]
      },
      "category": {
        "original_name": "Category",
        "value": "Other Insecticides",
        "links": [],
        "cross_references": []
      },
      "description": {
        "original_name": "Description",
        "value": "White to greyish-yellow solid; [HSDB]",
        "links": [],
        "cross_references": []
      },
      "sourcesuses": {
        "original_name": "Sources/Uses",
        "value": "Used as an insecticide and acaricide; [HSDB]",
        "links": [],
        "cross_references": []
      },
      "comments": {
        "original_name": "Comments",
        "value": "Causes lacrimation and altered sleeping; [RTECS] No adverse effects in rats fed 250 ppm in diet for 2 years; [HSDB] Harmful by skin absorption and ingestion; May cause irritation; [MSDSonline]",
        "links": [],
        "cross_references": [
          {
            "type": "name_match",
            "text": "lacrimation",
            "confidence": 1.0,
            "uuid": "392ff8e7-90fa-4d6d-8f67-3e49d053ffac",
            "name": "lacrimation",
            "url": "https://haz-map.com/Findings/199",
            "category": "findings"
          }
        ]
      },
      "biomedical_references": {
        "original_name": "Biomedical References",
        "value": "Search PubMed",
        "links": [
          {
            "text": "Search PubMed",
            "url": "https://www.ncbi.nlm.nih.gov/pubmed?term=Fenazaflor%20AND%20human%5Bmh%5D%20AND%20%28Occupational%20Diseases%20%5Bmh%5D%20OR%20Occupational%20Exposure%20%5Bmh%5D%29%20%20AND%20%28tox%5Bsb%5D%29&cmd=search"
          }
        ],
        "cross_references": []
      }
    },
    "exposure_assessment": {
      "vapor_pressure": {
        "original_name": "Vapor Pressure",
        "value": "5.2E-05 mm Hg",
        "links": [],
        "cross_references": []
      }
    },
    "diseases_processes_and_activities_linked_to_this_agent": {
      "processes": {
        "original_name": "Processes",
        "value": "Industrial Processes with risk of exposure: Farming (Pesticides)",
        "links": [
          {
            "text": "Farming (Pesticides)",
            "url": "https://haz-map.com/Processes/218"
          }
        ],
        "cross_references": [
          {
            "type": "url_match",
            "text": "Farming (Pesticides)",
            "url": "https://haz-map.com/Processes/218",
            "confidence": 1.0,
            "uuid": "cf1e5815-c9bb-4917-82a5-391848170b7e",
            "name": "Farming (Pesticides)",
            "category": "processes"
          }
        ]
      }
    }
  },
  "cross_references": [
    {
      "type": "url_match",
      "text": "Farming (Pesticides)",
      "url": "https://haz-map.com/Processes/218",
      "confidence": 1.0,
      "uuid": "cf1e5815-c9bb-4917-82a5-391848170b7e",
      "name": "Farming (Pesticides)",
      "category": "processes"
    },
    {
      "type": "name_match",
      "text": "lacrimation",
      "confidence": 1.0,
      "uuid": "392ff8e7-90fa-4d6d-8f67-3e49d053ffac",
      "name": "lacrimation",
      "url": "https://haz-map.com/Findings/199",
      "category": "findings"
    },
    {
      "type": "name_match",
      "text": "carbon",
      "confidence": 1.0,
      "uuid": "b53f8815-ee80-40ef-b4aa-3b000e17dab5",
      "name": "Carbon",
      "url": "https://haz-map.com/Agents/1891",
      "category": "agents"
    },
    {
      "type": "name_match",
      "text": "benzimidazole",
      "confidence": 1.0,
      "uuid": "c4af891e-415a-4fdf-bd5d-ad91665b9cca",
      "name": "Benzimidazole",
      "url": "https://haz-map.com/Agents/3848",
      "category": "agents"
    },
    {
      "type": "name_match",
      "text": "fenazaflor",
      "confidence": 1.0,
      "uuid": "4e710077-51d4-4033-808d-597652f5e5c5",
      "name": "Fenazaflor",
      "url": "https://haz-map.com/Agents/5869",
      "category": "agents"
    },
    {
      "type": "name_match",
      "text": "imidazole",
      "confidence": 1.0,
      "uuid": "c328c03e-2b26-487b-8c01-799a91dd318e",
      "name": "Imidazole",
      "url": "https://haz-map.com/Agents/18775",
      "category": "agents"
    }
  ],
  "all_links": [
    {
      "text": "Search PubMed",
      "url": "https://www.ncbi.nlm.nih.gov/pubmed?term=Fenazaflor%20AND%20human%5Bmh%5D%20AND%20%28Occupational%20Diseases%20%5Bmh%5D%20OR%20Occupational%20Exposure%20%5Bmh%5D%29%20%20AND%20%28tox%5Bsb%5D%29&cmd=search"
    },
    {
      "text": "Farming (Pesticides)",
      "url": "https://haz-map.com/Processes/218"
    }
  ]
}