{
  "metadata": {
    "scraped_from": "https://haz-map.com/Agents/2908",
    "entity_name": "1-Nitroguanidine",
    "category": "agents",
    "uuid": "4ef9288d-1fc4-4e25-b79f-02d22a14f641",
    "scraped_at": "2025-07-23T19:20:47.991062"
  },
  "parsed_at": "2025-07-24T00:53:48.443387",
  "title": "1-Nitroguanidine",
  "sections": {
    "general": {
      "agent_name": {
        "original_name": "Agent Name",
        "value": "1-Nitroguanidine",
        "links": [],
        "cross_references": [
          {
            "type": "name_match",
            "text": "1-nitroguanidine",
            "confidence": 1.0,
            "uuid": "4ef9288d-1fc4-4e25-b79f-02d22a14f641",
            "name": "1-Nitroguanidine",
            "url": "https://haz-map.com/Agents/2908",
            "category": "agents"
          },
          {
            "type": "name_match",
            "text": "guanidine",
            "confidence": 1.0,
            "uuid": "0569bc2f-9177-43a3-a8fc-30683a513f3d",
            "name": "Guanidine",
            "url": "https://haz-map.com/Agents/14472",
            "category": "agents"
          }
        ]
      },
      "cas_number": {
        "original_name": "CAS Number",
        "value": "556-88-7",
        "links": [],
        "cross_references": []
      },
      "formula": {
        "original_name": "Formula",
        "value": "C-H4-N4-O2",
        "links": [],
        "cross_references": []
      },
      "major_category": {
        "original_name": "Major Category",
        "value": "Nitrogen Compounds",
        "links": [],
        "cross_references": [
          {
            "type": "name_match",
            "text": "nitrogen",
            "confidence": 1.0,
            "uuid": "db5e90a9-06d2-45b9-8b81-f345a89b0bc0",
            "name": "Nitrogen",
            "url": "https://haz-map.com/Agents/1072",
            "category": "agents"
          }
        ]
      },
      "synonyms": {
        "original_name": "Synonyms",
        "value": "Guanidine, 1-nitro-; Guanidine, 1-nitro- (wet); Guanidine, nitro-; N''-Nitroguanidine; N(1)-Nitroguanidine; Nitroguanidine; Picrite; Picrite (the explosive); [ChemIDplus] UN0282; UN1336",
        "links": [],
        "cross_references": [
          {
            "type": "name_match",
            "text": "guanidine",
            "confidence": 1.0,
            "uuid": "0569bc2f-9177-43a3-a8fc-30683a513f3d",
            "name": "Guanidine",
            "url": "https://haz-map.com/Agents/14472",
            "category": "agents"
          }
        ]
      },
      "category": {
        "original_name": "Category",
        "value": "Other Nitrogen Compounds",
        "links": [],
        "cross_references": [
          {
            "type": "name_match",
            "text": "nitrogen",
            "confidence": 1.0,
            "uuid": "db5e90a9-06d2-45b9-8b81-f345a89b0bc0",
            "name": "Nitrogen",
            "url": "https://haz-map.com/Agents/1072",
            "category": "agents"
          }
        ]
      },
      "description": {
        "original_name": "Description",
        "value": "Exists as two isomers, needles and plates; [Hawley] Yellow solid; Shipped as a slurry or wet mass; [CAMEO] White powder; [Aldrich MSDS]",
        "links": [],
        "cross_references": []
      },
      "sourcesuses": {
        "original_name": "Sources/Uses",
        "value": "Used in explosives as a flashless propellant powder and as a chemical intermediate; [Hawley] Used in explosives and to make pharmaceuticals; [Merck Index]",
        "links": [],
        "cross_references": [
          {
            "type": "name_match",
            "text": "mica",
            "confidence": 1.0,
            "uuid": "433f26f1-c399-4596-b179-ce3843cfd465",
            "name": "Mica",
            "url": "https://haz-map.com/Agents/621",
            "category": "agents"
          },
          {
            "type": "name_match",
            "text": "ash",
            "confidence": 1.0,
            "uuid": "68b360f1-5ad0-4337-bea0-d7adca2961b5",
            "name": "Ash",
            "url": "https://haz-map.com/Agents/965",
            "category": "agents"
          },
          {
            "type": "name_match",
            "text": "pharmaceuticals",
            "confidence": 1.0,
            "uuid": "713c3c30-b67e-4a2f-a90f-b32f8a306332",
            "name": "PHARMACEUTICALS",
            "url": "https://haz-map.com/Agents/1000",
            "category": "agents"
          }
        ]
      },
      "comments": {
        "original_name": "Comments",
        "value": "\"May explode when shocked or heated.\" [Hawley] No adverse effects in histopathology, fertility, development, or offspring observed in three-generation feeding study of rats; [HSDB] May explode from shock, heat, or friction if dry; [CAMEO] Not teratogenic at maternally toxic doses; [REPROTOX] Causes cyanosis in oral lethal-dose studies of rats, mice, and guinea pigs; [RTECS] An irritant; [Aldrich MSDS]",
        "links": [],
        "cross_references": [
          {
            "type": "name_match",
            "text": "shock",
            "confidence": 1.0,
            "uuid": "184088a3-33cc-4d64-b02e-bfb90ba4cbe5",
            "name": "shock",
            "url": "https://haz-map.com/Findings/76",
            "category": "findings"
          }
        ]
      },
      "biomedical_references": {
        "original_name": "Biomedical References",
        "value": "Search PubMed",
        "links": [
          {
            "text": "Search PubMed",
            "url": "https://www.ncbi.nlm.nih.gov/pubmed?term=1-Nitroguanidine%20AND%20human%5Bmh%5D%20AND%20%28Occupational%20Diseases%20%5Bmh%5D%20OR%20Occupational%20Exposure%20%5Bmh%5D%29%20%20AND%20%28tox%5Bsb%5D%29&cmd=search"
          }
        ],
        "cross_references": []
      }
    },
    "exposure_assessment": {
      "vapor_pressure": {
        "original_name": "Vapor Pressure",
        "value": "1E-09 mm Hg",
        "links": [],
        "cross_references": []
      },
      "explanatory_notes": {
        "original_name": "Explanatory Notes",
        "value": "The Guide to the Emergency Response Guidebook is for \"Nitroguanidine or picrite, dry or wetted with <20% water, by mass.\"",
        "links": [],
        "cross_references": [
          {
            "type": "name_match",
            "text": "guanidine",
            "confidence": 1.0,
            "uuid": "0569bc2f-9177-43a3-a8fc-30683a513f3d",
            "name": "Guanidine",
            "url": "https://haz-map.com/Agents/14472",
            "category": "agents"
          },
          {
            "type": "name_match",
            "text": "water",
            "confidence": 1.0,
            "uuid": "6f2a7557-dfd2-49bc-9b4b-a93cd8e225d4",
            "name": "Water",
            "url": "https://haz-map.com/Agents/18668",
            "category": "agents"
          }
        ]
      }
    },
    "diseases_processes_and_activities_linked_to_this_agent": {
      "other_information": {
        "original_name": "Other Information",
        "value": "No other related information on this agent was found.",
        "links": [],
        "cross_references": []
      }
    }
  },
  "cross_references": [
    {
      "type": "name_match",
      "text": "shock",
      "confidence": 1.0,
      "uuid": "184088a3-33cc-4d64-b02e-bfb90ba4cbe5",
      "name": "shock",
      "url": "https://haz-map.com/Findings/76",
      "category": "findings"
    },
    {
      "type": "name_match",
      "text": "mica",
      "confidence": 1.0,
      "uuid": "433f26f1-c399-4596-b179-ce3843cfd465",
      "name": "Mica",
      "url": "https://haz-map.com/Agents/621",
      "category": "agents"
    },
    {
      "type": "name_match",
      "text": "ash",
      "confidence": 1.0,
      "uuid": "68b360f1-5ad0-4337-bea0-d7adca2961b5",
      "name": "Ash",
      "url": "https://haz-map.com/Agents/965",
      "category": "agents"
    },
    {
      "type": "name_match",
      "text": "pharmaceuticals",
      "confidence": 1.0,
      "uuid": "713c3c30-b67e-4a2f-a90f-b32f8a306332",
      "name": "PHARMACEUTICALS",
      "url": "https://haz-map.com/Agents/1000",
      "category": "agents"
    },
    {
      "type": "name_match",
      "text": "nitrogen",
      "confidence": 1.0,
      "uuid": "db5e90a9-06d2-45b9-8b81-f345a89b0bc0",
      "name": "Nitrogen",
      "url": "https://haz-map.com/Agents/1072",
      "category": "agents"
    },
    {
      "type": "name_match",
      "text": "1-nitroguanidine",
      "confidence": 1.0,
      "uuid": "4ef9288d-1fc4-4e25-b79f-02d22a14f641",
      "name": "1-Nitroguanidine",
      "url": "https://haz-map.com/Agents/2908",
      "category": "agents"
    },
    {
      "type": "name_match",
      "text": "guanidine",
      "confidence": 1.0,
      "uuid": "0569bc2f-9177-43a3-a8fc-30683a513f3d",
      "name": "Guanidine",
      "url": "https://haz-map.com/Agents/14472",
      "category": "agents"
    },
    {
      "type": "name_match",
      "text": "water",
      "confidence": 1.0,
      "uuid": "6f2a7557-dfd2-49bc-9b4b-a93cd8e225d4",
      "name": "Water",
      "url": "https://haz-map.com/Agents/18668",
      "category": "agents"
    }
  ],
  "all_links": [
    {
      "text": "Search PubMed",
      "url": "https://www.ncbi.nlm.nih.gov/pubmed?term=1-Nitroguanidine%20AND%20human%5Bmh%5D%20AND%20%28Occupational%20Diseases%20%5Bmh%5D%20OR%20Occupational%20Exposure%20%5Bmh%5D%29%20%20AND%20%28tox%5Bsb%5D%29&cmd=search"
    }
  ]
}