{
  "metadata": {
    "scraped_from": "https://haz-map.com/Agents/17878",
    "entity_name": "Tempamine",
    "category": "agents",
    "uuid": "4f0edd51-61c7-4f37-8fa6-790dc83dedfd",
    "scraped_at": "2025-07-23T21:50:18.490648"
  },
  "parsed_at": "2025-07-24T00:57:44.932450",
  "title": "Tempamine",
  "sections": {
    "general": {
      "agent_name": {
        "original_name": "Agent Name",
        "value": "Tempamine",
        "links": [],
        "cross_references": [
          {
            "type": "name_match",
            "text": "tempamine",
            "confidence": 1.0,
            "uuid": "4f0edd51-61c7-4f37-8fa6-790dc83dedfd",
            "name": "Tempamine",
            "url": "https://haz-map.com/Agents/17878",
            "category": "agents"
          }
        ]
      },
      "cas_number": {
        "original_name": "CAS Number",
        "value": "14691-88-4",
        "links": [],
        "cross_references": []
      },
      "formula": {
        "original_name": "Formula",
        "value": "C9-H19-N2-O",
        "links": [],
        "cross_references": []
      },
      "major_category": {
        "original_name": "Major Category",
        "value": "Nitrogen Compounds",
        "links": [],
        "cross_references": [
          {
            "type": "name_match",
            "text": "nitrogen",
            "confidence": 1.0,
            "uuid": "db5e90a9-06d2-45b9-8b81-f345a89b0bc0",
            "name": "Nitrogen",
            "url": "https://haz-map.com/Agents/1072",
            "category": "agents"
          }
        ]
      },
      "synonyms": {
        "original_name": "Synonyms",
        "value": "4-Amino-2,2,6,6-tetramethyl-1-piperidinyloxy; 4-Amino-2,2,6,6-tetramethylpiperidine 1-oxide; 4-Amino-2,2,6,6-tetramethylpiperidinooxyl; Piperidinooxy, 4-amino-2,2,6,6-tetramethyl-; Tempo-amine; 1-Piperidinyloxy, 4-amino-2,2,6,6-tetramethyl-; [ChemIDplus] 4-Amino-TEMPO, free radical; 4-Amino-2,2,6,6-tetramethylpiperidine-1-oxyl; 4-Amino-2,2,6,6-tetramethylpiperidinyloxy, free radical; 4-Amino-TEMPO; [Sigma-Aldrich MSDS]",
        "links": [],
        "cross_references": [
          {
            "type": "name_match",
            "text": "piperidine",
            "confidence": 1.0,
            "uuid": "622e458e-e32f-4d3a-80d2-7455291a8a04",
            "name": "Piperidine",
            "url": "https://haz-map.com/Agents/1427",
            "category": "agents"
          },
          {
            "type": "name_match",
            "text": "tempo",
            "confidence": 1.0,
            "uuid": "55930a45-7786-4f0a-a7e8-bd4064508b68",
            "name": "TEMPO",
            "url": "https://haz-map.com/Agents/17879",
            "category": "agents"
          },
          {
            "type": "name_match",
            "text": "2,2,6,6-tetramethylpiperidine",
            "confidence": 1.0,
            "uuid": "81ae5d78-ff38-490f-a37f-5f043ab8b0c7",
            "name": "2,2,6,6-Tetramethylpiperidine",
            "url": "https://haz-map.com/Agents/19431",
            "category": "agents"
          }
        ]
      },
      "category": {
        "original_name": "Category",
        "value": "Amine Oxides",
        "links": [],
        "cross_references": []
      },
      "description": {
        "original_name": "Description",
        "value": "Red solid; [Sigma-Aldrich MSDS]",
        "links": [],
        "cross_references": []
      },
      "sourcesuses": {
        "original_name": "Sources/Uses",
        "value": "\"An antioxidant with antineoplastic and neuroprotective activities.\" [ChemIDplus]",
        "links": [],
        "cross_references": []
      },
      "comments": {
        "original_name": "Comments",
        "value": "A skin and strong eye irritant; [Sigma-Aldrich MSDS]",
        "links": [],
        "cross_references": []
      },
      "reference_link_1": {
        "original_name": "Reference Link #1",
        "value": "The antioxidant tempamine: in vitro antitumor and neuroprotective effects and optimization of liposomal encapsulation and release.",
        "links": [
          {
            "text": "The antioxidant tempamine: in vitro antitumor and neuroprotective effects and optimization of liposomal encapsulation and release.",
            "url": "http://www.ncbi.nlm.nih.gov/pubmed/17279678"
          }
        ],
        "cross_references": [
          {
            "type": "name_match",
            "text": "tempamine",
            "confidence": 1.0,
            "uuid": "4f0edd51-61c7-4f37-8fa6-790dc83dedfd",
            "name": "Tempamine",
            "url": "https://haz-map.com/Agents/17878",
            "category": "agents"
          }
        ]
      },
      "biomedical_references": {
        "original_name": "Biomedical References",
        "value": "Search PubMed",
        "links": [
          {
            "text": "Search PubMed",
            "url": "https://www.ncbi.nlm.nih.gov/pubmed?term=Tempamine%20AND%20human%5Bmh%5D%20AND%20%28Occupational%20Diseases%20%5Bmh%5D%20OR%20Occupational%20Exposure%20%5Bmh%5D%29%20%20AND%20%28tox%5Bsb%5D%29&cmd=search"
          }
        ],
        "cross_references": []
      }
    },
    "exposure_assessment": {
      "vapor_pressure": {
        "original_name": "Vapor Pressure",
        "value": "5.47E-06 mm Hg",
        "links": [],
        "cross_references": []
      }
    },
    "diseases_processes_and_activities_linked_to_this_agent": {
      "other_information": {
        "original_name": "Other Information",
        "value": "No other related information on this agent was found.",
        "links": [],
        "cross_references": []
      }
    }
  },
  "cross_references": [
    {
      "type": "name_match",
      "text": "nitrogen",
      "confidence": 1.0,
      "uuid": "db5e90a9-06d2-45b9-8b81-f345a89b0bc0",
      "name": "Nitrogen",
      "url": "https://haz-map.com/Agents/1072",
      "category": "agents"
    },
    {
      "type": "name_match",
      "text": "piperidine",
      "confidence": 1.0,
      "uuid": "622e458e-e32f-4d3a-80d2-7455291a8a04",
      "name": "Piperidine",
      "url": "https://haz-map.com/Agents/1427",
      "category": "agents"
    },
    {
      "type": "name_match",
      "text": "tempamine",
      "confidence": 1.0,
      "uuid": "4f0edd51-61c7-4f37-8fa6-790dc83dedfd",
      "name": "Tempamine",
      "url": "https://haz-map.com/Agents/17878",
      "category": "agents"
    },
    {
      "type": "name_match",
      "text": "tempo",
      "confidence": 1.0,
      "uuid": "55930a45-7786-4f0a-a7e8-bd4064508b68",
      "name": "TEMPO",
      "url": "https://haz-map.com/Agents/17879",
      "category": "agents"
    },
    {
      "type": "name_match",
      "text": "2,2,6,6-tetramethylpiperidine",
      "confidence": 1.0,
      "uuid": "81ae5d78-ff38-490f-a37f-5f043ab8b0c7",
      "name": "2,2,6,6-Tetramethylpiperidine",
      "url": "https://haz-map.com/Agents/19431",
      "category": "agents"
    }
  ],
  "all_links": [
    {
      "text": "The antioxidant tempamine: in vitro antitumor and neuroprotective effects and optimization of liposomal encapsulation and release.",
      "url": "http://www.ncbi.nlm.nih.gov/pubmed/17279678"
    },
    {
      "text": "Search PubMed",
      "url": "https://www.ncbi.nlm.nih.gov/pubmed?term=Tempamine%20AND%20human%5Bmh%5D%20AND%20%28Occupational%20Diseases%20%5Bmh%5D%20OR%20Occupational%20Exposure%20%5Bmh%5D%29%20%20AND%20%28tox%5Bsb%5D%29&cmd=search"
    }
  ]
}