{
  "metadata": {
    "scraped_from": "https://haz-map.com/Agents/10650",
    "entity_name": "2,3-Butanediol, 2,3-dimethyl-",
    "category": "agents",
    "uuid": "4f384f44-e3b4-4135-9fa4-dd4d028161e8",
    "scraped_at": "2025-07-23T20:50:35.708976"
  },
  "parsed_at": "2025-07-24T00:51:26.639714",
  "title": "2,3-Butanediol, 2,3-dimethyl-",
  "sections": {
    "general": {
      "agent_name": {
        "original_name": "Agent Name",
        "value": "2,3-Butanediol, 2,3-dimethyl-",
        "links": [],
        "cross_references": [
          {
            "type": "name_match",
            "text": "2,3-butanediol",
            "confidence": 1.0,
            "uuid": "60d705fd-0467-4085-9526-7ca621c24064",
            "name": "2,3-Butanediol",
            "url": "https://haz-map.com/Agents/2960",
            "category": "agents"
          },
          {
            "type": "name_match",
            "text": "2,3-butanediol, 2,3-dimethyl-",
            "confidence": 1.0,
            "uuid": "4f384f44-e3b4-4135-9fa4-dd4d028161e8",
            "name": "2,3-Butanediol, 2,3-dimethyl-",
            "url": "https://haz-map.com/Agents/10650",
            "category": "agents"
          },
          {
            "type": "name_match",
            "text": "butanediol",
            "confidence": 1.0,
            "uuid": "4503a08d-7604-45cb-97d3-9fc34b6475f6",
            "name": "Butanediol",
            "url": "https://haz-map.com/Agents/12518",
            "category": "agents"
          },
          {
            "type": "fuzzy_match",
            "text": "3-butanediol",
            "matched_name": "1,3-Butanediol",
            "confidence": 0.8571428571428571,
            "uuid": "73dddca9-4efd-47d4-8540-75d03ae6f8aa",
            "category": "agents",
            "url": "https://haz-map.com/Agents/2785"
          }
        ]
      },
      "alternative_name": {
        "original_name": "Alternative Name",
        "value": "Pinacol",
        "links": [],
        "cross_references": []
      },
      "cas_number": {
        "original_name": "CAS Number",
        "value": "76-09-5",
        "links": [],
        "cross_references": []
      },
      "formula": {
        "original_name": "Formula",
        "value": "C6-H14-O2",
        "links": [],
        "cross_references": []
      },
      "major_category": {
        "original_name": "Major Category",
        "value": "Other Classes",
        "links": [],
        "cross_references": []
      },
      "synonyms": {
        "original_name": "Synonyms",
        "value": "Pinacol; 1,1,2,2-Tetramethylethylene glycol; 2,3-Dimethyl-2,3-butanediol; Pinacone; Tetramethylethylene glycol; [ChemIDplus]",
        "links": [],
        "cross_references": [
          {
            "type": "name_match",
            "text": "ethylene glycol",
            "confidence": 1.0,
            "uuid": "99589035-d71c-415a-914c-81c7a166be11",
            "name": "Ethylene glycol",
            "url": "https://haz-map.com/Agents/488",
            "category": "agents"
          },
          {
            "type": "name_match",
            "text": "ethylene",
            "confidence": 1.0,
            "uuid": "958eacc0-5135-4b62-bb93-6df972bf552f",
            "name": "Ethylene",
            "url": "https://haz-map.com/Agents/1076",
            "category": "agents"
          },
          {
            "type": "name_match",
            "text": "2,3-butanediol",
            "confidence": 1.0,
            "uuid": "60d705fd-0467-4085-9526-7ca621c24064",
            "name": "2,3-Butanediol",
            "url": "https://haz-map.com/Agents/2960",
            "category": "agents"
          },
          {
            "type": "name_match",
            "text": "butanediol",
            "confidence": 1.0,
            "uuid": "4503a08d-7604-45cb-97d3-9fc34b6475f6",
            "name": "Butanediol",
            "url": "https://haz-map.com/Agents/12518",
            "category": "agents"
          },
          {
            "type": "fuzzy_match",
            "text": "3-butanediol",
            "matched_name": "1,3-Butanediol",
            "confidence": 0.8571428571428571,
            "uuid": "73dddca9-4efd-47d4-8540-75d03ae6f8aa",
            "category": "agents",
            "url": "https://haz-map.com/Agents/2785"
          }
        ]
      },
      "category": {
        "original_name": "Category",
        "value": "Alcohols and Polyols, Other",
        "links": [],
        "cross_references": []
      },
      "description": {
        "original_name": "Description",
        "value": "White crystalline solid; [Alfa Aesar MSDS]",
        "links": [],
        "cross_references": [
          {
            "type": "fuzzy_match",
            "text": "crystalline",
            "matched_name": "Silica, crystalline",
            "confidence": 0.7061403508771931,
            "uuid": "f920e8a2-46df-41b7-af8d-0368a777251e",
            "category": "agents",
            "url": "https://haz-map.com/Agents/427"
          }
        ]
      },
      "comments": {
        "original_name": "Comments",
        "value": "A moderate skin irritant; Causes anticonvulsant behavior in oral lethal-dose studies of mice; [RTECS] A skin and strong eye irritant; [Alfa Aesar MSDS] See \"2,3-Butanediol.\"",
        "links": [],
        "cross_references": [
          {
            "type": "name_match",
            "text": "2,3-butanediol",
            "confidence": 1.0,
            "uuid": "60d705fd-0467-4085-9526-7ca621c24064",
            "name": "2,3-Butanediol",
            "url": "https://haz-map.com/Agents/2960",
            "category": "agents"
          },
          {
            "type": "name_match",
            "text": "butanediol",
            "confidence": 1.0,
            "uuid": "4503a08d-7604-45cb-97d3-9fc34b6475f6",
            "name": "Butanediol",
            "url": "https://haz-map.com/Agents/12518",
            "category": "agents"
          },
          {
            "type": "fuzzy_match",
            "text": "3-butanediol",
            "matched_name": "1,3-Butanediol",
            "confidence": 0.8571428571428571,
            "uuid": "73dddca9-4efd-47d4-8540-75d03ae6f8aa",
            "category": "agents",
            "url": "https://haz-map.com/Agents/2785"
          }
        ]
      },
      "biomedical_references": {
        "original_name": "Biomedical References",
        "value": "Search PubMed",
        "links": [
          {
            "text": "Search PubMed",
            "url": "https://www.ncbi.nlm.nih.gov/pubmed?term=2%2c3-Butanediol%2c+2%2c3-dimethyl-%20AND%20human%5Bmh%5D%20AND%20%28Occupational%20Diseases%20%5Bmh%5D%20OR%20Occupational%20Exposure%20%5Bmh%5D%29%20%20AND%20%28tox%5Bsb%5D%29&cmd=search"
          }
        ],
        "cross_references": []
      }
    },
    "exposure_assessment": {
      "vapor_pressure": {
        "original_name": "Vapor Pressure",
        "value": "0.501 mm Hg",
        "links": [],
        "cross_references": []
      },
      "explanatory_notes": {
        "original_name": "Explanatory Notes",
        "value": "VP from ChemIDplus;",
        "links": [],
        "cross_references": []
      }
    },
    "adverse_effects": {
      "neurotoxin": {
        "original_name": "Neurotoxin",
        "value": "Acute solvent syndrome",
        "links": [],
        "cross_references": []
      }
    },
    "diseases_processes_and_activities_linked_to_this_agent": {
      "diseases": {
        "original_name": "Diseases",
        "value": "Occupational diseases associated with exposure to this agent: Solvents, acute toxic effect",
        "links": [
          {
            "text": "Solvents, acute toxic effect",
            "url": "https://haz-map.com/Diseases/326"
          }
        ],
        "cross_references": [
          {
            "type": "url_match",
            "text": "Solvents, acute toxic effect",
            "url": "https://haz-map.com/Diseases/326",
            "confidence": 1.0,
            "uuid": "581e90e3-9d0c-45f0-aa6c-3468c28da129",
            "name": "Solvents, acute toxic effect",
            "category": "diseases"
          }
        ]
      }
    }
  },
  "cross_references": [
    {
      "type": "url_match",
      "text": "Solvents, acute toxic effect",
      "url": "https://haz-map.com/Diseases/326",
      "confidence": 1.0,
      "uuid": "581e90e3-9d0c-45f0-aa6c-3468c28da129",
      "name": "Solvents, acute toxic effect",
      "category": "diseases"
    },
    {
      "type": "name_match",
      "text": "ethylene glycol",
      "confidence": 1.0,
      "uuid": "99589035-d71c-415a-914c-81c7a166be11",
      "name": "Ethylene glycol",
      "url": "https://haz-map.com/Agents/488",
      "category": "agents"
    },
    {
      "type": "name_match",
      "text": "ethylene",
      "confidence": 1.0,
      "uuid": "958eacc0-5135-4b62-bb93-6df972bf552f",
      "name": "Ethylene",
      "url": "https://haz-map.com/Agents/1076",
      "category": "agents"
    },
    {
      "type": "name_match",
      "text": "2,3-butanediol",
      "confidence": 1.0,
      "uuid": "60d705fd-0467-4085-9526-7ca621c24064",
      "name": "2,3-Butanediol",
      "url": "https://haz-map.com/Agents/2960",
      "category": "agents"
    },
    {
      "type": "name_match",
      "text": "2,3-butanediol, 2,3-dimethyl-",
      "confidence": 1.0,
      "uuid": "4f384f44-e3b4-4135-9fa4-dd4d028161e8",
      "name": "2,3-Butanediol, 2,3-dimethyl-",
      "url": "https://haz-map.com/Agents/10650",
      "category": "agents"
    },
    {
      "type": "name_match",
      "text": "butanediol",
      "confidence": 1.0,
      "uuid": "4503a08d-7604-45cb-97d3-9fc34b6475f6",
      "name": "Butanediol",
      "url": "https://haz-map.com/Agents/12518",
      "category": "agents"
    },
    {
      "type": "fuzzy_match",
      "text": "3-butanediol",
      "matched_name": "1,3-Butanediol",
      "confidence": 0.8571428571428571,
      "uuid": "73dddca9-4efd-47d4-8540-75d03ae6f8aa",
      "category": "agents",
      "url": "https://haz-map.com/Agents/2785"
    },
    {
      "type": "fuzzy_match",
      "text": "crystalline",
      "matched_name": "Silica, crystalline",
      "confidence": 0.7061403508771931,
      "uuid": "f920e8a2-46df-41b7-af8d-0368a777251e",
      "category": "agents",
      "url": "https://haz-map.com/Agents/427"
    }
  ],
  "all_links": [
    {
      "text": "Search PubMed",
      "url": "https://www.ncbi.nlm.nih.gov/pubmed?term=2%2c3-Butanediol%2c+2%2c3-dimethyl-%20AND%20human%5Bmh%5D%20AND%20%28Occupational%20Diseases%20%5Bmh%5D%20OR%20Occupational%20Exposure%20%5Bmh%5D%29%20%20AND%20%28tox%5Bsb%5D%29&cmd=search"
    },
    {
      "text": "Solvents, acute toxic effect",
      "url": "https://haz-map.com/Diseases/326"
    }
  ]
}