{
  "metadata": {
    "scraped_from": "https://haz-map.com/Agents/2635",
    "entity_name": "2,3-Dichloro-1-propene",
    "category": "agents",
    "uuid": "4f4d798c-cf6d-4827-8644-298663ab5749",
    "scraped_at": "2025-07-23T19:16:41.176249"
  },
  "parsed_at": "2025-07-24T00:54:29.747689",
  "title": "2,3-Dichloro-1-propene",
  "sections": {
    "general": {
      "agent_name": {
        "original_name": "Agent Name",
        "value": "2,3-Dichloro-1-propene",
        "links": [],
        "cross_references": [
          {
            "type": "name_match",
            "text": "2,3-dichloro-1-propene",
            "confidence": 1.0,
            "uuid": "4f4d798c-cf6d-4827-8644-298663ab5749",
            "name": "2,3-Dichloro-1-propene",
            "url": "https://haz-map.com/Agents/2635",
            "category": "agents"
          }
        ]
      },
      "cas_number": {
        "original_name": "CAS Number",
        "value": "78-88-6",
        "links": [],
        "cross_references": []
      },
      "formula": {
        "original_name": "Formula",
        "value": "C3-H4-Cl2",
        "links": [],
        "cross_references": []
      },
      "major_category": {
        "original_name": "Major Category",
        "value": "Other Classes",
        "links": [],
        "cross_references": []
      },
      "synonyms": {
        "original_name": "Synonyms",
        "value": "1,2-Dichloro-2-propene; 1-Propene, 2,3-dichloro-; 2,3-Dichloro-1-propene; 2,3-Dichloropropylene; 2-Chloroallyl chloride; Propene, 2,3-dichloro-; Propylene, 2,3-dichloro; [ChemIDplus] UN2047",
        "links": [],
        "cross_references": [
          {
            "type": "name_match",
            "text": "allyl chloride",
            "confidence": 1.0,
            "uuid": "159ace2f-3188-475b-894e-f4ce12bc235b",
            "name": "Allyl chloride",
            "url": "https://haz-map.com/Agents/284",
            "category": "agents"
          },
          {
            "type": "name_match",
            "text": "propylene",
            "confidence": 1.0,
            "uuid": "78ac73a1-0029-4a50-b283-561134c72041",
            "name": "Propylene",
            "url": "https://haz-map.com/Agents/1078",
            "category": "agents"
          },
          {
            "type": "name_match",
            "text": "2,3-dichloro-1-propene",
            "confidence": 1.0,
            "uuid": "4f4d798c-cf6d-4827-8644-298663ab5749",
            "name": "2,3-Dichloro-1-propene",
            "url": "https://haz-map.com/Agents/2635",
            "category": "agents"
          }
        ]
      },
      "category": {
        "original_name": "Category",
        "value": "Halogenated Aliphatics, Unsaturated",
        "links": [],
        "cross_references": []
      },
      "description": {
        "original_name": "Description",
        "value": "Straw-colored liquid with odor like chloroform; [HSDB]",
        "links": [],
        "cross_references": [
          {
            "type": "name_match",
            "text": "chloroform",
            "confidence": 1.0,
            "uuid": "c05794fb-7374-465e-8219-dc071fdda4a7",
            "name": "Chloroform",
            "url": "https://haz-map.com/Agents/53",
            "category": "agents"
          }
        ]
      },
      "sourcesuses": {
        "original_name": "Sources/Uses",
        "value": "Soil fumigant; [ChemIDplus] A copolymer and chemical intermediate in agricultural and pharmaceutical products; [HSDB]",
        "links": [],
        "cross_references": [
          {
            "type": "name_match",
            "text": "mica",
            "confidence": 1.0,
            "uuid": "433f26f1-c399-4596-b179-ce3843cfd465",
            "name": "Mica",
            "url": "https://haz-map.com/Agents/621",
            "category": "agents"
          }
        ]
      },
      "comments": {
        "original_name": "Comments",
        "value": "A strong skin, eye, and respiratory tract irritant; [HSDB] Hazardous by inhalation, ingestion and skin absorption; May cause kidney and liver injury; A lachrymator that can also cause transient corneal injury; [CAMEO] Harmful by inhalation, skin contact, and ingestion; An irritant; May cause eye damage; [MSDSonline]",
        "links": [],
        "cross_references": []
      },
      "biomedical_references": {
        "original_name": "Biomedical References",
        "value": "Search PubMed",
        "links": [
          {
            "text": "Search PubMed",
            "url": "https://www.ncbi.nlm.nih.gov/pubmed?term=2%2c3-Dichloro-1-propene%20AND%20human%5Bmh%5D%20AND%20%28Occupational%20Diseases%20%5Bmh%5D%20OR%20Occupational%20Exposure%20%5Bmh%5D%29%20%20AND%20%28tox%5Bsb%5D%29&cmd=search"
          }
        ],
        "cross_references": []
      }
    },
    "exposure_assessment": {
      "vapor_pressure": {
        "original_name": "Vapor Pressure",
        "value": "61.2 mm Hg",
        "links": [],
        "cross_references": []
      },
      "lethal_concentration": {
        "original_name": "Lethal Concentration",
        "value": "LCLo (rat) = 500 ppm/4h",
        "links": [],
        "cross_references": []
      },
      "explanatory_notes": {
        "original_name": "Explanatory Notes",
        "value": "Flash point = 15 deg C; [HSDB]",
        "links": [],
        "cross_references": [
          {
            "type": "name_match",
            "text": "ash",
            "confidence": 1.0,
            "uuid": "68b360f1-5ad0-4337-bea0-d7adca2961b5",
            "name": "Ash",
            "url": "https://haz-map.com/Agents/965",
            "category": "agents"
          }
        ]
      },
      "nfpa": {
        "original_name": "NFPA",
        "value": "may ignite at ambient temp",
        "links": [],
        "cross_references": []
      }
    },
    "adverse_effects": {
      "lachrymator": {
        "original_name": "Lachrymator",
        "value": "Yes",
        "links": [],
        "cross_references": []
      },
      "toxic_pneumonitis": {
        "original_name": "Toxic Pneumonitis",
        "value": "Yes",
        "links": [],
        "cross_references": []
      },
      "hepatotoxin": {
        "original_name": "Hepatotoxin",
        "value": "Hepatoxic (a) from occupational exposure (secondary effect) or (b) in animal studies or in humans after ingestion",
        "links": [],
        "cross_references": []
      },
      "dermatotoxin": {
        "original_name": "Dermatotoxin",
        "value": "Skin burns",
        "links": [],
        "cross_references": [
          {
            "type": "name_match",
            "text": "burn",
            "confidence": 1.0,
            "uuid": "63665de5-6376-4918-8dbf-4c10c4d63837",
            "name": "burn",
            "url": "https://haz-map.com/Findings/204",
            "category": "findings"
          }
        ]
      }
    },
    "diseases_processes_and_activities_linked_to_this_agent": {
      "processes": {
        "original_name": "Processes",
        "value": "Industrial Processes with risk of exposure: Farming (Pesticides)",
        "links": [
          {
            "text": "Farming (Pesticides)",
            "url": "https://haz-map.com/Processes/218"
          }
        ],
        "cross_references": [
          {
            "type": "url_match",
            "text": "Farming (Pesticides)",
            "url": "https://haz-map.com/Processes/218",
            "confidence": 1.0,
            "uuid": "cf1e5815-c9bb-4917-82a5-391848170b7e",
            "name": "Farming (Pesticides)",
            "category": "processes"
          }
        ]
      }
    }
  },
  "cross_references": [
    {
      "type": "url_match",
      "text": "Farming (Pesticides)",
      "url": "https://haz-map.com/Processes/218",
      "confidence": 1.0,
      "uuid": "cf1e5815-c9bb-4917-82a5-391848170b7e",
      "name": "Farming (Pesticides)",
      "category": "processes"
    },
    {
      "type": "name_match",
      "text": "burn",
      "confidence": 1.0,
      "uuid": "63665de5-6376-4918-8dbf-4c10c4d63837",
      "name": "burn",
      "url": "https://haz-map.com/Findings/204",
      "category": "findings"
    },
    {
      "type": "name_match",
      "text": "chloroform",
      "confidence": 1.0,
      "uuid": "c05794fb-7374-465e-8219-dc071fdda4a7",
      "name": "Chloroform",
      "url": "https://haz-map.com/Agents/53",
      "category": "agents"
    },
    {
      "type": "name_match",
      "text": "allyl chloride",
      "confidence": 1.0,
      "uuid": "159ace2f-3188-475b-894e-f4ce12bc235b",
      "name": "Allyl chloride",
      "url": "https://haz-map.com/Agents/284",
      "category": "agents"
    },
    {
      "type": "name_match",
      "text": "mica",
      "confidence": 1.0,
      "uuid": "433f26f1-c399-4596-b179-ce3843cfd465",
      "name": "Mica",
      "url": "https://haz-map.com/Agents/621",
      "category": "agents"
    },
    {
      "type": "name_match",
      "text": "ash",
      "confidence": 1.0,
      "uuid": "68b360f1-5ad0-4337-bea0-d7adca2961b5",
      "name": "Ash",
      "url": "https://haz-map.com/Agents/965",
      "category": "agents"
    },
    {
      "type": "name_match",
      "text": "propylene",
      "confidence": 1.0,
      "uuid": "78ac73a1-0029-4a50-b283-561134c72041",
      "name": "Propylene",
      "url": "https://haz-map.com/Agents/1078",
      "category": "agents"
    },
    {
      "type": "name_match",
      "text": "2,3-dichloro-1-propene",
      "confidence": 1.0,
      "uuid": "4f4d798c-cf6d-4827-8644-298663ab5749",
      "name": "2,3-Dichloro-1-propene",
      "url": "https://haz-map.com/Agents/2635",
      "category": "agents"
    }
  ],
  "all_links": [
    {
      "text": "Search PubMed",
      "url": "https://www.ncbi.nlm.nih.gov/pubmed?term=2%2c3-Dichloro-1-propene%20AND%20human%5Bmh%5D%20AND%20%28Occupational%20Diseases%20%5Bmh%5D%20OR%20Occupational%20Exposure%20%5Bmh%5D%29%20%20AND%20%28tox%5Bsb%5D%29&cmd=search"
    },
    {
      "text": "Farming (Pesticides)",
      "url": "https://haz-map.com/Processes/218"
    }
  ]
}