{
  "metadata": {
    "scraped_from": "https://haz-map.com/Agents/5944",
    "entity_name": "Menthone",
    "category": "agents",
    "uuid": "4f7f5875-9300-4269-9d39-5474f0993ea0",
    "scraped_at": "2025-07-23T19:57:12.452673"
  },
  "parsed_at": "2025-07-24T01:00:40.366791",
  "title": "Menthone",
  "sections": {
    "general": {
      "agent_name": {
        "original_name": "Agent Name",
        "value": "Menthone",
        "links": [],
        "cross_references": [
          {
            "type": "name_match",
            "text": "menthone",
            "confidence": 1.0,
            "uuid": "4f7f5875-9300-4269-9d39-5474f0993ea0",
            "name": "Menthone",
            "url": "https://haz-map.com/Agents/5944",
            "category": "agents"
          }
        ]
      },
      "cas_number": {
        "original_name": "CAS Number",
        "value": "89-80-5",
        "links": [],
        "cross_references": []
      },
      "formula": {
        "original_name": "Formula",
        "value": "C10-H18-O",
        "links": [],
        "cross_references": []
      },
      "major_category": {
        "original_name": "Major Category",
        "value": "Biological Agents",
        "links": [],
        "cross_references": []
      },
      "synonyms": {
        "original_name": "Synonyms",
        "value": "5-Methyl-2-(1-methylethyl)cyclohexanone, trans-; Cyclohexanone, 5-methyl-2-(1-methylethyl)-, trans-; Menthone (natural); Neomenthone; p-Menthan-3-one, trans-; p-Menthone; trans-Menthan-3-one; [ChemIDplus]",
        "links": [],
        "cross_references": [
          {
            "type": "name_match",
            "text": "cyclohexanone",
            "confidence": 1.0,
            "uuid": "cadadacc-fd16-4dd4-9b2c-b1d70f77d75e",
            "name": "Cyclohexanone",
            "url": "https://haz-map.com/Agents/139",
            "category": "agents"
          },
          {
            "type": "name_match",
            "text": "menthone",
            "confidence": 1.0,
            "uuid": "4f7f5875-9300-4269-9d39-5474f0993ea0",
            "name": "Menthone",
            "url": "https://haz-map.com/Agents/5944",
            "category": "agents"
          }
        ]
      },
      "category": {
        "original_name": "Category",
        "value": "Plant Oils and Extracts",
        "links": [],
        "cross_references": []
      },
      "description": {
        "original_name": "Description",
        "value": "Colorless liquid with a mild odor of peppermint; [Hawley]",
        "links": [],
        "cross_references": []
      },
      "sourcesuses": {
        "original_name": "Sources/Uses",
        "value": "Ketone present in peppermint oil; [Hawley] Used in perfumes and flavorings; [HSDB] Peppermint oil contains menthol, menthone, and more than 30 other chemicals. It is widely used as a flavoring agent and herbal remedy. [Haddad, p. 1439]",
        "links": [],
        "cross_references": [
          {
            "type": "name_match",
            "text": "mica",
            "confidence": 1.0,
            "uuid": "433f26f1-c399-4596-b179-ce3843cfd465",
            "name": "Mica",
            "url": "https://haz-map.com/Agents/621",
            "category": "agents"
          },
          {
            "type": "name_match",
            "text": "menthol",
            "confidence": 1.0,
            "uuid": "3997b2ab-a5d2-4a7e-a2c6-4a1ad2e57b50",
            "name": "Menthol",
            "url": "https://haz-map.com/Agents/5943",
            "category": "agents"
          },
          {
            "type": "name_match",
            "text": "menthone",
            "confidence": 1.0,
            "uuid": "4f7f5875-9300-4269-9d39-5474f0993ea0",
            "name": "Menthone",
            "url": "https://haz-map.com/Agents/5944",
            "category": "agents"
          }
        ]
      },
      "comments": {
        "original_name": "Comments",
        "value": "Emergency treatment: \"Peppermint oil\"; A mild skin irritant in rabbits; After oral dosing at 400-800 mg/kg/day for 28 days, rats have liver and kidney dysfunction and histopathological cysts in the white matter of the cerebellum; [HSDB] Peppermint oil causes CNS depression and hypothermia in rat feeding studies; [Haddad, p. 1439] Safe when used as a flavoring agent in food; [JECFA]",
        "links": [],
        "cross_references": []
      },
      "biomedical_references": {
        "original_name": "Biomedical References",
        "value": "Search PubMed",
        "links": [
          {
            "text": "Search PubMed",
            "url": "https://www.ncbi.nlm.nih.gov/pubmed?term=Menthone%20AND%20human%5Bmh%5D%20AND%20%28Occupational%20Diseases%20%5Bmh%5D%20OR%20Occupational%20Exposure%20%5Bmh%5D%29%20%20AND%20%28tox%5Bsb%5D%29&cmd=search"
          }
        ],
        "cross_references": []
      }
    },
    "exposure_assessment": {
      "vapor_pressure": {
        "original_name": "Vapor Pressure",
        "value": "0.278 mm Hg",
        "links": [],
        "cross_references": []
      }
    },
    "adverse_effects": {
      "neurotoxin": {
        "original_name": "Neurotoxin",
        "value": "Other CNS neurotoxin",
        "links": [],
        "cross_references": []
      },
      "hepatotoxin": {
        "original_name": "Hepatotoxin",
        "value": "Hepatoxic (a) from occupational exposure (secondary effect) or (b) in animal studies or in humans after ingestion",
        "links": [],
        "cross_references": []
      }
    },
    "diseases_processes_and_activities_linked_to_this_agent": {
      "other_information": {
        "original_name": "Other Information",
        "value": "No other related information on this agent was found.",
        "links": [],
        "cross_references": []
      }
    }
  },
  "cross_references": [
    {
      "type": "name_match",
      "text": "cyclohexanone",
      "confidence": 1.0,
      "uuid": "cadadacc-fd16-4dd4-9b2c-b1d70f77d75e",
      "name": "Cyclohexanone",
      "url": "https://haz-map.com/Agents/139",
      "category": "agents"
    },
    {
      "type": "name_match",
      "text": "mica",
      "confidence": 1.0,
      "uuid": "433f26f1-c399-4596-b179-ce3843cfd465",
      "name": "Mica",
      "url": "https://haz-map.com/Agents/621",
      "category": "agents"
    },
    {
      "type": "name_match",
      "text": "menthol",
      "confidence": 1.0,
      "uuid": "3997b2ab-a5d2-4a7e-a2c6-4a1ad2e57b50",
      "name": "Menthol",
      "url": "https://haz-map.com/Agents/5943",
      "category": "agents"
    },
    {
      "type": "name_match",
      "text": "menthone",
      "confidence": 1.0,
      "uuid": "4f7f5875-9300-4269-9d39-5474f0993ea0",
      "name": "Menthone",
      "url": "https://haz-map.com/Agents/5944",
      "category": "agents"
    }
  ],
  "all_links": [
    {
      "text": "Search PubMed",
      "url": "https://www.ncbi.nlm.nih.gov/pubmed?term=Menthone%20AND%20human%5Bmh%5D%20AND%20%28Occupational%20Diseases%20%5Bmh%5D%20OR%20Occupational%20Exposure%20%5Bmh%5D%29%20%20AND%20%28tox%5Bsb%5D%29&cmd=search"
    }
  ]
}