{
  "metadata": {
    "scraped_from": "https://haz-map.com/Agents/16332",
    "entity_name": "Oxytetracycline",
    "category": "agents",
    "uuid": "4fa0f190-196f-4240-aa4f-1756254fd9af",
    "scraped_at": "2025-07-23T21:36:38.303520"
  },
  "parsed_at": "2025-07-24T01:15:31.603224",
  "title": "Oxytetracycline",
  "sections": {
    "general": {
      "agent_name": {
        "original_name": "Agent Name",
        "value": "Oxytetracycline",
        "links": [],
        "cross_references": [
          {
            "type": "name_match",
            "text": "tetracycline",
            "confidence": 1.0,
            "uuid": "b36f2881-4126-4eeb-aa28-077201a4e8e8",
            "name": "Tetracycline",
            "url": "https://haz-map.com/Agents/1298",
            "category": "agents"
          },
          {
            "type": "name_match",
            "text": "oxytetracycline",
            "confidence": 1.0,
            "uuid": "4fa0f190-196f-4240-aa4f-1756254fd9af",
            "name": "Oxytetracycline",
            "url": "https://haz-map.com/Agents/16332",
            "category": "agents"
          }
        ]
      },
      "cas_number": {
        "original_name": "CAS Number",
        "value": "79-57-2",
        "links": [],
        "cross_references": []
      },
      "formula": {
        "original_name": "Formula",
        "value": "C22-H24-N2-O9",
        "links": [],
        "cross_references": []
      },
      "major_category": {
        "original_name": "Major Category",
        "value": "Other Uses",
        "links": [],
        "cross_references": []
      },
      "synonyms": {
        "original_name": "Synonyms",
        "value": "Oxytetracycline (anhydrous); 2-Naphthacenecarboxamide, 4-(dimethylamino)-1,4,4a,5,5a,6,11,12a-octahydro-3,5,6,10,12,12a-hexahydroxy-6-methyl-1,11-dioxo-; 5-Hydroxytetracycline; Adamycin; Antibiotic TM 25; Berkmycen; Biostat; Biostat PA; Dabicycline; Fanterrin; Geomycin; Geomycin (Streptomyces vimosus); Geotilin; Imperacin; LA 200; Lenocycline; Liquamycin; Liquamycin LA 200; Macocyn; Mycoshield TMQTHC 20; OTC; OTC (antibiotic); Oksisyklin; Ossitetraciclina [DCIT]; Oxitetraciclina [INN-Spanish]; Oxitetracyclin; Oxitetracyclinum; Oxy-kesso-tetra; Oxymycin; Oxymykoin; Oxypam; Oxysteclin; Oxyterracin; Oxyterracine; Oxyterracyne; Oxytetracyclin; Oxytetracycline amphoteric; Oxytetracyclinum [INN-Latin]; Pennox 200; Proteroxyna; Riomitsin; Ryomycin; Solkaciclina; Stevacin; Tarocyn; Tarosin; Teravit; Terrafungine; Terramicina Oftalmica; Terramitsin; Terramycin; Terramycin Q50; Terramycin im; Tetrachel; Tetracycline, 5-hydroxy-; Tetran; Ursocyclin; Ursocycline; Vendarcin; 2-Naphthacenecarboxamide, 4-(dimethylamino)-1,4,4a,5,5a,6,11,12a-octahydro-3,5,6,10,12,12a-hexahydroxy-6-methyl-1,11-dioxo-, (4S,4aR,5S,5aR,6S,12aS)-; 2-Naphthacenecarboxamide, 4-(dimethylamino)-1,4,4a,5,5a,6,11,12a-octahydro-3,5,6,10,12,12a-hexahydroxy-6-methyl-1,11-dioxo-, (4S-(4alpha,4aalpha,5alpha,5aalpha,6beta,12aalpha))-; [ChemIDplus] (4S,4alphaR,5S,5aR,6S,12aalphaS)-4-(Dimethylamino)-1,4,4a,5,5a,6,11,12a-octahydro-3,5,6,10,12,12a-hexahydroxy-6-methyl-1,11-dioxo-2-naphthacenecarboxamide; Glomycin; Hydroxytetracycline; [Merck Index]",
        "links": [],
        "cross_references": [
          {
            "type": "name_match",
            "text": "mica",
            "confidence": 1.0,
            "uuid": "433f26f1-c399-4596-b179-ce3843cfd465",
            "name": "Mica",
            "url": "https://haz-map.com/Agents/621",
            "category": "agents"
          },
          {
            "type": "name_match",
            "text": "tetracycline",
            "confidence": 1.0,
            "uuid": "b36f2881-4126-4eeb-aa28-077201a4e8e8",
            "name": "Tetracycline",
            "url": "https://haz-map.com/Agents/1298",
            "category": "agents"
          },
          {
            "type": "name_match",
            "text": "naphthacene",
            "confidence": 1.0,
            "uuid": "45a773c8-c389-455d-96fd-2d083aa24b86",
            "name": "Naphthacene",
            "url": "https://haz-map.com/Agents/1937",
            "category": "agents"
          },
          {
            "type": "name_match",
            "text": "fungi",
            "confidence": 1.0,
            "uuid": "e0d489cb-bfee-4aee-b665-999c017268a2",
            "name": "Fungi",
            "url": "https://haz-map.com/Agents/1988",
            "category": "agents"
          },
          {
            "type": "name_match",
            "text": "ht",
            "confidence": 1.0,
            "uuid": "764df367-8d53-4a11-81a2-31ccfe122a8d",
            "name": "HT",
            "url": "https://haz-map.com/Agents/2168",
            "category": "agents"
          },
          {
            "type": "name_match",
            "text": "oxamide",
            "confidence": 1.0,
            "uuid": "3b911451-e34f-4ab7-9228-2919a8e1aad5",
            "name": "Oxamide",
            "url": "https://haz-map.com/Agents/16307",
            "category": "agents"
          },
          {
            "type": "name_match",
            "text": "oxytetracycline",
            "confidence": 1.0,
            "uuid": "4fa0f190-196f-4240-aa4f-1756254fd9af",
            "name": "Oxytetracycline",
            "url": "https://haz-map.com/Agents/16332",
            "category": "agents"
          }
        ]
      },
      "category": {
        "original_name": "Category",
        "value": "Pharmaceuticals",
        "links": [],
        "cross_references": [
          {
            "type": "name_match",
            "text": "pharmaceuticals",
            "confidence": 1.0,
            "uuid": "713c3c30-b67e-4a2f-a90f-b32f8a306332",
            "name": "PHARMACEUTICALS",
            "url": "https://haz-map.com/Agents/1000",
            "category": "agents"
          }
        ]
      },
      "description": {
        "original_name": "Description",
        "value": "Light yellow to tan solid; [HSDB] Pale yellow to tan crystalline powder; [Acros Organics MSDS]",
        "links": [],
        "cross_references": [
          {
            "type": "name_match",
            "text": "ht",
            "confidence": 1.0,
            "uuid": "764df367-8d53-4a11-81a2-31ccfe122a8d",
            "name": "HT",
            "url": "https://haz-map.com/Agents/2168",
            "category": "agents"
          },
          {
            "type": "fuzzy_match",
            "text": "crystalline",
            "matched_name": "Silica, crystalline",
            "confidence": 0.7061403508771931,
            "uuid": "f920e8a2-46df-41b7-af8d-0368a777251e",
            "category": "agents",
            "url": "https://haz-map.com/Agents/427"
          }
        ]
      },
      "sourcesuses": {
        "original_name": "Sources/Uses",
        "value": "Used as an antibiotic and to treat lethal yellowing in palm trees; [Merck Index] The calcium and monohydrochloride salts are registered for use to control fire blight of pears, pear decline, bacterial spot on peaches and nectarines, lethal yellowing of coconut palm, lethal decline of pritchardia palm, and as an antifoulant in marine paints; Oxytetracycline is no longer registered for use in the US; [Reference #1] Used as an antibacterial in fish and lobster aquaculture, as a dye to mark fish in aquaculture, as a feed additive for chicken, turkey, and swine, in agriculture, and as a human and veterinary medication; [HSDB]",
        "links": [],
        "cross_references": [
          {
            "type": "name_match",
            "text": "tetracycline",
            "confidence": 1.0,
            "uuid": "b36f2881-4126-4eeb-aa28-077201a4e8e8",
            "name": "Tetracycline",
            "url": "https://haz-map.com/Agents/1298",
            "category": "agents"
          },
          {
            "type": "name_match",
            "text": "calcium",
            "confidence": 1.0,
            "uuid": "1e5baf77-7a7a-476b-84c6-5b1ea504c5fc",
            "name": "Calcium",
            "url": "https://haz-map.com/Agents/1994",
            "category": "agents"
          },
          {
            "type": "name_match",
            "text": "ht",
            "confidence": 1.0,
            "uuid": "764df367-8d53-4a11-81a2-31ccfe122a8d",
            "name": "HT",
            "url": "https://haz-map.com/Agents/2168",
            "category": "agents"
          },
          {
            "type": "name_match",
            "text": "oxytetracycline",
            "confidence": 1.0,
            "uuid": "4fa0f190-196f-4240-aa4f-1756254fd9af",
            "name": "Oxytetracycline",
            "url": "https://haz-map.com/Agents/16332",
            "category": "agents"
          }
        ]
      },
      "comments": {
        "original_name": "Comments",
        "value": "May cause irritation; Chronic exposure may cause blood, reproductive, and fetal effects; [Acros Organics MSDS] See \"Tetracycline.\"",
        "links": [],
        "cross_references": [
          {
            "type": "name_match",
            "text": "tetracycline",
            "confidence": 1.0,
            "uuid": "b36f2881-4126-4eeb-aa28-077201a4e8e8",
            "name": "Tetracycline",
            "url": "https://haz-map.com/Agents/1298",
            "category": "agents"
          }
        ]
      },
      "reference_link_1": {
        "original_name": "Reference Link #1",
        "value": "EPA Pesticide Chemical Search",
        "links": [
          {
            "text": "EPA Pesticide Chemical Search",
            "url": "https://iaspub.epa.gov/apex/pesticides/f?p=CHEMICALSEARCH:1:"
          }
        ],
        "cross_references": [
          {
            "type": "name_match",
            "text": "mica",
            "confidence": 1.0,
            "uuid": "433f26f1-c399-4596-b179-ce3843cfd465",
            "name": "Mica",
            "url": "https://haz-map.com/Agents/621",
            "category": "agents"
          }
        ]
      },
      "biomedical_references": {
        "original_name": "Biomedical References",
        "value": "Search PubMed",
        "links": [
          {
            "text": "Search PubMed",
            "url": "https://www.ncbi.nlm.nih.gov/pubmed?term=Oxytetracycline%20AND%20human%5Bmh%5D%20AND%20%28Occupational%20Diseases%20%5Bmh%5D%20OR%20Occupational%20Exposure%20%5Bmh%5D%29%20%20AND%20%28tox%5Bsb%5D%29&cmd=search"
          }
        ],
        "cross_references": []
      }
    },
    "exposure_assessment": {
      "vapor_pressure": {
        "original_name": "Vapor Pressure",
        "value": "9.68E-25 mm Hg",
        "links": [],
        "cross_references": []
      }
    },
    "diseases_processes_and_activities_linked_to_this_agent": {
      "processes": {
        "original_name": "Processes",
        "value": "Industrial Processes with risk of exposure: Farming (Feed Additives) Farming (Pesticides) Painting (Pigments, Binders, and Biocides)",
        "links": [
          {
            "text": "Farming (Feed Additives)",
            "url": "https://haz-map.com/Processes/262"
          },
          {
            "text": "Farming (Pesticides)",
            "url": "https://haz-map.com/Processes/218"
          },
          {
            "text": "Painting (Pigments, Binders, and Biocides)",
            "url": "https://haz-map.com/Processes/145"
          }
        ],
        "cross_references": [
          {
            "type": "url_match",
            "text": "Farming (Pesticides)",
            "url": "https://haz-map.com/Processes/218",
            "confidence": 1.0,
            "uuid": "cf1e5815-c9bb-4917-82a5-391848170b7e",
            "name": "Farming (Pesticides)",
            "category": "processes"
          },
          {
            "type": "url_match",
            "text": "Painting (Pigments, Binders, and Biocides)",
            "url": "https://haz-map.com/Processes/145",
            "confidence": 1.0,
            "uuid": "25867878-e178-4c21-906f-d392d86b76de",
            "name": "Painting (Pigments, Binders, and Biocides)",
            "category": "processes"
          },
          {
            "type": "name_match",
            "text": "painting",
            "confidence": 1.0,
            "uuid": "19816ce9-9edf-4a86-8e64-b0cbf7dcf520",
            "name": "Painting",
            "url": "https://haz-map.com/Activities/9",
            "category": "activities"
          }
        ]
      }
    }
  },
  "cross_references": [
    {
      "type": "url_match",
      "text": "Farming (Pesticides)",
      "url": "https://haz-map.com/Processes/218",
      "confidence": 1.0,
      "uuid": "cf1e5815-c9bb-4917-82a5-391848170b7e",
      "name": "Farming (Pesticides)",
      "category": "processes"
    },
    {
      "type": "url_match",
      "text": "Painting (Pigments, Binders, and Biocides)",
      "url": "https://haz-map.com/Processes/145",
      "confidence": 1.0,
      "uuid": "25867878-e178-4c21-906f-d392d86b76de",
      "name": "Painting (Pigments, Binders, and Biocides)",
      "category": "processes"
    },
    {
      "type": "name_match",
      "text": "painting",
      "confidence": 1.0,
      "uuid": "19816ce9-9edf-4a86-8e64-b0cbf7dcf520",
      "name": "Painting",
      "url": "https://haz-map.com/Activities/9",
      "category": "activities"
    },
    {
      "type": "name_match",
      "text": "mica",
      "confidence": 1.0,
      "uuid": "433f26f1-c399-4596-b179-ce3843cfd465",
      "name": "Mica",
      "url": "https://haz-map.com/Agents/621",
      "category": "agents"
    },
    {
      "type": "name_match",
      "text": "pharmaceuticals",
      "confidence": 1.0,
      "uuid": "713c3c30-b67e-4a2f-a90f-b32f8a306332",
      "name": "PHARMACEUTICALS",
      "url": "https://haz-map.com/Agents/1000",
      "category": "agents"
    },
    {
      "type": "name_match",
      "text": "tetracycline",
      "confidence": 1.0,
      "uuid": "b36f2881-4126-4eeb-aa28-077201a4e8e8",
      "name": "Tetracycline",
      "url": "https://haz-map.com/Agents/1298",
      "category": "agents"
    },
    {
      "type": "name_match",
      "text": "naphthacene",
      "confidence": 1.0,
      "uuid": "45a773c8-c389-455d-96fd-2d083aa24b86",
      "name": "Naphthacene",
      "url": "https://haz-map.com/Agents/1937",
      "category": "agents"
    },
    {
      "type": "name_match",
      "text": "fungi",
      "confidence": 1.0,
      "uuid": "e0d489cb-bfee-4aee-b665-999c017268a2",
      "name": "Fungi",
      "url": "https://haz-map.com/Agents/1988",
      "category": "agents"
    },
    {
      "type": "name_match",
      "text": "calcium",
      "confidence": 1.0,
      "uuid": "1e5baf77-7a7a-476b-84c6-5b1ea504c5fc",
      "name": "Calcium",
      "url": "https://haz-map.com/Agents/1994",
      "category": "agents"
    },
    {
      "type": "name_match",
      "text": "ht",
      "confidence": 1.0,
      "uuid": "764df367-8d53-4a11-81a2-31ccfe122a8d",
      "name": "HT",
      "url": "https://haz-map.com/Agents/2168",
      "category": "agents"
    },
    {
      "type": "name_match",
      "text": "oxamide",
      "confidence": 1.0,
      "uuid": "3b911451-e34f-4ab7-9228-2919a8e1aad5",
      "name": "Oxamide",
      "url": "https://haz-map.com/Agents/16307",
      "category": "agents"
    },
    {
      "type": "name_match",
      "text": "oxytetracycline",
      "confidence": 1.0,
      "uuid": "4fa0f190-196f-4240-aa4f-1756254fd9af",
      "name": "Oxytetracycline",
      "url": "https://haz-map.com/Agents/16332",
      "category": "agents"
    },
    {
      "type": "fuzzy_match",
      "text": "crystalline",
      "matched_name": "Silica, crystalline",
      "confidence": 0.7061403508771931,
      "uuid": "f920e8a2-46df-41b7-af8d-0368a777251e",
      "category": "agents",
      "url": "https://haz-map.com/Agents/427"
    }
  ],
  "all_links": [
    {
      "text": "EPA Pesticide Chemical Search",
      "url": "https://iaspub.epa.gov/apex/pesticides/f?p=CHEMICALSEARCH:1:"
    },
    {
      "text": "Search PubMed",
      "url": "https://www.ncbi.nlm.nih.gov/pubmed?term=Oxytetracycline%20AND%20human%5Bmh%5D%20AND%20%28Occupational%20Diseases%20%5Bmh%5D%20OR%20Occupational%20Exposure%20%5Bmh%5D%29%20%20AND%20%28tox%5Bsb%5D%29&cmd=search"
    },
    {
      "text": "Farming (Feed Additives)",
      "url": "https://haz-map.com/Processes/262"
    },
    {
      "text": "Farming (Pesticides)",
      "url": "https://haz-map.com/Processes/218"
    },
    {
      "text": "Painting (Pigments, Binders, and Biocides)",
      "url": "https://haz-map.com/Processes/145"
    }
  ]
}