{
  "metadata": {
    "scraped_from": "https://haz-map.com/Agents/6243",
    "entity_name": "N-Methoxymethylamine",
    "category": "agents",
    "uuid": "4fa8d760-74a7-4b9d-9c99-a861a9b60b3d",
    "scraped_at": "2025-07-23T20:00:05.520886"
  },
  "parsed_at": "2025-07-24T00:55:06.499838",
  "title": "N-Methoxymethylamine",
  "sections": {
    "general": {
      "agent_name": {
        "original_name": "Agent Name",
        "value": "N-Methoxymethylamine",
        "links": [],
        "cross_references": [
          {
            "type": "name_match",
            "text": "methylamine",
            "confidence": 1.0,
            "uuid": "7c3781b5-5294-474a-a015-e59574d00b69",
            "name": "Methylamine",
            "url": "https://haz-map.com/Agents/217",
            "category": "agents"
          },
          {
            "type": "name_match",
            "text": "ethylamine",
            "confidence": 1.0,
            "uuid": "41ca4da8-b990-420a-86b2-3d77404fb7f4",
            "name": "Ethylamine",
            "url": "https://haz-map.com/Agents/220",
            "category": "agents"
          },
          {
            "type": "name_match",
            "text": "n-methoxymethylamine",
            "confidence": 1.0,
            "uuid": "4fa8d760-74a7-4b9d-9c99-a861a9b60b3d",
            "name": "N-Methoxymethylamine",
            "url": "https://haz-map.com/Agents/6243",
            "category": "agents"
          }
        ]
      },
      "cas_number": {
        "original_name": "CAS Number",
        "value": "1117-97-1",
        "links": [],
        "cross_references": []
      },
      "formula": {
        "original_name": "Formula",
        "value": "C2-H7-N-O",
        "links": [],
        "cross_references": []
      },
      "major_category": {
        "original_name": "Major Category",
        "value": "Nitrogen Compounds",
        "links": [],
        "cross_references": [
          {
            "type": "name_match",
            "text": "nitrogen",
            "confidence": 1.0,
            "uuid": "db5e90a9-06d2-45b9-8b81-f345a89b0bc0",
            "name": "Nitrogen",
            "url": "https://haz-map.com/Agents/1072",
            "category": "agents"
          }
        ]
      },
      "synonyms": {
        "original_name": "Synonyms",
        "value": "Hydroxylamine, N,O-dimethyl-; Methanamine, N-methoxy-; Methoxyamine, N-methyl-; Methoxymethylamine; Methylamine, N-methoxy-; Methylmethoxyamine; N,O-Dimethylhydroxylamine; N-Methoxy-N-methylamine; N-Methyl-O-methylhydroxylamine; O,N-Dimethylhydroxylamine; O-Methyl-N-methylhydroxylamine; [ChemIDplus]",
        "links": [],
        "cross_references": [
          {
            "type": "name_match",
            "text": "methylamine",
            "confidence": 1.0,
            "uuid": "7c3781b5-5294-474a-a015-e59574d00b69",
            "name": "Methylamine",
            "url": "https://haz-map.com/Agents/217",
            "category": "agents"
          },
          {
            "type": "name_match",
            "text": "ethylamine",
            "confidence": 1.0,
            "uuid": "41ca4da8-b990-420a-86b2-3d77404fb7f4",
            "name": "Ethylamine",
            "url": "https://haz-map.com/Agents/220",
            "category": "agents"
          },
          {
            "type": "name_match",
            "text": "hydroxylamine",
            "confidence": 1.0,
            "uuid": "2c5bddbe-1859-4f6c-9590-541312386fcb",
            "name": "Hydroxylamine",
            "url": "https://haz-map.com/Agents/1092",
            "category": "agents"
          },
          {
            "type": "name_match",
            "text": "methoxyamine",
            "confidence": 1.0,
            "uuid": "b98ef665-3412-4203-8e9f-d306f4bff31c",
            "name": "Methoxyamine",
            "url": "https://haz-map.com/Agents/6414",
            "category": "agents"
          }
        ]
      },
      "category": {
        "original_name": "Category",
        "value": "Hydroxylamines",
        "links": [],
        "cross_references": [
          {
            "type": "name_match",
            "text": "hydroxylamine",
            "confidence": 1.0,
            "uuid": "2c5bddbe-1859-4f6c-9590-541312386fcb",
            "name": "Hydroxylamine",
            "url": "https://haz-map.com/Agents/1092",
            "category": "agents"
          }
        ]
      },
      "comments": {
        "original_name": "Comments",
        "value": "Emergency treatment: Irritants; [HSDB]",
        "links": [],
        "cross_references": [
          {
            "type": "name_match",
            "text": "irritants",
            "confidence": 1.0,
            "uuid": "9d2b9572-8c3e-48a4-ac68-63d6e2eb6f49",
            "name": "Irritants",
            "url": "https://haz-map.com/Agents/2063",
            "category": "agents"
          }
        ]
      },
      "biomedical_references": {
        "original_name": "Biomedical References",
        "value": "Search PubMed",
        "links": [
          {
            "text": "Search PubMed",
            "url": "https://www.ncbi.nlm.nih.gov/pubmed?term=N-Methoxymethylamine%20AND%20human%5Bmh%5D%20AND%20%28Occupational%20Diseases%20%5Bmh%5D%20OR%20Occupational%20Exposure%20%5Bmh%5D%29%20%20AND%20%28tox%5Bsb%5D%29&cmd=search"
          }
        ],
        "cross_references": []
      }
    },
    "exposure_assessment": {
      "vapor_pressure": {
        "original_name": "Vapor Pressure",
        "value": "379 mm Hg",
        "links": [],
        "cross_references": []
      },
      "explanatory_notes": {
        "original_name": "Explanatory Notes",
        "value": "VP from ChemIDplus;",
        "links": [],
        "cross_references": []
      }
    },
    "diseases_processes_and_activities_linked_to_this_agent": {
      "other_information": {
        "original_name": "Other Information",
        "value": "No other related information on this agent was found.",
        "links": [],
        "cross_references": []
      }
    }
  },
  "cross_references": [
    {
      "type": "name_match",
      "text": "methylamine",
      "confidence": 1.0,
      "uuid": "7c3781b5-5294-474a-a015-e59574d00b69",
      "name": "Methylamine",
      "url": "https://haz-map.com/Agents/217",
      "category": "agents"
    },
    {
      "type": "name_match",
      "text": "ethylamine",
      "confidence": 1.0,
      "uuid": "41ca4da8-b990-420a-86b2-3d77404fb7f4",
      "name": "Ethylamine",
      "url": "https://haz-map.com/Agents/220",
      "category": "agents"
    },
    {
      "type": "name_match",
      "text": "nitrogen",
      "confidence": 1.0,
      "uuid": "db5e90a9-06d2-45b9-8b81-f345a89b0bc0",
      "name": "Nitrogen",
      "url": "https://haz-map.com/Agents/1072",
      "category": "agents"
    },
    {
      "type": "name_match",
      "text": "hydroxylamine",
      "confidence": 1.0,
      "uuid": "2c5bddbe-1859-4f6c-9590-541312386fcb",
      "name": "Hydroxylamine",
      "url": "https://haz-map.com/Agents/1092",
      "category": "agents"
    },
    {
      "type": "name_match",
      "text": "irritants",
      "confidence": 1.0,
      "uuid": "9d2b9572-8c3e-48a4-ac68-63d6e2eb6f49",
      "name": "Irritants",
      "url": "https://haz-map.com/Agents/2063",
      "category": "agents"
    },
    {
      "type": "name_match",
      "text": "n-methoxymethylamine",
      "confidence": 1.0,
      "uuid": "4fa8d760-74a7-4b9d-9c99-a861a9b60b3d",
      "name": "N-Methoxymethylamine",
      "url": "https://haz-map.com/Agents/6243",
      "category": "agents"
    },
    {
      "type": "name_match",
      "text": "methoxyamine",
      "confidence": 1.0,
      "uuid": "b98ef665-3412-4203-8e9f-d306f4bff31c",
      "name": "Methoxyamine",
      "url": "https://haz-map.com/Agents/6414",
      "category": "agents"
    }
  ],
  "all_links": [
    {
      "text": "Search PubMed",
      "url": "https://www.ncbi.nlm.nih.gov/pubmed?term=N-Methoxymethylamine%20AND%20human%5Bmh%5D%20AND%20%28Occupational%20Diseases%20%5Bmh%5D%20OR%20Occupational%20Exposure%20%5Bmh%5D%29%20%20AND%20%28tox%5Bsb%5D%29&cmd=search"
    }
  ]
}