{
  "metadata": {
    "scraped_from": "https://haz-map.com/Agents/7661",
    "entity_name": "Tris(2-ethylhexyl) trimellitate",
    "category": "agents",
    "uuid": "4fac1abd-ad19-4db1-b45b-d75ca36ec2ec",
    "scraped_at": "2025-07-23T20:15:34.709539"
  },
  "parsed_at": "2025-07-24T01:15:42.400764",
  "title": "Tris(2-ethylhexyl) trimellitate",
  "sections": {
    "general": {
      "agent_name": {
        "original_name": "Agent Name",
        "value": "Tris(2-ethylhexyl) trimellitate",
        "links": [],
        "cross_references": [
          {
            "type": "name_match",
            "text": "tris(2-ethylhexyl) trimellitate",
            "confidence": 1.0,
            "uuid": "4fac1abd-ad19-4db1-b45b-d75ca36ec2ec",
            "name": "Tris(2-ethylhexyl) trimellitate",
            "url": "https://haz-map.com/Agents/7661",
            "category": "agents"
          }
        ]
      },
      "cas_number": {
        "original_name": "CAS Number",
        "value": "3319-31-1",
        "links": [],
        "cross_references": []
      },
      "formula": {
        "original_name": "Formula",
        "value": "C33-H54-O6",
        "links": [],
        "cross_references": []
      },
      "major_category": {
        "original_name": "Major Category",
        "value": "Plastics & Rubber",
        "links": [],
        "cross_references": []
      },
      "synonyms": {
        "original_name": "Synonyms",
        "value": "Tri-(2-ethylhexyl)trimellitate; 1,2,4-Benzenetricarboxylic acid, tris(2-ethylhexyl) ester; Hatcol 200; Kodaflex TOTM; Monosizer W710L; Morflex 510; Staflex TOTM; TOTM; Tri-2-ethylhexyl trimellitate; Trimex T 08; 1,2,4-Benzenetricarboxylic acid, 1,2,4-tris(2-ethylhexyl) ester; Tris(2-ethylhexyl) benzene-1,2,4-tricarboxylate; [ChemIDplus]",
        "links": [],
        "cross_references": [
          {
            "type": "name_match",
            "text": "benzene",
            "confidence": 1.0,
            "uuid": "b05124de-5f34-4c14-8f04-ccb20c3780d9",
            "name": "Benzene",
            "url": "https://haz-map.com/Agents/5",
            "category": "agents"
          }
        ]
      },
      "category": {
        "original_name": "Category",
        "value": "Other Plasticizers",
        "links": [],
        "cross_references": []
      },
      "description": {
        "original_name": "Description",
        "value": "Yellow liquid; [HSDB] Light yellow odorless viscous liquid; [MSDSonline]",
        "links": [],
        "cross_references": [
          {
            "type": "name_match",
            "text": "ht",
            "confidence": 1.0,
            "uuid": "764df367-8d53-4a11-81a2-31ccfe122a8d",
            "name": "HT",
            "url": "https://haz-map.com/Agents/2168",
            "category": "agents"
          }
        ]
      },
      "sourcesuses": {
        "original_name": "Sources/Uses",
        "value": "Used as plasticizer; [HSDB]",
        "links": [],
        "cross_references": []
      },
      "comments": {
        "original_name": "Comments",
        "value": "A mild skin and eye irritant, based on animal studies; [eChemPortal: SIDSUNEP] May cause mild irritation; [MSDSonline]",
        "links": [],
        "cross_references": []
      },
      "biomedical_references": {
        "original_name": "Biomedical References",
        "value": "Search PubMed",
        "links": [
          {
            "text": "Search PubMed",
            "url": "https://www.ncbi.nlm.nih.gov/pubmed?term=Tris(2-ethylhexyl)+trimellitate%20AND%20human%5Bmh%5D%20AND%20%28Occupational%20Diseases%20%5Bmh%5D%20OR%20Occupational%20Exposure%20%5Bmh%5D%29%20%20AND%20%28tox%5Bsb%5D%29&cmd=search"
          }
        ],
        "cross_references": []
      }
    },
    "exposure_assessment": {
      "vapor_pressure": {
        "original_name": "Vapor Pressure",
        "value": "3.94E-11 mm Hg",
        "links": [],
        "cross_references": []
      },
      "lethal_concentration": {
        "original_name": "Lethal Concentration",
        "value": "LC (rat) > 2,600 mg/m3",
        "links": [],
        "cross_references": []
      }
    },
    "diseases_processes_and_activities_linked_to_this_agent": {
      "other_information": {
        "original_name": "Other Information",
        "value": "No other related information on this agent was found.",
        "links": [],
        "cross_references": []
      }
    }
  },
  "cross_references": [
    {
      "type": "name_match",
      "text": "benzene",
      "confidence": 1.0,
      "uuid": "b05124de-5f34-4c14-8f04-ccb20c3780d9",
      "name": "Benzene",
      "url": "https://haz-map.com/Agents/5",
      "category": "agents"
    },
    {
      "type": "name_match",
      "text": "ht",
      "confidence": 1.0,
      "uuid": "764df367-8d53-4a11-81a2-31ccfe122a8d",
      "name": "HT",
      "url": "https://haz-map.com/Agents/2168",
      "category": "agents"
    },
    {
      "type": "name_match",
      "text": "tris(2-ethylhexyl) trimellitate",
      "confidence": 1.0,
      "uuid": "4fac1abd-ad19-4db1-b45b-d75ca36ec2ec",
      "name": "Tris(2-ethylhexyl) trimellitate",
      "url": "https://haz-map.com/Agents/7661",
      "category": "agents"
    }
  ],
  "all_links": [
    {
      "text": "Search PubMed",
      "url": "https://www.ncbi.nlm.nih.gov/pubmed?term=Tris(2-ethylhexyl)+trimellitate%20AND%20human%5Bmh%5D%20AND%20%28Occupational%20Diseases%20%5Bmh%5D%20OR%20Occupational%20Exposure%20%5Bmh%5D%29%20%20AND%20%28tox%5Bsb%5D%29&cmd=search"
    }
  ]
}