{
  "metadata": {
    "scraped_from": "https://haz-map.com/Agents/2648",
    "entity_name": "alpha-Chloro-p-xylene",
    "category": "agents",
    "uuid": "4fb35fcb-0681-4740-b112-98db9f40b552",
    "scraped_at": "2025-07-23T19:16:56.764678"
  },
  "parsed_at": "2025-07-24T00:55:46.457978",
  "title": "alpha-Chloro-p-xylene",
  "sections": {
    "general": {
      "agent_name": {
        "original_name": "Agent Name",
        "value": "alpha-Chloro-p-xylene",
        "links": [],
        "cross_references": [
          {
            "type": "name_match",
            "text": "alpha-chloro-p-xylene",
            "confidence": 1.0,
            "uuid": "4fb35fcb-0681-4740-b112-98db9f40b552",
            "name": "alpha-Chloro-p-xylene",
            "url": "https://haz-map.com/Agents/2648",
            "category": "agents"
          },
          {
            "type": "name_match",
            "text": "p-xylene",
            "confidence": 1.0,
            "uuid": "10e69ddd-48a3-4d40-83ee-196e9b9dab5a",
            "name": "p-Xylene",
            "url": "https://haz-map.com/Agents/17009",
            "category": "agents"
          }
        ]
      },
      "alternative_name": {
        "original_name": "Alternative Name",
        "value": "4-Methylbenzyl chloride",
        "links": [],
        "cross_references": [
          {
            "type": "name_match",
            "text": "benzyl chloride",
            "confidence": 1.0,
            "uuid": "2a21cd31-c5bb-492a-bc67-cc1db16f1507",
            "name": "Benzyl chloride",
            "url": "https://haz-map.com/Agents/305",
            "category": "agents"
          }
        ]
      },
      "cas_number": {
        "original_name": "CAS Number",
        "value": "104-82-5",
        "links": [],
        "cross_references": []
      },
      "formula": {
        "original_name": "Formula",
        "value": "C8-H9-Cl",
        "links": [],
        "cross_references": []
      },
      "major_category": {
        "original_name": "Major Category",
        "value": "Other Classes",
        "links": [],
        "cross_references": []
      },
      "synonyms": {
        "original_name": "Synonyms",
        "value": "4-Methylbenzyl chloride; (4-Methylphenyl)methyl chloride; 1-(Chloromethyl)-4-methylbenzene; 1-Methyl-4-(chloromethyl)benzene; 4-(Chloromethyl)toluene; Benzene, 1-(chloromethyl)-4-methyl-; alpha-Chloro-p-xylene; p-(Chloromethyl)toluene; p-Methylbenzyl chloride; p-Tolylmethyl chloride; p-Xylene, alpha-chloro-; p-Xylyl chloride; p-Xylyl-alpha-chloride; [ChemIDplus] UN1760",
        "links": [],
        "cross_references": [
          {
            "type": "name_match",
            "text": "benzene",
            "confidence": 1.0,
            "uuid": "b05124de-5f34-4c14-8f04-ccb20c3780d9",
            "name": "Benzene",
            "url": "https://haz-map.com/Agents/5",
            "category": "agents"
          },
          {
            "type": "name_match",
            "text": "ethyl chloride",
            "confidence": 1.0,
            "uuid": "5beffaec-7903-4a06-87c6-d5a754bd0575",
            "name": "Ethyl chloride",
            "url": "https://haz-map.com/Agents/59",
            "category": "agents"
          },
          {
            "type": "name_match",
            "text": "toluene",
            "confidence": 1.0,
            "uuid": "0a34d5de-e924-4c47-aff5-7ae8e48c6772",
            "name": "Toluene",
            "url": "https://haz-map.com/Agents/83",
            "category": "agents"
          },
          {
            "type": "name_match",
            "text": "methyl chloride",
            "confidence": 1.0,
            "uuid": "aca74000-c56c-44e7-b27d-5d7d3e056f5d",
            "name": "Methyl chloride",
            "url": "https://haz-map.com/Agents/153",
            "category": "agents"
          },
          {
            "type": "name_match",
            "text": "benzyl chloride",
            "confidence": 1.0,
            "uuid": "2a21cd31-c5bb-492a-bc67-cc1db16f1507",
            "name": "Benzyl chloride",
            "url": "https://haz-map.com/Agents/305",
            "category": "agents"
          },
          {
            "type": "name_match",
            "text": "alpha-chloro-p-xylene",
            "confidence": 1.0,
            "uuid": "4fb35fcb-0681-4740-b112-98db9f40b552",
            "name": "alpha-Chloro-p-xylene",
            "url": "https://haz-map.com/Agents/2648",
            "category": "agents"
          },
          {
            "type": "name_match",
            "text": "p-xylene",
            "confidence": 1.0,
            "uuid": "10e69ddd-48a3-4d40-83ee-196e9b9dab5a",
            "name": "p-Xylene",
            "url": "https://haz-map.com/Agents/17009",
            "category": "agents"
          }
        ]
      },
      "category": {
        "original_name": "Category",
        "value": "Halogenated Monoaromatics",
        "links": [],
        "cross_references": []
      },
      "description": {
        "original_name": "Description",
        "value": "Fuming liquid; characteristic odor; [Merck Index]",
        "links": [],
        "cross_references": []
      },
      "comments": {
        "original_name": "Comments",
        "value": "Powerful lachrymator; [Merck Index] Corrosive; Harmful if swallowed; May cause chemical pneumonitis after inhalation of high concentrations; [MSDSonline]",
        "links": [],
        "cross_references": [
          {
            "type": "name_match",
            "text": "mica",
            "confidence": 1.0,
            "uuid": "433f26f1-c399-4596-b179-ce3843cfd465",
            "name": "Mica",
            "url": "https://haz-map.com/Agents/621",
            "category": "agents"
          }
        ]
      },
      "biomedical_references": {
        "original_name": "Biomedical References",
        "value": "Search PubMed",
        "links": [
          {
            "text": "Search PubMed",
            "url": "https://www.ncbi.nlm.nih.gov/pubmed?term=alpha-Chloro-p-xylene%20AND%20human%5Bmh%5D%20AND%20%28Occupational%20Diseases%20%5Bmh%5D%20OR%20Occupational%20Exposure%20%5Bmh%5D%29%20%20AND%20%28tox%5Bsb%5D%29&cmd=search"
          }
        ],
        "cross_references": []
      }
    },
    "exposure_assessment": {
      "vapor_pressure": {
        "original_name": "Vapor Pressure",
        "value": "0.297 mm Hg",
        "links": [],
        "cross_references": []
      },
      "explanatory_notes": {
        "original_name": "Explanatory Notes",
        "value": "ERG Guide for \"Corrosive liquid, n.o.s.\" VP from ChemIDplus;",
        "links": [],
        "cross_references": []
      }
    },
    "adverse_effects": {
      "lachrymator": {
        "original_name": "Lachrymator",
        "value": "Yes",
        "links": [],
        "cross_references": []
      },
      "toxic_pneumonitis": {
        "original_name": "Toxic Pneumonitis",
        "value": "Yes",
        "links": [],
        "cross_references": []
      },
      "dermatotoxin": {
        "original_name": "Dermatotoxin",
        "value": "Skin burns",
        "links": [],
        "cross_references": [
          {
            "type": "name_match",
            "text": "burn",
            "confidence": 1.0,
            "uuid": "63665de5-6376-4918-8dbf-4c10c4d63837",
            "name": "burn",
            "url": "https://haz-map.com/Findings/204",
            "category": "findings"
          }
        ]
      }
    },
    "diseases_processes_and_activities_linked_to_this_agent": {
      "other_information": {
        "original_name": "Other Information",
        "value": "No other related information on this agent was found.",
        "links": [],
        "cross_references": []
      }
    }
  },
  "cross_references": [
    {
      "type": "name_match",
      "text": "burn",
      "confidence": 1.0,
      "uuid": "63665de5-6376-4918-8dbf-4c10c4d63837",
      "name": "burn",
      "url": "https://haz-map.com/Findings/204",
      "category": "findings"
    },
    {
      "type": "name_match",
      "text": "benzene",
      "confidence": 1.0,
      "uuid": "b05124de-5f34-4c14-8f04-ccb20c3780d9",
      "name": "Benzene",
      "url": "https://haz-map.com/Agents/5",
      "category": "agents"
    },
    {
      "type": "name_match",
      "text": "ethyl chloride",
      "confidence": 1.0,
      "uuid": "5beffaec-7903-4a06-87c6-d5a754bd0575",
      "name": "Ethyl chloride",
      "url": "https://haz-map.com/Agents/59",
      "category": "agents"
    },
    {
      "type": "name_match",
      "text": "toluene",
      "confidence": 1.0,
      "uuid": "0a34d5de-e924-4c47-aff5-7ae8e48c6772",
      "name": "Toluene",
      "url": "https://haz-map.com/Agents/83",
      "category": "agents"
    },
    {
      "type": "name_match",
      "text": "methyl chloride",
      "confidence": 1.0,
      "uuid": "aca74000-c56c-44e7-b27d-5d7d3e056f5d",
      "name": "Methyl chloride",
      "url": "https://haz-map.com/Agents/153",
      "category": "agents"
    },
    {
      "type": "name_match",
      "text": "benzyl chloride",
      "confidence": 1.0,
      "uuid": "2a21cd31-c5bb-492a-bc67-cc1db16f1507",
      "name": "Benzyl chloride",
      "url": "https://haz-map.com/Agents/305",
      "category": "agents"
    },
    {
      "type": "name_match",
      "text": "mica",
      "confidence": 1.0,
      "uuid": "433f26f1-c399-4596-b179-ce3843cfd465",
      "name": "Mica",
      "url": "https://haz-map.com/Agents/621",
      "category": "agents"
    },
    {
      "type": "name_match",
      "text": "alpha-chloro-p-xylene",
      "confidence": 1.0,
      "uuid": "4fb35fcb-0681-4740-b112-98db9f40b552",
      "name": "alpha-Chloro-p-xylene",
      "url": "https://haz-map.com/Agents/2648",
      "category": "agents"
    },
    {
      "type": "name_match",
      "text": "p-xylene",
      "confidence": 1.0,
      "uuid": "10e69ddd-48a3-4d40-83ee-196e9b9dab5a",
      "name": "p-Xylene",
      "url": "https://haz-map.com/Agents/17009",
      "category": "agents"
    }
  ],
  "all_links": [
    {
      "text": "Search PubMed",
      "url": "https://www.ncbi.nlm.nih.gov/pubmed?term=alpha-Chloro-p-xylene%20AND%20human%5Bmh%5D%20AND%20%28Occupational%20Diseases%20%5Bmh%5D%20OR%20Occupational%20Exposure%20%5Bmh%5D%29%20%20AND%20%28tox%5Bsb%5D%29&cmd=search"
    }
  ]
}