{
  "metadata": {
    "scraped_from": "https://haz-map.com/Agents/1920",
    "entity_name": "Zinc",
    "category": "agents",
    "uuid": "4fdb846b-d1fc-4677-99fd-bdbabeadebdc",
    "scraped_at": "2025-07-23T19:06:45.677792"
  },
  "parsed_at": "2025-07-24T01:09:30.337651",
  "title": "Zinc",
  "sections": {
    "general": {
      "agent_name": {
        "original_name": "Agent Name",
        "value": "Zinc",
        "links": [],
        "cross_references": [
          {
            "type": "name_match",
            "text": "zinc",
            "confidence": 1.0,
            "uuid": "4fdb846b-d1fc-4677-99fd-bdbabeadebdc",
            "name": "Zinc",
            "url": "https://haz-map.com/Agents/1920",
            "category": "agents"
          }
        ]
      },
      "cas_number": {
        "original_name": "CAS Number",
        "value": "7440-66-6",
        "links": [],
        "cross_references": []
      },
      "formula": {
        "original_name": "Formula",
        "value": "Zn",
        "links": [],
        "cross_references": []
      },
      "major_category": {
        "original_name": "Major Category",
        "value": "Metals",
        "links": [],
        "cross_references": []
      },
      "synonyms": {
        "original_name": "Synonyms",
        "value": "Asarco L 15; Blue powder; Emanay zinc dust; Granular zinc; Jasad; LS 2; LS 6; Lead refinery vacuum zinc; Merrillite; Rheinzink; Zinc; Zinc dust; Zinc powder; [ChemIDplus] UN1436",
        "links": [],
        "cross_references": [
          {
            "type": "name_match",
            "text": "lead",
            "confidence": 1.0,
            "uuid": "24246eba-13d7-456a-a142-ceae0f1df43f",
            "name": "Lead",
            "url": "https://haz-map.com/Agents/10",
            "category": "agents"
          },
          {
            "type": "name_match",
            "text": "zinc",
            "confidence": 1.0,
            "uuid": "4fdb846b-d1fc-4677-99fd-bdbabeadebdc",
            "name": "Zinc",
            "url": "https://haz-map.com/Agents/1920",
            "category": "agents"
          },
          {
            "type": "name_match",
            "text": "illite",
            "confidence": 1.0,
            "uuid": "6888b175-725e-48ea-b32f-56fb82e6345d",
            "name": "Illite",
            "url": "https://haz-map.com/Agents/14849",
            "category": "agents"
          }
        ]
      },
      "category": {
        "original_name": "Category",
        "value": "Elements, Metallic",
        "links": [],
        "cross_references": []
      },
      "description": {
        "original_name": "Description",
        "value": "Gray powder; [CAMEO]",
        "links": [],
        "cross_references": []
      },
      "sourcesuses": {
        "original_name": "Sources/Uses",
        "value": "Used in galvanizing and alloying; Also used in dry cell batteries and in organic chemistry, bronze deoxidizing, gold extracting, fat purifying, and bone bleaching; An essential dietary mineral; [Merck Index] Zinc dust is used as a pigment in rust-resistant coatings. Also used as a reducing agent, an additive to plastics and lubricants, a purification agent in electrolytic zinc plants, and a component of primary batteries and abrasives; it is used in spray metallizing and mechanical plating. [CHEMINFO] Spalerite is the most important Zn ore; Workers are exposed to zinc in mining, smelting, and welding; [Nordberg, p. 1370, 1374]",
        "links": [],
        "cross_references": [
          {
            "type": "name_match",
            "text": "welding",
            "confidence": 1.0,
            "uuid": "e3d0f0df-0977-480c-9c78-ba89501210a7",
            "name": "Welding",
            "url": "https://haz-map.com/Processes/41",
            "category": "processes"
          },
          {
            "type": "name_match",
            "text": "mining",
            "confidence": 1.0,
            "uuid": "aaa4a4af-567a-4a01-83bc-ccad9fc73d04",
            "name": "Mining",
            "url": "https://haz-map.com/Processes/219",
            "category": "processes"
          },
          {
            "type": "name_match",
            "text": "gold",
            "confidence": 1.0,
            "uuid": "8f37bad1-17df-446f-b0ed-11d2ef239483",
            "name": "Gold",
            "url": "https://haz-map.com/Agents/1186",
            "category": "agents"
          },
          {
            "type": "name_match",
            "text": "zinc",
            "confidence": 1.0,
            "uuid": "4fdb846b-d1fc-4677-99fd-bdbabeadebdc",
            "name": "Zinc",
            "url": "https://haz-map.com/Agents/1920",
            "category": "agents"
          }
        ]
      },
      "comments": {
        "original_name": "Comments",
        "value": "Zinc is essential to plant and animal life; It is in more than 300 enzymes involved in all aspects of metabolism; Zn is also needed for the proper structural function of proteins; Zn deficiency causes failed growth and development; Zn is necessary for healthy immunity and wound healing; Zn is depleted in some soils; Plant ligands, e.g., phytate and lignin, can interfere with Zn absorption; 20% of the world's people are at risk for Zn deficiency; Zn supplements are the most common source of excess Zn; Excess intake may precipitate copper deficiency; Excess Zn in drinks, up to 2500 mg/L, caused vomiting, diarrhea, and abdominal pain; Zinc oxide fume causes metal fume fever, and zinc chloride fume causes acute pneumonitis; [Nordberg, p. 1369-82] Produces flammable hydrogen when in contact with moisture; [CAMEO] Zinc powder or dust are usually coated with zinc carbonate to reduce the risk of spontaneous combustion. Zinc dust is not known to be harmful after inhalation or contact with the skin or eyes. [CHEMINFO] Zinc is a \"hepatotoxic agent.\" [Zimmerman, p. 4] See \"Zinc chloride fume.\" See \"Zinc oxide.\"",
        "links": [],
        "cross_references": [
          {
            "type": "name_match",
            "text": "metal fume fever",
            "confidence": 1.0,
            "uuid": "df2e8b18-0a58-4678-bc77-c354eb447fc7",
            "name": "Metal fume fever",
            "url": "https://haz-map.com/Diseases/69",
            "category": "diseases"
          },
          {
            "type": "name_match",
            "text": "abdominal pain",
            "confidence": 1.0,
            "uuid": "1faabdf2-4731-447b-bb9f-ce87fc677bed",
            "name": "abdominal pain",
            "url": "https://haz-map.com/Findings/9",
            "category": "findings"
          },
          {
            "type": "name_match",
            "text": "diarrhea",
            "confidence": 1.0,
            "uuid": "001ae7b5-5f3c-42c2-bc33-81e7581abd53",
            "name": "diarrhea",
            "url": "https://haz-map.com/Findings/15",
            "category": "findings"
          },
          {
            "type": "name_match",
            "text": "fever",
            "confidence": 1.0,
            "uuid": "1343a59f-55bb-4311-9967-7a76a6b4cb58",
            "name": "fever",
            "url": "https://haz-map.com/Findings/28",
            "category": "findings"
          },
          {
            "type": "name_match",
            "text": "zinc chloride fume",
            "confidence": 1.0,
            "uuid": "868486a9-db91-44b3-8d4c-1229740d40a9",
            "name": "Zinc chloride fume",
            "url": "https://haz-map.com/Agents/62",
            "category": "agents"
          },
          {
            "type": "name_match",
            "text": "copper",
            "confidence": 1.0,
            "uuid": "ec3b6867-24a9-4dd4-bb59-cd8ac790c685",
            "name": "Copper",
            "url": "https://haz-map.com/Agents/374",
            "category": "agents"
          },
          {
            "type": "name_match",
            "text": "zinc oxide",
            "confidence": 1.0,
            "uuid": "28db413b-6aeb-49b8-a8f6-fd9e7a4ed7af",
            "name": "Zinc oxide",
            "url": "https://haz-map.com/Agents/679",
            "category": "agents"
          },
          {
            "type": "name_match",
            "text": "enzymes",
            "confidence": 1.0,
            "uuid": "fe84a5f3-127f-4a3f-bd93-9a905dddee93",
            "name": "ENZYMES",
            "url": "https://haz-map.com/Agents/741",
            "category": "agents"
          },
          {
            "type": "name_match",
            "text": "hydrogen",
            "confidence": 1.0,
            "uuid": "e2d9645f-5559-4d88-b820-fc4710c154f2",
            "name": "Hydrogen",
            "url": "https://haz-map.com/Agents/1070",
            "category": "agents"
          },
          {
            "type": "name_match",
            "text": "carbon",
            "confidence": 1.0,
            "uuid": "b53f8815-ee80-40ef-b4aa-3b000e17dab5",
            "name": "Carbon",
            "url": "https://haz-map.com/Agents/1891",
            "category": "agents"
          },
          {
            "type": "name_match",
            "text": "zinc",
            "confidence": 1.0,
            "uuid": "4fdb846b-d1fc-4677-99fd-bdbabeadebdc",
            "name": "Zinc",
            "url": "https://haz-map.com/Agents/1920",
            "category": "agents"
          },
          {
            "type": "name_match",
            "text": "zinc carbonate",
            "confidence": 1.0,
            "uuid": "032af32a-04b5-4b94-8e50-abceff772fd9",
            "name": "Zinc carbonate",
            "url": "https://haz-map.com/Agents/7768",
            "category": "agents"
          }
        ]
      },
      "biomedical_references": {
        "original_name": "Biomedical References",
        "value": "Search PubMed",
        "links": [
          {
            "text": "Search PubMed",
            "url": "https://www.ncbi.nlm.nih.gov/pubmed?term=Zinc%20AND%20human%5Bmh%5D%20AND%20%28Occupational%20Diseases%20%5Bmh%5D%20OR%20Occupational%20Exposure%20%5Bmh%5D%29%20%20AND%20%28tox%5Bsb%5D%29&cmd=search"
          }
        ],
        "cross_references": []
      }
    },
    "exposure_assessment": {
      "mak": {
        "original_name": "MAK",
        "value": "0.1 mg/m3 (respirable fraction), 2 mg/m3 (inhalable fraction) for Zn inorg. cmpnds",
        "links": [],
        "cross_references": []
      },
      "explanatory_notes": {
        "original_name": "Explanatory Notes",
        "value": "Melting point = 787 degrees F; VP = practically zero; [CHEMINFO]",
        "links": [],
        "cross_references": []
      }
    },
    "adverse_effects": {
      "hepatotoxin": {
        "original_name": "Hepatotoxin",
        "value": "Hepatoxic (a) from occupational exposure (secondary effect) or (b) in animal studies or in humans after ingestion",
        "links": [],
        "cross_references": []
      }
    },
    "diseases_processes_and_activities_linked_to_this_agent": {
      "diseases": {
        "original_name": "Diseases",
        "value": "Occupational diseases associated with exposure to this agent: Metal fume fever",
        "links": [
          {
            "text": "Metal fume fever",
            "url": "https://haz-map.com/Diseases/69"
          }
        ],
        "cross_references": [
          {
            "type": "url_match",
            "text": "Metal fume fever",
            "url": "https://haz-map.com/Diseases/69",
            "confidence": 1.0,
            "uuid": "df2e8b18-0a58-4678-bc77-c354eb447fc7",
            "name": "Metal fume fever",
            "category": "diseases"
          },
          {
            "type": "name_match",
            "text": "fever",
            "confidence": 1.0,
            "uuid": "1343a59f-55bb-4311-9967-7a76a6b4cb58",
            "name": "fever",
            "url": "https://haz-map.com/Findings/28",
            "category": "findings"
          }
        ]
      },
      "processes": {
        "original_name": "Processes",
        "value": "Industrial Processes with risk of exposure: Battery Manufacturing Electroplating Gas Welding and Cutting Metal Extraction and Refining Metal Preparation and Pouring Metal Thermal Spraying Mining Painting (Pigments, Binders, and Biocides) Welding Welding Over Coatings",
        "links": [
          {
            "text": "Battery Manufacturing",
            "url": "https://haz-map.com/Processes/106"
          },
          {
            "text": "Electroplating",
            "url": "https://haz-map.com/Processes/66"
          },
          {
            "text": "Gas Welding and Cutting",
            "url": "https://haz-map.com/Processes/185"
          },
          {
            "text": "Metal Extraction and Refining",
            "url": "https://haz-map.com/Processes/261"
          },
          {
            "text": "Metal Preparation and Pouring",
            "url": "https://haz-map.com/Processes/26"
          },
          {
            "text": "Metal Thermal Spraying",
            "url": "https://haz-map.com/Processes/67"
          },
          {
            "text": "Mining",
            "url": "https://haz-map.com/Processes/219"
          },
          {
            "text": "Painting (Pigments, Binders, and Biocides)",
            "url": "https://haz-map.com/Processes/145"
          },
          {
            "text": "Welding",
            "url": "https://haz-map.com/Processes/41"
          },
          {
            "text": "Welding Over Coatings",
            "url": "https://haz-map.com/Processes/239"
          }
        ],
        "cross_references": [
          {
            "type": "url_match",
            "text": "Battery Manufacturing",
            "url": "https://haz-map.com/Processes/106",
            "confidence": 1.0,
            "uuid": "6f785f01-59d8-4cbf-b023-aab272d5cbd0",
            "name": "Battery Manufacturing",
            "category": "processes"
          },
          {
            "type": "url_match",
            "text": "Electroplating",
            "url": "https://haz-map.com/Processes/66",
            "confidence": 1.0,
            "uuid": "ae1bd2c1-37de-4b26-82b6-47ee206af837",
            "name": "Electroplating",
            "category": "processes"
          },
          {
            "type": "url_match",
            "text": "Gas Welding and Cutting",
            "url": "https://haz-map.com/Processes/185",
            "confidence": 1.0,
            "uuid": "026ec9ad-e5e8-4c25-81ca-5d3a91de8caf",
            "name": "Gas Welding and Cutting",
            "category": "processes"
          },
          {
            "type": "url_match",
            "text": "Metal Preparation and Pouring",
            "url": "https://haz-map.com/Processes/26",
            "confidence": 1.0,
            "uuid": "fceac193-d92a-473f-b69f-e76b74928978",
            "name": "Metal Preparation and Pouring",
            "category": "processes"
          },
          {
            "type": "url_match",
            "text": "Metal Thermal Spraying",
            "url": "https://haz-map.com/Processes/67",
            "confidence": 1.0,
            "uuid": "cb681f62-1c9e-4729-b50d-d6a8d06aa5eb",
            "name": "Metal Thermal Spraying",
            "category": "processes"
          },
          {
            "type": "url_match",
            "text": "Mining",
            "url": "https://haz-map.com/Processes/219",
            "confidence": 1.0,
            "uuid": "aaa4a4af-567a-4a01-83bc-ccad9fc73d04",
            "name": "Mining",
            "category": "processes"
          },
          {
            "type": "url_match",
            "text": "Painting (Pigments, Binders, and Biocides)",
            "url": "https://haz-map.com/Processes/145",
            "confidence": 1.0,
            "uuid": "25867878-e178-4c21-906f-d392d86b76de",
            "name": "Painting (Pigments, Binders, and Biocides)",
            "category": "processes"
          },
          {
            "type": "url_match",
            "text": "Welding",
            "url": "https://haz-map.com/Processes/41",
            "confidence": 1.0,
            "uuid": "e3d0f0df-0977-480c-9c78-ba89501210a7",
            "name": "Welding",
            "category": "processes"
          },
          {
            "type": "name_match",
            "text": "painting",
            "confidence": 1.0,
            "uuid": "19816ce9-9edf-4a86-8e64-b0cbf7dcf520",
            "name": "Painting",
            "url": "https://haz-map.com/Activities/9",
            "category": "activities"
          }
        ]
      }
    }
  },
  "cross_references": [
    {
      "type": "url_match",
      "text": "Metal fume fever",
      "url": "https://haz-map.com/Diseases/69",
      "confidence": 1.0,
      "uuid": "df2e8b18-0a58-4678-bc77-c354eb447fc7",
      "name": "Metal fume fever",
      "category": "diseases"
    },
    {
      "type": "url_match",
      "text": "Battery Manufacturing",
      "url": "https://haz-map.com/Processes/106",
      "confidence": 1.0,
      "uuid": "6f785f01-59d8-4cbf-b023-aab272d5cbd0",
      "name": "Battery Manufacturing",
      "category": "processes"
    },
    {
      "type": "url_match",
      "text": "Electroplating",
      "url": "https://haz-map.com/Processes/66",
      "confidence": 1.0,
      "uuid": "ae1bd2c1-37de-4b26-82b6-47ee206af837",
      "name": "Electroplating",
      "category": "processes"
    },
    {
      "type": "url_match",
      "text": "Gas Welding and Cutting",
      "url": "https://haz-map.com/Processes/185",
      "confidence": 1.0,
      "uuid": "026ec9ad-e5e8-4c25-81ca-5d3a91de8caf",
      "name": "Gas Welding and Cutting",
      "category": "processes"
    },
    {
      "type": "url_match",
      "text": "Metal Preparation and Pouring",
      "url": "https://haz-map.com/Processes/26",
      "confidence": 1.0,
      "uuid": "fceac193-d92a-473f-b69f-e76b74928978",
      "name": "Metal Preparation and Pouring",
      "category": "processes"
    },
    {
      "type": "url_match",
      "text": "Metal Thermal Spraying",
      "url": "https://haz-map.com/Processes/67",
      "confidence": 1.0,
      "uuid": "cb681f62-1c9e-4729-b50d-d6a8d06aa5eb",
      "name": "Metal Thermal Spraying",
      "category": "processes"
    },
    {
      "type": "url_match",
      "text": "Mining",
      "url": "https://haz-map.com/Processes/219",
      "confidence": 1.0,
      "uuid": "aaa4a4af-567a-4a01-83bc-ccad9fc73d04",
      "name": "Mining",
      "category": "processes"
    },
    {
      "type": "url_match",
      "text": "Painting (Pigments, Binders, and Biocides)",
      "url": "https://haz-map.com/Processes/145",
      "confidence": 1.0,
      "uuid": "25867878-e178-4c21-906f-d392d86b76de",
      "name": "Painting (Pigments, Binders, and Biocides)",
      "category": "processes"
    },
    {
      "type": "url_match",
      "text": "Welding",
      "url": "https://haz-map.com/Processes/41",
      "confidence": 1.0,
      "uuid": "e3d0f0df-0977-480c-9c78-ba89501210a7",
      "name": "Welding",
      "category": "processes"
    },
    {
      "type": "name_match",
      "text": "painting",
      "confidence": 1.0,
      "uuid": "19816ce9-9edf-4a86-8e64-b0cbf7dcf520",
      "name": "Painting",
      "url": "https://haz-map.com/Activities/9",
      "category": "activities"
    },
    {
      "type": "name_match",
      "text": "abdominal pain",
      "confidence": 1.0,
      "uuid": "1faabdf2-4731-447b-bb9f-ce87fc677bed",
      "name": "abdominal pain",
      "url": "https://haz-map.com/Findings/9",
      "category": "findings"
    },
    {
      "type": "name_match",
      "text": "diarrhea",
      "confidence": 1.0,
      "uuid": "001ae7b5-5f3c-42c2-bc33-81e7581abd53",
      "name": "diarrhea",
      "url": "https://haz-map.com/Findings/15",
      "category": "findings"
    },
    {
      "type": "name_match",
      "text": "fever",
      "confidence": 1.0,
      "uuid": "1343a59f-55bb-4311-9967-7a76a6b4cb58",
      "name": "fever",
      "url": "https://haz-map.com/Findings/28",
      "category": "findings"
    },
    {
      "type": "name_match",
      "text": "lead",
      "confidence": 1.0,
      "uuid": "24246eba-13d7-456a-a142-ceae0f1df43f",
      "name": "Lead",
      "url": "https://haz-map.com/Agents/10",
      "category": "agents"
    },
    {
      "type": "name_match",
      "text": "zinc chloride fume",
      "confidence": 1.0,
      "uuid": "868486a9-db91-44b3-8d4c-1229740d40a9",
      "name": "Zinc chloride fume",
      "url": "https://haz-map.com/Agents/62",
      "category": "agents"
    },
    {
      "type": "name_match",
      "text": "copper",
      "confidence": 1.0,
      "uuid": "ec3b6867-24a9-4dd4-bb59-cd8ac790c685",
      "name": "Copper",
      "url": "https://haz-map.com/Agents/374",
      "category": "agents"
    },
    {
      "type": "name_match",
      "text": "zinc oxide",
      "confidence": 1.0,
      "uuid": "28db413b-6aeb-49b8-a8f6-fd9e7a4ed7af",
      "name": "Zinc oxide",
      "url": "https://haz-map.com/Agents/679",
      "category": "agents"
    },
    {
      "type": "name_match",
      "text": "enzymes",
      "confidence": 1.0,
      "uuid": "fe84a5f3-127f-4a3f-bd93-9a905dddee93",
      "name": "ENZYMES",
      "url": "https://haz-map.com/Agents/741",
      "category": "agents"
    },
    {
      "type": "name_match",
      "text": "hydrogen",
      "confidence": 1.0,
      "uuid": "e2d9645f-5559-4d88-b820-fc4710c154f2",
      "name": "Hydrogen",
      "url": "https://haz-map.com/Agents/1070",
      "category": "agents"
    },
    {
      "type": "name_match",
      "text": "gold",
      "confidence": 1.0,
      "uuid": "8f37bad1-17df-446f-b0ed-11d2ef239483",
      "name": "Gold",
      "url": "https://haz-map.com/Agents/1186",
      "category": "agents"
    },
    {
      "type": "name_match",
      "text": "carbon",
      "confidence": 1.0,
      "uuid": "b53f8815-ee80-40ef-b4aa-3b000e17dab5",
      "name": "Carbon",
      "url": "https://haz-map.com/Agents/1891",
      "category": "agents"
    },
    {
      "type": "name_match",
      "text": "zinc",
      "confidence": 1.0,
      "uuid": "4fdb846b-d1fc-4677-99fd-bdbabeadebdc",
      "name": "Zinc",
      "url": "https://haz-map.com/Agents/1920",
      "category": "agents"
    },
    {
      "type": "name_match",
      "text": "zinc carbonate",
      "confidence": 1.0,
      "uuid": "032af32a-04b5-4b94-8e50-abceff772fd9",
      "name": "Zinc carbonate",
      "url": "https://haz-map.com/Agents/7768",
      "category": "agents"
    },
    {
      "type": "name_match",
      "text": "illite",
      "confidence": 1.0,
      "uuid": "6888b175-725e-48ea-b32f-56fb82e6345d",
      "name": "Illite",
      "url": "https://haz-map.com/Agents/14849",
      "category": "agents"
    }
  ],
  "all_links": [
    {
      "text": "Search PubMed",
      "url": "https://www.ncbi.nlm.nih.gov/pubmed?term=Zinc%20AND%20human%5Bmh%5D%20AND%20%28Occupational%20Diseases%20%5Bmh%5D%20OR%20Occupational%20Exposure%20%5Bmh%5D%29%20%20AND%20%28tox%5Bsb%5D%29&cmd=search"
    },
    {
      "text": "Metal fume fever",
      "url": "https://haz-map.com/Diseases/69"
    },
    {
      "text": "Battery Manufacturing",
      "url": "https://haz-map.com/Processes/106"
    },
    {
      "text": "Electroplating",
      "url": "https://haz-map.com/Processes/66"
    },
    {
      "text": "Gas Welding and Cutting",
      "url": "https://haz-map.com/Processes/185"
    },
    {
      "text": "Metal Extraction and Refining",
      "url": "https://haz-map.com/Processes/261"
    },
    {
      "text": "Metal Preparation and Pouring",
      "url": "https://haz-map.com/Processes/26"
    },
    {
      "text": "Metal Thermal Spraying",
      "url": "https://haz-map.com/Processes/67"
    },
    {
      "text": "Mining",
      "url": "https://haz-map.com/Processes/219"
    },
    {
      "text": "Painting (Pigments, Binders, and Biocides)",
      "url": "https://haz-map.com/Processes/145"
    },
    {
      "text": "Welding",
      "url": "https://haz-map.com/Processes/41"
    },
    {
      "text": "Welding Over Coatings",
      "url": "https://haz-map.com/Processes/239"
    }
  ]
}