{
  "metadata": {
    "scraped_from": "https://haz-map.com/Agents/20497",
    "entity_name": "Cycloheptene",
    "category": "agents",
    "uuid": "5048ca1f-1285-4c2d-a094-120e20d1163f",
    "scraped_at": "2025-07-23T22:26:17.888908"
  },
  "parsed_at": "2025-07-24T00:56:07.865585",
  "title": "Cycloheptene",
  "sections": {
    "general": {
      "agent_name": {
        "original_name": "Agent Name",
        "value": "Cycloheptene",
        "links": [],
        "cross_references": [
          {
            "type": "name_match",
            "text": "heptene",
            "confidence": 1.0,
            "uuid": "a41f7be2-f9f6-47de-967c-2683b506d55d",
            "name": "Heptene",
            "url": "https://haz-map.com/Agents/14566",
            "category": "agents"
          },
          {
            "type": "name_match",
            "text": "cycloheptene",
            "confidence": 1.0,
            "uuid": "5048ca1f-1285-4c2d-a094-120e20d1163f",
            "name": "Cycloheptene",
            "url": "https://haz-map.com/Agents/20497",
            "category": "agents"
          }
        ]
      },
      "cas_number": {
        "original_name": "CAS Number",
        "value": "628-92-2",
        "links": [],
        "cross_references": []
      },
      "formula": {
        "original_name": "Formula",
        "value": "C7-H12",
        "links": [],
        "cross_references": []
      },
      "major_category": {
        "original_name": "Major Category",
        "value": "Other Classes",
        "links": [],
        "cross_references": []
      },
      "synonyms": {
        "original_name": "Synonyms",
        "value": "cis-Cycloheptene; [CAMEO] UN2242",
        "links": [],
        "cross_references": [
          {
            "type": "name_match",
            "text": "heptene",
            "confidence": 1.0,
            "uuid": "a41f7be2-f9f6-47de-967c-2683b506d55d",
            "name": "Heptene",
            "url": "https://haz-map.com/Agents/14566",
            "category": "agents"
          },
          {
            "type": "name_match",
            "text": "cycloheptene",
            "confidence": 1.0,
            "uuid": "5048ca1f-1285-4c2d-a094-120e20d1163f",
            "name": "Cycloheptene",
            "url": "https://haz-map.com/Agents/20497",
            "category": "agents"
          }
        ]
      },
      "category": {
        "original_name": "Category",
        "value": "Aliphatics, Unsaturated",
        "links": [],
        "cross_references": []
      },
      "description": {
        "original_name": "Description",
        "value": "Colorless liquid; [CAMEO] Clear light yellow liquid; [Sigma-Aldrich MSDS]",
        "links": [],
        "cross_references": [
          {
            "type": "name_match",
            "text": "ht",
            "confidence": 1.0,
            "uuid": "764df367-8d53-4a11-81a2-31ccfe122a8d",
            "name": "HT",
            "url": "https://haz-map.com/Agents/2168",
            "category": "agents"
          }
        ]
      },
      "sourcesuses": {
        "original_name": "Sources/Uses",
        "value": "Used in chemical manufacture; [CAMEO]",
        "links": [],
        "cross_references": [
          {
            "type": "name_match",
            "text": "mica",
            "confidence": 1.0,
            "uuid": "433f26f1-c399-4596-b179-ce3843cfd465",
            "name": "Mica",
            "url": "https://haz-map.com/Agents/621",
            "category": "agents"
          }
        ]
      },
      "comments": {
        "original_name": "Comments",
        "value": "May polymerize; Inhalation of high concentrations may cause narcotic effects; [CAMEO] May cause irritation; [Sigma-Aldrich MSDS] See \"Cyclohexene,\" \"1,5,9-Cyclododecatriene,\" and \"Cycloheptatriene.\"",
        "links": [],
        "cross_references": [
          {
            "type": "name_match",
            "text": "cyclohexene",
            "confidence": 1.0,
            "uuid": "899603b1-ebcd-41d9-a67b-1e8d7d4eee3f",
            "name": "Cyclohexene",
            "url": "https://haz-map.com/Agents/1173",
            "category": "agents"
          },
          {
            "type": "name_match",
            "text": "1,5,9-cyclododecatriene",
            "confidence": 1.0,
            "uuid": "2319f82c-18e3-406e-be17-7824fa7034ad",
            "name": "1,5,9-Cyclododecatriene",
            "url": "https://haz-map.com/Agents/2830",
            "category": "agents"
          },
          {
            "type": "name_match",
            "text": "hexene",
            "confidence": 1.0,
            "uuid": "592a6801-2d0b-441f-b3f6-6d67971256b7",
            "name": "Hexene",
            "url": "https://haz-map.com/Agents/5534",
            "category": "agents"
          },
          {
            "type": "name_match",
            "text": "cycloheptatriene",
            "confidence": 1.0,
            "uuid": "544f9b57-2801-4828-9e38-83fc5d4ea858",
            "name": "Cycloheptatriene",
            "url": "https://haz-map.com/Agents/20496",
            "category": "agents"
          }
        ]
      },
      "biomedical_references": {
        "original_name": "Biomedical References",
        "value": "Search PubMed",
        "links": [
          {
            "text": "Search PubMed",
            "url": "https://www.ncbi.nlm.nih.gov/pubmed?term=Cycloheptene%20AND%20human%5Bmh%5D%20AND%20%28Occupational%20Diseases%20%5Bmh%5D%20OR%20Occupational%20Exposure%20%5Bmh%5D%29%20%20AND%20%28tox%5Bsb%5D%29&cmd=search"
          }
        ],
        "cross_references": []
      }
    },
    "exposure_assessment": {
      "vapor_pressure": {
        "original_name": "Vapor Pressure",
        "value": "19.7 mm Hg",
        "links": [],
        "cross_references": []
      },
      "nfpa": {
        "original_name": "NFPA",
        "value": "may ignite at ambient temp",
        "links": [],
        "cross_references": []
      }
    },
    "adverse_effects": {
      "neurotoxin": {
        "original_name": "Neurotoxin",
        "value": "Acute solvent syndrome",
        "links": [],
        "cross_references": []
      }
    },
    "diseases_processes_and_activities_linked_to_this_agent": {
      "diseases": {
        "original_name": "Diseases",
        "value": "Occupational diseases associated with exposure to this agent: Solvents, acute toxic effect",
        "links": [
          {
            "text": "Solvents, acute toxic effect",
            "url": "https://haz-map.com/Diseases/326"
          }
        ],
        "cross_references": [
          {
            "type": "url_match",
            "text": "Solvents, acute toxic effect",
            "url": "https://haz-map.com/Diseases/326",
            "confidence": 1.0,
            "uuid": "581e90e3-9d0c-45f0-aa6c-3468c28da129",
            "name": "Solvents, acute toxic effect",
            "category": "diseases"
          }
        ]
      }
    }
  },
  "cross_references": [
    {
      "type": "url_match",
      "text": "Solvents, acute toxic effect",
      "url": "https://haz-map.com/Diseases/326",
      "confidence": 1.0,
      "uuid": "581e90e3-9d0c-45f0-aa6c-3468c28da129",
      "name": "Solvents, acute toxic effect",
      "category": "diseases"
    },
    {
      "type": "name_match",
      "text": "mica",
      "confidence": 1.0,
      "uuid": "433f26f1-c399-4596-b179-ce3843cfd465",
      "name": "Mica",
      "url": "https://haz-map.com/Agents/621",
      "category": "agents"
    },
    {
      "type": "name_match",
      "text": "cyclohexene",
      "confidence": 1.0,
      "uuid": "899603b1-ebcd-41d9-a67b-1e8d7d4eee3f",
      "name": "Cyclohexene",
      "url": "https://haz-map.com/Agents/1173",
      "category": "agents"
    },
    {
      "type": "name_match",
      "text": "ht",
      "confidence": 1.0,
      "uuid": "764df367-8d53-4a11-81a2-31ccfe122a8d",
      "name": "HT",
      "url": "https://haz-map.com/Agents/2168",
      "category": "agents"
    },
    {
      "type": "name_match",
      "text": "1,5,9-cyclododecatriene",
      "confidence": 1.0,
      "uuid": "2319f82c-18e3-406e-be17-7824fa7034ad",
      "name": "1,5,9-Cyclododecatriene",
      "url": "https://haz-map.com/Agents/2830",
      "category": "agents"
    },
    {
      "type": "name_match",
      "text": "hexene",
      "confidence": 1.0,
      "uuid": "592a6801-2d0b-441f-b3f6-6d67971256b7",
      "name": "Hexene",
      "url": "https://haz-map.com/Agents/5534",
      "category": "agents"
    },
    {
      "type": "name_match",
      "text": "heptene",
      "confidence": 1.0,
      "uuid": "a41f7be2-f9f6-47de-967c-2683b506d55d",
      "name": "Heptene",
      "url": "https://haz-map.com/Agents/14566",
      "category": "agents"
    },
    {
      "type": "name_match",
      "text": "cycloheptatriene",
      "confidence": 1.0,
      "uuid": "544f9b57-2801-4828-9e38-83fc5d4ea858",
      "name": "Cycloheptatriene",
      "url": "https://haz-map.com/Agents/20496",
      "category": "agents"
    },
    {
      "type": "name_match",
      "text": "cycloheptene",
      "confidence": 1.0,
      "uuid": "5048ca1f-1285-4c2d-a094-120e20d1163f",
      "name": "Cycloheptene",
      "url": "https://haz-map.com/Agents/20497",
      "category": "agents"
    }
  ],
  "all_links": [
    {
      "text": "Search PubMed",
      "url": "https://www.ncbi.nlm.nih.gov/pubmed?term=Cycloheptene%20AND%20human%5Bmh%5D%20AND%20%28Occupational%20Diseases%20%5Bmh%5D%20OR%20Occupational%20Exposure%20%5Bmh%5D%29%20%20AND%20%28tox%5Bsb%5D%29&cmd=search"
    },
    {
      "text": "Solvents, acute toxic effect",
      "url": "https://haz-map.com/Diseases/326"
    }
  ]
}