{
  "metadata": {
    "scraped_from": "https://haz-map.com/Agents/14208",
    "entity_name": "Ethyl perfluorobutyl ether",
    "category": "agents",
    "uuid": "50b505a6-03df-43b5-9947-2c5d9514db96",
    "scraped_at": "2025-07-23T21:21:18.263029"
  },
  "parsed_at": "2025-07-24T00:52:13.057362",
  "title": "Ethyl perfluorobutyl ether",
  "sections": {
    "general": {
      "agent_name": {
        "original_name": "Agent Name",
        "value": "Ethyl perfluorobutyl ether",
        "links": [],
        "cross_references": [
          {
            "type": "name_match",
            "text": "ethyl perfluorobutyl ether",
            "confidence": 1.0,
            "uuid": "50b505a6-03df-43b5-9947-2c5d9514db96",
            "name": "Ethyl perfluorobutyl ether",
            "url": "https://haz-map.com/Agents/14208",
            "category": "agents"
          }
        ]
      },
      "cas_number": {
        "original_name": "CAS Number",
        "value": "163702-05-4",
        "links": [],
        "cross_references": []
      },
      "formula": {
        "original_name": "Formula",
        "value": "C6-H5-F9-O",
        "links": [],
        "cross_references": []
      },
      "major_category": {
        "original_name": "Major Category",
        "value": "Other Classes",
        "links": [],
        "cross_references": []
      },
      "synonyms": {
        "original_name": "Synonyms",
        "value": "Butane, 1-ethoxy-1,1,2,2,3,3,4,4,4-nonafluoro-; [ChemIDplus] 1-(Ethoxy)nonafluorobutane; [Matrix Scientific MSDS]",
        "links": [],
        "cross_references": []
      },
      "category": {
        "original_name": "Category",
        "value": "Halogenated Ethers",
        "links": [],
        "cross_references": []
      },
      "description": {
        "original_name": "Description",
        "value": "Clear colorless liquid; Low odor; [OSHA]",
        "links": [],
        "cross_references": []
      },
      "sourcesuses": {
        "original_name": "Sources/Uses",
        "value": "Used for research and development; [Matrix Scientific MSDS]",
        "links": [],
        "cross_references": []
      },
      "comments": {
        "original_name": "Comments",
        "value": "An irritant; [Matrix Scientific MSDS] See \"Ethyl perfluoroisobutyl ether.\"",
        "links": [],
        "cross_references": [
          {
            "type": "name_match",
            "text": "ethyl perfluoroisobutyl ether",
            "confidence": 1.0,
            "uuid": "d6c8346f-7fbd-4a5f-ab50-bd064ad64448",
            "name": "Ethyl perfluoroisobutyl ether",
            "url": "https://haz-map.com/Agents/14209",
            "category": "agents"
          }
        ]
      },
      "biomedical_references": {
        "original_name": "Biomedical References",
        "value": "Search PubMed",
        "links": [
          {
            "text": "Search PubMed",
            "url": "https://www.ncbi.nlm.nih.gov/pubmed?term=Ethyl+perfluorobutyl+ether%20AND%20human%5Bmh%5D%20AND%20%28Occupational%20Diseases%20%5Bmh%5D%20OR%20Occupational%20Exposure%20%5Bmh%5D%29%20%20AND%20%28tox%5Bsb%5D%29&cmd=search"
          }
        ],
        "cross_references": []
      }
    },
    "exposure_assessment": {
      "vapor_pressure": {
        "original_name": "Vapor Pressure",
        "value": "109 mm Hg",
        "links": [],
        "cross_references": []
      }
    },
    "diseases_processes_and_activities_linked_to_this_agent": {
      "other_information": {
        "original_name": "Other Information",
        "value": "No other related information on this agent was found.",
        "links": [],
        "cross_references": []
      }
    }
  },
  "cross_references": [
    {
      "type": "name_match",
      "text": "ethyl perfluorobutyl ether",
      "confidence": 1.0,
      "uuid": "50b505a6-03df-43b5-9947-2c5d9514db96",
      "name": "Ethyl perfluorobutyl ether",
      "url": "https://haz-map.com/Agents/14208",
      "category": "agents"
    },
    {
      "type": "name_match",
      "text": "ethyl perfluoroisobutyl ether",
      "confidence": 1.0,
      "uuid": "d6c8346f-7fbd-4a5f-ab50-bd064ad64448",
      "name": "Ethyl perfluoroisobutyl ether",
      "url": "https://haz-map.com/Agents/14209",
      "category": "agents"
    }
  ],
  "all_links": [
    {
      "text": "Search PubMed",
      "url": "https://www.ncbi.nlm.nih.gov/pubmed?term=Ethyl+perfluorobutyl+ether%20AND%20human%5Bmh%5D%20AND%20%28Occupational%20Diseases%20%5Bmh%5D%20OR%20Occupational%20Exposure%20%5Bmh%5D%29%20%20AND%20%28tox%5Bsb%5D%29&cmd=search"
    }
  ]
}