{
  "metadata": {
    "scraped_from": "https://haz-map.com/Agents/15751",
    "entity_name": "N,N,N',N'-Tetramethylbenzidine",
    "category": "agents",
    "uuid": "516bb54e-28a5-419c-9b74-612c19ddd30c",
    "scraped_at": "2025-07-23T21:31:59.903633"
  },
  "parsed_at": "2025-07-24T01:03:03.996339",
  "title": "N,N,N',N'-Tetramethylbenzidine",
  "sections": {
    "general": {
      "agent_name": {
        "original_name": "Agent Name",
        "value": "N,N,N',N'-Tetramethylbenzidine",
        "links": [],
        "cross_references": [
          {
            "type": "name_match",
            "text": "benzidine",
            "confidence": 1.0,
            "uuid": "c00ca5d5-2820-4d3a-9dc6-5d1d2b33ccbd",
            "name": "Benzidine",
            "url": "https://haz-map.com/Agents/87",
            "category": "agents"
          },
          {
            "type": "name_match",
            "text": "n,n,n',n'-tetramethylbenzidine",
            "confidence": 1.0,
            "uuid": "516bb54e-28a5-419c-9b74-612c19ddd30c",
            "name": "N,N,N',N'-Tetramethylbenzidine",
            "url": "https://haz-map.com/Agents/15751",
            "category": "agents"
          }
        ]
      },
      "cas_number": {
        "original_name": "CAS Number",
        "value": "366-29-0",
        "links": [],
        "cross_references": []
      },
      "formula": {
        "original_name": "Formula",
        "value": "C16-H20-N2",
        "links": [],
        "cross_references": []
      },
      "major_category": {
        "original_name": "Major Category",
        "value": "Nitrogen Compounds",
        "links": [],
        "cross_references": [
          {
            "type": "name_match",
            "text": "nitrogen",
            "confidence": 1.0,
            "uuid": "db5e90a9-06d2-45b9-8b81-f345a89b0bc0",
            "name": "Nitrogen",
            "url": "https://haz-map.com/Agents/1072",
            "category": "agents"
          }
        ]
      },
      "synonyms": {
        "original_name": "Synonyms",
        "value": "(1,1'-Biphenyl)-4,4'-diamine, N,N,N',N'-tetramethyl-; 4,4'-Bis(N,N-dimethylamino)biphenyl; N,N,N',N'-Tetramethyl-p,p'-benzidine; (1,1'-Biphenyl)-4,4'-diamine, N4,N4,N4',N4'-tetramethyl-; Benzidine, N,N,N',N'-tetramethyl-; N,N,N',N'-Tetramethyl-(1,1'-biphenyl)-4,4'-diamine; [ChemIDplus]",
        "links": [],
        "cross_references": [
          {
            "type": "name_match",
            "text": "benzidine",
            "confidence": 1.0,
            "uuid": "c00ca5d5-2820-4d3a-9dc6-5d1d2b33ccbd",
            "name": "Benzidine",
            "url": "https://haz-map.com/Agents/87",
            "category": "agents"
          },
          {
            "type": "name_match",
            "text": "biphenyl",
            "confidence": 1.0,
            "uuid": "740f90cb-888a-4a3b-b9ae-30768927fec2",
            "name": "Biphenyl",
            "url": "https://haz-map.com/Agents/306",
            "category": "agents"
          }
        ]
      },
      "category": {
        "original_name": "Category",
        "value": "Benzidine and Derivatives",
        "links": [],
        "cross_references": [
          {
            "type": "name_match",
            "text": "benzidine",
            "confidence": 1.0,
            "uuid": "c00ca5d5-2820-4d3a-9dc6-5d1d2b33ccbd",
            "name": "Benzidine",
            "url": "https://haz-map.com/Agents/87",
            "category": "agents"
          }
        ]
      },
      "description": {
        "original_name": "Description",
        "value": "Solid; [Sigma-Aldrich MSDS]",
        "links": [],
        "cross_references": []
      },
      "comments": {
        "original_name": "Comments",
        "value": "A skin and strong eye irritant; [Sigma-Aldrich MSDS] See \"Benzidine.\"",
        "links": [],
        "cross_references": [
          {
            "type": "name_match",
            "text": "benzidine",
            "confidence": 1.0,
            "uuid": "c00ca5d5-2820-4d3a-9dc6-5d1d2b33ccbd",
            "name": "Benzidine",
            "url": "https://haz-map.com/Agents/87",
            "category": "agents"
          }
        ]
      },
      "biomedical_references": {
        "original_name": "Biomedical References",
        "value": "Search PubMed",
        "links": [
          {
            "text": "Search PubMed",
            "url": "https://www.ncbi.nlm.nih.gov/pubmed?term=N%2cN%2cN%26%2339%3b%2cN%26%2339%3b-Tetramethylbenzidine%20AND%20human%5Bmh%5D%20AND%20%28Occupational%20Diseases%20%5Bmh%5D%20OR%20Occupational%20Exposure%20%5Bmh%5D%29%20%20AND%20%28tox%5Bsb%5D%29&cmd=search"
          }
        ],
        "cross_references": []
      }
    },
    "exposure_assessment": {
      "vapor_pressure": {
        "original_name": "Vapor Pressure",
        "value": "1.63E-05 mm Hg",
        "links": [],
        "cross_references": []
      }
    },
    "diseases_processes_and_activities_linked_to_this_agent": {
      "other_information": {
        "original_name": "Other Information",
        "value": "No other related information on this agent was found.",
        "links": [],
        "cross_references": []
      }
    }
  },
  "cross_references": [
    {
      "type": "name_match",
      "text": "benzidine",
      "confidence": 1.0,
      "uuid": "c00ca5d5-2820-4d3a-9dc6-5d1d2b33ccbd",
      "name": "Benzidine",
      "url": "https://haz-map.com/Agents/87",
      "category": "agents"
    },
    {
      "type": "name_match",
      "text": "biphenyl",
      "confidence": 1.0,
      "uuid": "740f90cb-888a-4a3b-b9ae-30768927fec2",
      "name": "Biphenyl",
      "url": "https://haz-map.com/Agents/306",
      "category": "agents"
    },
    {
      "type": "name_match",
      "text": "nitrogen",
      "confidence": 1.0,
      "uuid": "db5e90a9-06d2-45b9-8b81-f345a89b0bc0",
      "name": "Nitrogen",
      "url": "https://haz-map.com/Agents/1072",
      "category": "agents"
    },
    {
      "type": "name_match",
      "text": "n,n,n',n'-tetramethylbenzidine",
      "confidence": 1.0,
      "uuid": "516bb54e-28a5-419c-9b74-612c19ddd30c",
      "name": "N,N,N',N'-Tetramethylbenzidine",
      "url": "https://haz-map.com/Agents/15751",
      "category": "agents"
    }
  ],
  "all_links": [
    {
      "text": "Search PubMed",
      "url": "https://www.ncbi.nlm.nih.gov/pubmed?term=N%2cN%2cN%26%2339%3b%2cN%26%2339%3b-Tetramethylbenzidine%20AND%20human%5Bmh%5D%20AND%20%28Occupational%20Diseases%20%5Bmh%5D%20OR%20Occupational%20Exposure%20%5Bmh%5D%29%20%20AND%20%28tox%5Bsb%5D%29&cmd=search"
    }
  ]
}