{
  "metadata": {
    "scraped_from": "https://haz-map.com/Agents/545",
    "entity_name": "4-Methoxyphenol",
    "category": "agents",
    "uuid": "517d8f3f-b08a-45f2-acf1-fe45892b9660",
    "scraped_at": "2025-07-23T18:44:03.517328"
  },
  "parsed_at": "2025-07-24T00:54:20.955485",
  "title": "4-Methoxyphenol",
  "sections": {
    "general": {
      "agent_name": {
        "original_name": "Agent Name",
        "value": "4-Methoxyphenol",
        "links": [],
        "cross_references": [
          {
            "type": "name_match",
            "text": "phenol",
            "confidence": 1.0,
            "uuid": "03141a03-a7df-4f51-9a37-adde1a7c4b31",
            "name": "Phenol",
            "url": "https://haz-map.com/Agents/84",
            "category": "agents"
          },
          {
            "type": "name_match",
            "text": "4-methoxyphenol",
            "confidence": 1.0,
            "uuid": "517d8f3f-b08a-45f2-acf1-fe45892b9660",
            "name": "4-Methoxyphenol",
            "url": "https://haz-map.com/Agents/545",
            "category": "agents"
          }
        ]
      },
      "cas_number": {
        "original_name": "CAS Number",
        "value": "150-76-5",
        "links": [],
        "cross_references": []
      },
      "formula": {
        "original_name": "Formula",
        "value": "C7-H8-O2",
        "links": [],
        "cross_references": []
      },
      "major_category": {
        "original_name": "Major Category",
        "value": "Other Classes",
        "links": [],
        "cross_references": []
      },
      "synonyms": {
        "original_name": "Synonyms",
        "value": "1-Hydroxy-4-methoxybenzene; 4-Hydroxyanisole; 4-Methoxyphenol; BMS 181158;HQMME; Hydroquinone methyl ether; Hydroquinone monomethyl ether; Leucobasal; Leucodine B; MEHQ; Mechinolo [DCIT]; Mechinolum; Mequinol; Mequinolum [INN-Latin]; Mono methyl ether hydroquinone; Monomethyl ether hydroquinone; Novo-Dermoquinona; P-Guaiacol; PMF (antioxidant); Phenol, 4-methoxy-; p-Guaiacol; p-Hydroxyanisole; p-Hydroxymethoxybenzene; p-Methoxyphenol; [ChemIDplus]",
        "links": [],
        "cross_references": [
          {
            "type": "name_match",
            "text": "benzene",
            "confidence": 1.0,
            "uuid": "b05124de-5f34-4c14-8f04-ccb20c3780d9",
            "name": "Benzene",
            "url": "https://haz-map.com/Agents/5",
            "category": "agents"
          },
          {
            "type": "name_match",
            "text": "phenol",
            "confidence": 1.0,
            "uuid": "03141a03-a7df-4f51-9a37-adde1a7c4b31",
            "name": "Phenol",
            "url": "https://haz-map.com/Agents/84",
            "category": "agents"
          },
          {
            "type": "name_match",
            "text": "quinone",
            "confidence": 1.0,
            "uuid": "d01e66c3-ad06-4707-8d42-3c6655001c1a",
            "name": "Quinone",
            "url": "https://haz-map.com/Agents/303",
            "category": "agents"
          },
          {
            "type": "name_match",
            "text": "ethyl ether",
            "confidence": 1.0,
            "uuid": "c95edddc-9ad3-44f8-bafa-78e0bd19db3a",
            "name": "Ethyl ether",
            "url": "https://haz-map.com/Agents/455",
            "category": "agents"
          },
          {
            "type": "name_match",
            "text": "hydroquinone",
            "confidence": 1.0,
            "uuid": "814158df-432a-4bfa-b22a-481088e15397",
            "name": "Hydroquinone",
            "url": "https://haz-map.com/Agents/518",
            "category": "agents"
          },
          {
            "type": "name_match",
            "text": "4-methoxyphenol",
            "confidence": 1.0,
            "uuid": "517d8f3f-b08a-45f2-acf1-fe45892b9660",
            "name": "4-Methoxyphenol",
            "url": "https://haz-map.com/Agents/545",
            "category": "agents"
          },
          {
            "type": "name_match",
            "text": "anisole",
            "confidence": 1.0,
            "uuid": "f122d940-2dba-441c-9dbf-c185355d4cb0",
            "name": "Anisole",
            "url": "https://haz-map.com/Agents/3708",
            "category": "agents"
          },
          {
            "type": "name_match",
            "text": "guaiac",
            "confidence": 1.0,
            "uuid": "121d7143-e460-418d-aee6-b4968271b421",
            "name": "Guaiac",
            "url": "https://haz-map.com/Agents/5470",
            "category": "agents"
          },
          {
            "type": "name_match",
            "text": "guaiacol",
            "confidence": 1.0,
            "uuid": "b09c0f2d-8789-4e66-bba9-b8c01e4aab62",
            "name": "Guaiacol",
            "url": "https://haz-map.com/Agents/6413",
            "category": "agents"
          }
        ]
      },
      "category": {
        "original_name": "Category",
        "value": "Other Organic Compounds",
        "links": [],
        "cross_references": [
          {
            "type": "fuzzy_match",
            "text": "organic compounds",
            "matched_name": "Tin, organic compounds",
            "confidence": 0.8196969696969697,
            "uuid": "e027d413-8869-4308-9eb2-27d768b011ea",
            "category": "agents",
            "url": "https://haz-map.com/Agents/656"
          }
        ]
      },
      "description": {
        "original_name": "Description",
        "value": "Colorless to white, waxy solid with an odor of caramel & phenol; [NIOSH]",
        "links": [],
        "cross_references": [
          {
            "type": "name_match",
            "text": "phenol",
            "confidence": 1.0,
            "uuid": "03141a03-a7df-4f51-9a37-adde1a7c4b31",
            "name": "Phenol",
            "url": "https://haz-map.com/Agents/84",
            "category": "agents"
          }
        ]
      },
      "sourcesuses": {
        "original_name": "Sources/Uses",
        "value": "Used as an inhibitor of acrylic monomers, a stabilizer of organic solvents, an ultraviolet inhibitor, and a chemical intermediate; [ACGIH]",
        "links": [],
        "cross_references": [
          {
            "type": "name_match",
            "text": "mica",
            "confidence": 1.0,
            "uuid": "433f26f1-c399-4596-b179-ce3843cfd465",
            "name": "Mica",
            "url": "https://haz-map.com/Agents/621",
            "category": "agents"
          },
          {
            "type": "name_match",
            "text": "organic solvents",
            "confidence": 1.0,
            "uuid": "88fb27e7-67c0-4bb2-8d7c-fc144b0dd20f",
            "name": "ORGANIC SOLVENTS",
            "url": "https://haz-map.com/Agents/768",
            "category": "agents"
          }
        ]
      },
      "comments": {
        "original_name": "Comments",
        "value": "Can cause leukoderma (depigmentation of skin); [LaDou, p. 328] \"Symptoms: Irritation eyes, skin, nose, throat, upper respiratory system; eye, skin burns; central nervous system depression\"; [CAMEO] A skin and eye irritant and can cause depigmentation of the skin; A potential skin sensitizer; [ICSC]",
        "links": [],
        "cross_references": [
          {
            "type": "name_match",
            "text": "burn",
            "confidence": 1.0,
            "uuid": "63665de5-6376-4918-8dbf-4c10c4d63837",
            "name": "burn",
            "url": "https://haz-map.com/Findings/204",
            "category": "findings"
          }
        ]
      },
      "biomedical_references": {
        "original_name": "Biomedical References",
        "value": "Search PubMed",
        "links": [
          {
            "text": "Search PubMed",
            "url": "https://www.ncbi.nlm.nih.gov/pubmed?term=4-Methoxyphenol%20AND%20human%5Bmh%5D%20AND%20%28Occupational%20Diseases%20%5Bmh%5D%20OR%20Occupational%20Exposure%20%5Bmh%5D%29%20%20AND%20%28tox%5Bsb%5D%29&cmd=search"
          }
        ],
        "cross_references": []
      }
    },
    "exposure_assessment": {
      "skin_designation_acgih": {
        "original_name": "Skin Designation (ACGIH)",
        "value": "Insufficient data",
        "links": [],
        "cross_references": []
      },
      "tlv_acgih": {
        "original_name": "TLV (ACGIH)",
        "value": "5 mg/m3",
        "links": [],
        "cross_references": []
      },
      "vapor_pressure": {
        "original_name": "Vapor Pressure",
        "value": "0.0083 mm Hg",
        "links": [],
        "cross_references": []
      },
      "explanatory_notes": {
        "original_name": "Explanatory Notes",
        "value": "Flash point = 132 deg C;",
        "links": [],
        "cross_references": [
          {
            "type": "name_match",
            "text": "ash",
            "confidence": 1.0,
            "uuid": "68b360f1-5ad0-4337-bea0-d7adca2961b5",
            "name": "Ash",
            "url": "https://haz-map.com/Agents/965",
            "category": "agents"
          }
        ]
      },
      "nfpa": {
        "original_name": "NFPA",
        "value": "must be preheated",
        "links": [],
        "cross_references": []
      }
    },
    "diseases_processes_and_activities_linked_to_this_agent": {
      "processes": {
        "original_name": "Processes",
        "value": "Industrial Processes with risk of exposure: Plastic Composites Manufacturing",
        "links": [
          {
            "text": "Plastic Composites Manufacturing",
            "url": "https://haz-map.com/Processes/222"
          }
        ],
        "cross_references": [
          {
            "type": "url_match",
            "text": "Plastic Composites Manufacturing",
            "url": "https://haz-map.com/Processes/222",
            "confidence": 1.0,
            "uuid": "d4461b82-dc77-4172-8e3d-0a5e3b213911",
            "name": "Plastic Composites Manufacturing",
            "category": "processes"
          }
        ]
      }
    }
  },
  "cross_references": [
    {
      "type": "url_match",
      "text": "Plastic Composites Manufacturing",
      "url": "https://haz-map.com/Processes/222",
      "confidence": 1.0,
      "uuid": "d4461b82-dc77-4172-8e3d-0a5e3b213911",
      "name": "Plastic Composites Manufacturing",
      "category": "processes"
    },
    {
      "type": "name_match",
      "text": "burn",
      "confidence": 1.0,
      "uuid": "63665de5-6376-4918-8dbf-4c10c4d63837",
      "name": "burn",
      "url": "https://haz-map.com/Findings/204",
      "category": "findings"
    },
    {
      "type": "name_match",
      "text": "benzene",
      "confidence": 1.0,
      "uuid": "b05124de-5f34-4c14-8f04-ccb20c3780d9",
      "name": "Benzene",
      "url": "https://haz-map.com/Agents/5",
      "category": "agents"
    },
    {
      "type": "name_match",
      "text": "phenol",
      "confidence": 1.0,
      "uuid": "03141a03-a7df-4f51-9a37-adde1a7c4b31",
      "name": "Phenol",
      "url": "https://haz-map.com/Agents/84",
      "category": "agents"
    },
    {
      "type": "name_match",
      "text": "quinone",
      "confidence": 1.0,
      "uuid": "d01e66c3-ad06-4707-8d42-3c6655001c1a",
      "name": "Quinone",
      "url": "https://haz-map.com/Agents/303",
      "category": "agents"
    },
    {
      "type": "name_match",
      "text": "ethyl ether",
      "confidence": 1.0,
      "uuid": "c95edddc-9ad3-44f8-bafa-78e0bd19db3a",
      "name": "Ethyl ether",
      "url": "https://haz-map.com/Agents/455",
      "category": "agents"
    },
    {
      "type": "name_match",
      "text": "hydroquinone",
      "confidence": 1.0,
      "uuid": "814158df-432a-4bfa-b22a-481088e15397",
      "name": "Hydroquinone",
      "url": "https://haz-map.com/Agents/518",
      "category": "agents"
    },
    {
      "type": "name_match",
      "text": "4-methoxyphenol",
      "confidence": 1.0,
      "uuid": "517d8f3f-b08a-45f2-acf1-fe45892b9660",
      "name": "4-Methoxyphenol",
      "url": "https://haz-map.com/Agents/545",
      "category": "agents"
    },
    {
      "type": "name_match",
      "text": "mica",
      "confidence": 1.0,
      "uuid": "433f26f1-c399-4596-b179-ce3843cfd465",
      "name": "Mica",
      "url": "https://haz-map.com/Agents/621",
      "category": "agents"
    },
    {
      "type": "name_match",
      "text": "organic solvents",
      "confidence": 1.0,
      "uuid": "88fb27e7-67c0-4bb2-8d7c-fc144b0dd20f",
      "name": "ORGANIC SOLVENTS",
      "url": "https://haz-map.com/Agents/768",
      "category": "agents"
    },
    {
      "type": "name_match",
      "text": "ash",
      "confidence": 1.0,
      "uuid": "68b360f1-5ad0-4337-bea0-d7adca2961b5",
      "name": "Ash",
      "url": "https://haz-map.com/Agents/965",
      "category": "agents"
    },
    {
      "type": "name_match",
      "text": "anisole",
      "confidence": 1.0,
      "uuid": "f122d940-2dba-441c-9dbf-c185355d4cb0",
      "name": "Anisole",
      "url": "https://haz-map.com/Agents/3708",
      "category": "agents"
    },
    {
      "type": "name_match",
      "text": "guaiac",
      "confidence": 1.0,
      "uuid": "121d7143-e460-418d-aee6-b4968271b421",
      "name": "Guaiac",
      "url": "https://haz-map.com/Agents/5470",
      "category": "agents"
    },
    {
      "type": "name_match",
      "text": "guaiacol",
      "confidence": 1.0,
      "uuid": "b09c0f2d-8789-4e66-bba9-b8c01e4aab62",
      "name": "Guaiacol",
      "url": "https://haz-map.com/Agents/6413",
      "category": "agents"
    },
    {
      "type": "fuzzy_match",
      "text": "organic compounds",
      "matched_name": "Tin, organic compounds",
      "confidence": 0.8196969696969697,
      "uuid": "e027d413-8869-4308-9eb2-27d768b011ea",
      "category": "agents",
      "url": "https://haz-map.com/Agents/656"
    }
  ],
  "all_links": [
    {
      "text": "Search PubMed",
      "url": "https://www.ncbi.nlm.nih.gov/pubmed?term=4-Methoxyphenol%20AND%20human%5Bmh%5D%20AND%20%28Occupational%20Diseases%20%5Bmh%5D%20OR%20Occupational%20Exposure%20%5Bmh%5D%29%20%20AND%20%28tox%5Bsb%5D%29&cmd=search"
    },
    {
      "text": "Plastic Composites Manufacturing",
      "url": "https://haz-map.com/Processes/222"
    }
  ]
}