{
  "metadata": {
    "scraped_from": "https://haz-map.com/Agents/20883",
    "entity_name": "Ethyldiethanolamine",
    "category": "agents",
    "uuid": "51c0882e-8a0f-451a-ab93-0c9d09bde3f6",
    "scraped_at": "2025-07-23T22:33:40.049471"
  },
  "parsed_at": "2025-07-24T00:54:09.314815",
  "title": "Ethyldiethanolamine",
  "sections": {
    "general": {
      "agent_name": {
        "original_name": "Agent Name",
        "value": "Ethyldiethanolamine",
        "links": [],
        "cross_references": [
          {
            "type": "name_match",
            "text": "ethanolamine",
            "confidence": 1.0,
            "uuid": "16354994-9346-496d-9e19-23d8a4473ab4",
            "name": "Ethanolamine",
            "url": "https://haz-map.com/Agents/288",
            "category": "agents"
          },
          {
            "type": "name_match",
            "text": "diethanolamine",
            "confidence": 1.0,
            "uuid": "588b3cdf-df43-41d8-8417-60aaa610fb49",
            "name": "Diethanolamine",
            "url": "https://haz-map.com/Agents/454",
            "category": "agents"
          },
          {
            "type": "name_match",
            "text": "ethyldiethanolamine",
            "confidence": 1.0,
            "uuid": "51c0882e-8a0f-451a-ab93-0c9d09bde3f6",
            "name": "Ethyldiethanolamine",
            "url": "https://haz-map.com/Agents/20883",
            "category": "agents"
          }
        ]
      },
      "cas_number": {
        "original_name": "CAS Number",
        "value": "139-87-7",
        "links": [],
        "cross_references": []
      },
      "formula": {
        "original_name": "Formula",
        "value": "C6-H15-N-O2",
        "links": [],
        "cross_references": []
      },
      "major_category": {
        "original_name": "Major Category",
        "value": "Nitrogen Compounds",
        "links": [],
        "cross_references": [
          {
            "type": "name_match",
            "text": "nitrogen",
            "confidence": 1.0,
            "uuid": "db5e90a9-06d2-45b9-8b81-f345a89b0bc0",
            "name": "Nitrogen",
            "url": "https://haz-map.com/Agents/1072",
            "category": "agents"
          }
        ]
      },
      "synonyms": {
        "original_name": "Synonyms",
        "value": "2,2'-(Ethylimino)bisethanol; 2,2'-(Ethylimino)diethanol; 2-(N-Ethyl-N-2-hydroxyethylamino)ethanol; Diethanolethylamine; Ethyl diethanolamine; Ethylbis(2-hydroxyethyl)amine; N-Ethyl-2,2'-iminodiethanol; N-Ethyldiethanolamine; Ethanol, 2,2'-(ethylimino)bis-; Ethanol, 2,2'-(ethylimino)di-; [ChemIDplus] 2,2′-Ethyliminodiethanol; [Sigma-Aldrich MSDS]",
        "links": [],
        "cross_references": [
          {
            "type": "name_match",
            "text": "ethylamine",
            "confidence": 1.0,
            "uuid": "41ca4da8-b990-420a-86b2-3d77404fb7f4",
            "name": "Ethylamine",
            "url": "https://haz-map.com/Agents/220",
            "category": "agents"
          },
          {
            "type": "name_match",
            "text": "ethanolamine",
            "confidence": 1.0,
            "uuid": "16354994-9346-496d-9e19-23d8a4473ab4",
            "name": "Ethanolamine",
            "url": "https://haz-map.com/Agents/288",
            "category": "agents"
          },
          {
            "type": "name_match",
            "text": "diethanolamine",
            "confidence": 1.0,
            "uuid": "588b3cdf-df43-41d8-8417-60aaa610fb49",
            "name": "Diethanolamine",
            "url": "https://haz-map.com/Agents/454",
            "category": "agents"
          },
          {
            "type": "name_match",
            "text": "ethyldiethanolamine",
            "confidence": 1.0,
            "uuid": "51c0882e-8a0f-451a-ab93-0c9d09bde3f6",
            "name": "Ethyldiethanolamine",
            "url": "https://haz-map.com/Agents/20883",
            "category": "agents"
          }
        ]
      },
      "category": {
        "original_name": "Category",
        "value": "Ethanolamines",
        "links": [],
        "cross_references": [
          {
            "type": "name_match",
            "text": "ethanolamine",
            "confidence": 1.0,
            "uuid": "16354994-9346-496d-9e19-23d8a4473ab4",
            "name": "Ethanolamine",
            "url": "https://haz-map.com/Agents/288",
            "category": "agents"
          }
        ]
      },
      "description": {
        "original_name": "Description",
        "value": "Water-white or yellow liquid with an amine odor; [HSDB] Light yellow liquid; [Sigma-Aldrich MSDS]",
        "links": [],
        "cross_references": [
          {
            "type": "name_match",
            "text": "ht",
            "confidence": 1.0,
            "uuid": "764df367-8d53-4a11-81a2-31ccfe122a8d",
            "name": "HT",
            "url": "https://haz-map.com/Agents/2168",
            "category": "agents"
          },
          {
            "type": "name_match",
            "text": "water",
            "confidence": 1.0,
            "uuid": "6f2a7557-dfd2-49bc-9b4b-a93cd8e225d4",
            "name": "Water",
            "url": "https://haz-map.com/Agents/18668",
            "category": "agents"
          }
        ]
      },
      "sourcesuses": {
        "original_name": "Sources/Uses",
        "value": "Used as a precursor to nitrogen mustard (HN-1), as a solvent, and in detergents; [HSDB] Permitted for use as an inert ingredient in non-food pesticide products; [EPA]",
        "links": [],
        "cross_references": [
          {
            "type": "name_match",
            "text": "nitrogen",
            "confidence": 1.0,
            "uuid": "db5e90a9-06d2-45b9-8b81-f345a89b0bc0",
            "name": "Nitrogen",
            "url": "https://haz-map.com/Agents/1072",
            "category": "agents"
          },
          {
            "type": "name_match",
            "text": "nitrogen mustard (hn-1)",
            "confidence": 1.0,
            "uuid": "37a78d5c-d5fd-4d8f-9d84-ad48731d3ba8",
            "name": "Nitrogen mustard (HN-1)",
            "url": "https://haz-map.com/Agents/1668",
            "category": "agents"
          },
          {
            "type": "fuzzy_match",
            "text": "nitrogen mustard",
            "matched_name": "Nitrogen mustard (HN-2)",
            "confidence": 0.7089371980676329,
            "uuid": "15b4fd0b-1e20-4720-848d-914913ef16db",
            "category": "agents",
            "url": "https://haz-map.com/Agents/1512"
          },
          {
            "type": "fuzzy_match",
            "text": "nitrogen mustard",
            "matched_name": "Nitrogen mustard (HN-3)",
            "confidence": 0.7089371980676329,
            "uuid": "cf82d66d-44d7-493b-82dd-b947491328e6",
            "category": "agents",
            "url": "https://haz-map.com/Agents/1513"
          }
        ]
      },
      "comments": {
        "original_name": "Comments",
        "value": "A skin and strong eye irritant; [Sigma-Aldrich MSDS] See \"Diethanolamine.\"",
        "links": [],
        "cross_references": [
          {
            "type": "name_match",
            "text": "ethanolamine",
            "confidence": 1.0,
            "uuid": "16354994-9346-496d-9e19-23d8a4473ab4",
            "name": "Ethanolamine",
            "url": "https://haz-map.com/Agents/288",
            "category": "agents"
          },
          {
            "type": "name_match",
            "text": "diethanolamine",
            "confidence": 1.0,
            "uuid": "588b3cdf-df43-41d8-8417-60aaa610fb49",
            "name": "Diethanolamine",
            "url": "https://haz-map.com/Agents/454",
            "category": "agents"
          }
        ]
      },
      "biomedical_references": {
        "original_name": "Biomedical References",
        "value": "Search PubMed",
        "links": [
          {
            "text": "Search PubMed",
            "url": "https://www.ncbi.nlm.nih.gov/pubmed?term=Ethyldiethanolamine%20AND%20human%5Bmh%5D%20AND%20%28Occupational%20Diseases%20%5Bmh%5D%20OR%20Occupational%20Exposure%20%5Bmh%5D%29%20%20AND%20%28tox%5Bsb%5D%29&cmd=search"
          }
        ],
        "cross_references": []
      }
    },
    "exposure_assessment": {
      "vapor_pressure": {
        "original_name": "Vapor Pressure",
        "value": "0.00245 mm Hg",
        "links": [],
        "cross_references": []
      },
      "nfpa": {
        "original_name": "NFPA",
        "value": "must be preheated",
        "links": [],
        "cross_references": []
      }
    },
    "diseases_processes_and_activities_linked_to_this_agent": {
      "other_information": {
        "original_name": "Other Information",
        "value": "No other related information on this agent was found.",
        "links": [],
        "cross_references": []
      }
    }
  },
  "cross_references": [
    {
      "type": "name_match",
      "text": "ethylamine",
      "confidence": 1.0,
      "uuid": "41ca4da8-b990-420a-86b2-3d77404fb7f4",
      "name": "Ethylamine",
      "url": "https://haz-map.com/Agents/220",
      "category": "agents"
    },
    {
      "type": "name_match",
      "text": "ethanolamine",
      "confidence": 1.0,
      "uuid": "16354994-9346-496d-9e19-23d8a4473ab4",
      "name": "Ethanolamine",
      "url": "https://haz-map.com/Agents/288",
      "category": "agents"
    },
    {
      "type": "name_match",
      "text": "diethanolamine",
      "confidence": 1.0,
      "uuid": "588b3cdf-df43-41d8-8417-60aaa610fb49",
      "name": "Diethanolamine",
      "url": "https://haz-map.com/Agents/454",
      "category": "agents"
    },
    {
      "type": "name_match",
      "text": "nitrogen",
      "confidence": 1.0,
      "uuid": "db5e90a9-06d2-45b9-8b81-f345a89b0bc0",
      "name": "Nitrogen",
      "url": "https://haz-map.com/Agents/1072",
      "category": "agents"
    },
    {
      "type": "name_match",
      "text": "nitrogen mustard (hn-1)",
      "confidence": 1.0,
      "uuid": "37a78d5c-d5fd-4d8f-9d84-ad48731d3ba8",
      "name": "Nitrogen mustard (HN-1)",
      "url": "https://haz-map.com/Agents/1668",
      "category": "agents"
    },
    {
      "type": "name_match",
      "text": "ht",
      "confidence": 1.0,
      "uuid": "764df367-8d53-4a11-81a2-31ccfe122a8d",
      "name": "HT",
      "url": "https://haz-map.com/Agents/2168",
      "category": "agents"
    },
    {
      "type": "name_match",
      "text": "water",
      "confidence": 1.0,
      "uuid": "6f2a7557-dfd2-49bc-9b4b-a93cd8e225d4",
      "name": "Water",
      "url": "https://haz-map.com/Agents/18668",
      "category": "agents"
    },
    {
      "type": "name_match",
      "text": "ethyldiethanolamine",
      "confidence": 1.0,
      "uuid": "51c0882e-8a0f-451a-ab93-0c9d09bde3f6",
      "name": "Ethyldiethanolamine",
      "url": "https://haz-map.com/Agents/20883",
      "category": "agents"
    },
    {
      "type": "fuzzy_match",
      "text": "nitrogen mustard",
      "matched_name": "Nitrogen mustard (HN-2)",
      "confidence": 0.7089371980676329,
      "uuid": "15b4fd0b-1e20-4720-848d-914913ef16db",
      "category": "agents",
      "url": "https://haz-map.com/Agents/1512"
    },
    {
      "type": "fuzzy_match",
      "text": "nitrogen mustard",
      "matched_name": "Nitrogen mustard (HN-3)",
      "confidence": 0.7089371980676329,
      "uuid": "cf82d66d-44d7-493b-82dd-b947491328e6",
      "category": "agents",
      "url": "https://haz-map.com/Agents/1513"
    }
  ],
  "all_links": [
    {
      "text": "Search PubMed",
      "url": "https://www.ncbi.nlm.nih.gov/pubmed?term=Ethyldiethanolamine%20AND%20human%5Bmh%5D%20AND%20%28Occupational%20Diseases%20%5Bmh%5D%20OR%20Occupational%20Exposure%20%5Bmh%5D%29%20%20AND%20%28tox%5Bsb%5D%29&cmd=search"
    }
  ]
}