{
  "metadata": {
    "scraped_from": "https://haz-map.com/Agents/16060",
    "entity_name": "2,2,4,4,6,8,8-Heptamethylnonane",
    "category": "agents",
    "uuid": "5230ac3d-374c-425f-86cf-13c7c993f54e",
    "scraped_at": "2025-07-23T21:34:09.958997"
  },
  "parsed_at": "2025-07-24T01:14:31.326630",
  "title": "2,2,4,4,6,8,8-Heptamethylnonane",
  "sections": {
    "general": {
      "agent_name": {
        "original_name": "Agent Name",
        "value": "2,2,4,4,6,8,8-Heptamethylnonane",
        "links": [],
        "cross_references": [
          {
            "type": "name_match",
            "text": "nonane",
            "confidence": 1.0,
            "uuid": "fe0f019a-d093-4bb9-a7d3-2f2ceaf91953",
            "name": "Nonane",
            "url": "https://haz-map.com/Agents/578",
            "category": "agents"
          },
          {
            "type": "name_match",
            "text": "2,2,4,4,6,8,8-heptamethylnonane",
            "confidence": 1.0,
            "uuid": "5230ac3d-374c-425f-86cf-13c7c993f54e",
            "name": "2,2,4,4,6,8,8-Heptamethylnonane",
            "url": "https://haz-map.com/Agents/16060",
            "category": "agents"
          }
        ]
      },
      "cas_number": {
        "original_name": "CAS Number",
        "value": "4390-04-9",
        "links": [],
        "cross_references": []
      },
      "formula": {
        "original_name": "Formula",
        "value": "C16-H34",
        "links": [],
        "cross_references": []
      },
      "major_category": {
        "original_name": "Major Category",
        "value": "Other Classes",
        "links": [],
        "cross_references": []
      },
      "synonyms": {
        "original_name": "Synonyms",
        "value": "Isohexadecane; Nonane, 2,2,4,4,6,8,8-heptamethyl-; [ChemIDplus]",
        "links": [],
        "cross_references": [
          {
            "type": "name_match",
            "text": "nonane",
            "confidence": 1.0,
            "uuid": "fe0f019a-d093-4bb9-a7d3-2f2ceaf91953",
            "name": "Nonane",
            "url": "https://haz-map.com/Agents/578",
            "category": "agents"
          },
          {
            "type": "name_match",
            "text": "hexadecane",
            "confidence": 1.0,
            "uuid": "c9e4222f-5899-4172-ab9b-49efb6c2ce75",
            "name": "Hexadecane",
            "url": "https://haz-map.com/Agents/1904",
            "category": "agents"
          }
        ]
      },
      "category": {
        "original_name": "Category",
        "value": "Aliphatics, Saturated (>C11)",
        "links": [],
        "cross_references": []
      },
      "description": {
        "original_name": "Description",
        "value": "Colorless liquid; [Alfa Aesar MSDS]",
        "links": [],
        "cross_references": []
      },
      "comments": {
        "original_name": "Comments",
        "value": "May cause irritation; [Alfa Aesar MSDS]",
        "links": [],
        "cross_references": []
      },
      "biomedical_references": {
        "original_name": "Biomedical References",
        "value": "Search PubMed",
        "links": [
          {
            "text": "Search PubMed",
            "url": "https://www.ncbi.nlm.nih.gov/pubmed?term=2%2c2%2c4%2c4%2c6%2c8%2c8-Heptamethylnonane%20AND%20human%5Bmh%5D%20AND%20%28Occupational%20Diseases%20%5Bmh%5D%20OR%20Occupational%20Exposure%20%5Bmh%5D%29%20%20AND%20%28tox%5Bsb%5D%29&cmd=search"
          }
        ],
        "cross_references": []
      }
    },
    "exposure_assessment": {
      "vapor_pressure": {
        "original_name": "Vapor Pressure",
        "value": "1 mm Hg",
        "links": [],
        "cross_references": []
      }
    },
    "diseases_processes_and_activities_linked_to_this_agent": {
      "other_information": {
        "original_name": "Other Information",
        "value": "No other related information on this agent was found.",
        "links": [],
        "cross_references": []
      }
    }
  },
  "cross_references": [
    {
      "type": "name_match",
      "text": "nonane",
      "confidence": 1.0,
      "uuid": "fe0f019a-d093-4bb9-a7d3-2f2ceaf91953",
      "name": "Nonane",
      "url": "https://haz-map.com/Agents/578",
      "category": "agents"
    },
    {
      "type": "name_match",
      "text": "hexadecane",
      "confidence": 1.0,
      "uuid": "c9e4222f-5899-4172-ab9b-49efb6c2ce75",
      "name": "Hexadecane",
      "url": "https://haz-map.com/Agents/1904",
      "category": "agents"
    },
    {
      "type": "name_match",
      "text": "2,2,4,4,6,8,8-heptamethylnonane",
      "confidence": 1.0,
      "uuid": "5230ac3d-374c-425f-86cf-13c7c993f54e",
      "name": "2,2,4,4,6,8,8-Heptamethylnonane",
      "url": "https://haz-map.com/Agents/16060",
      "category": "agents"
    }
  ],
  "all_links": [
    {
      "text": "Search PubMed",
      "url": "https://www.ncbi.nlm.nih.gov/pubmed?term=2%2c2%2c4%2c4%2c6%2c8%2c8-Heptamethylnonane%20AND%20human%5Bmh%5D%20AND%20%28Occupational%20Diseases%20%5Bmh%5D%20OR%20Occupational%20Exposure%20%5Bmh%5D%29%20%20AND%20%28tox%5Bsb%5D%29&cmd=search"
    }
  ]
}