{
  "metadata": {
    "scraped_from": "https://haz-map.com/Agents/9975",
    "entity_name": "2-Amino-2-methyl-1,3-propanediol",
    "category": "agents",
    "uuid": "52adeb52-e40f-40a8-8a31-d853d971f5a4",
    "scraped_at": "2025-07-23T20:43:33.922066"
  },
  "parsed_at": "2025-07-24T01:00:09.646611",
  "title": "2-Amino-2-methyl-1,3-propanediol",
  "sections": {
    "general": {
      "agent_name": {
        "original_name": "Agent Name",
        "value": "2-Amino-2-methyl-1,3-propanediol",
        "links": [],
        "cross_references": [
          {
            "type": "name_match",
            "text": "propane",
            "confidence": 1.0,
            "uuid": "563a611b-46ea-4bdc-b77b-17d8f7646283",
            "name": "Propane",
            "url": "https://haz-map.com/Agents/607",
            "category": "agents"
          },
          {
            "type": "name_match",
            "text": "2-methyl-1,3-propanediol",
            "confidence": 1.0,
            "uuid": "b27d7777-5c8c-47bb-92c2-fef6e1f0f4ba",
            "name": "2-Methyl-1,3-propanediol",
            "url": "https://haz-map.com/Agents/3123",
            "category": "agents"
          },
          {
            "type": "name_match",
            "text": "1,3-propanediol",
            "confidence": 1.0,
            "uuid": "363c509c-abea-46ca-9e07-a05fe05d1854",
            "name": "1,3-Propanediol",
            "url": "https://haz-map.com/Agents/9616",
            "category": "agents"
          },
          {
            "type": "name_match",
            "text": "2-amino-2-methyl-1,3-propanediol",
            "confidence": 1.0,
            "uuid": "52adeb52-e40f-40a8-8a31-d853d971f5a4",
            "name": "2-Amino-2-methyl-1,3-propanediol",
            "url": "https://haz-map.com/Agents/9975",
            "category": "agents"
          }
        ]
      },
      "alternative_name": {
        "original_name": "Alternative Name",
        "value": "Aminomethyl propanediol",
        "links": [],
        "cross_references": [
          {
            "type": "name_match",
            "text": "propane",
            "confidence": 1.0,
            "uuid": "563a611b-46ea-4bdc-b77b-17d8f7646283",
            "name": "Propane",
            "url": "https://haz-map.com/Agents/607",
            "category": "agents"
          }
        ]
      },
      "cas_number": {
        "original_name": "CAS Number",
        "value": "115-69-5",
        "links": [],
        "cross_references": []
      },
      "formula": {
        "original_name": "Formula",
        "value": "C4-H11-N-O2",
        "links": [],
        "cross_references": []
      },
      "major_category": {
        "original_name": "Major Category",
        "value": "Nitrogen Compounds",
        "links": [],
        "cross_references": [
          {
            "type": "name_match",
            "text": "nitrogen",
            "confidence": 1.0,
            "uuid": "db5e90a9-06d2-45b9-8b81-f345a89b0bc0",
            "name": "Nitrogen",
            "url": "https://haz-map.com/Agents/1072",
            "category": "agents"
          }
        ]
      },
      "synonyms": {
        "original_name": "Synonyms",
        "value": "Aminomethyl propanediol; 1,1-Di(hydroxymethyl)ethylamine; 2-Amino-2-methyl-1,3-propandiol; 2-Amino-2-methylpropanediol; AMPD; Gentimon; Pentaerythritol dichlorohydrin; 1,3-Propanediol, 2-amino-2-methyl-; 2-Amino-2-methylpropane-1,3-diol; [ChemIDplus] 1,3-Dihydroxy-2-methyl-2-propylamine; [Merck Index]",
        "links": [],
        "cross_references": [
          {
            "type": "name_match",
            "text": "ethylamine",
            "confidence": 1.0,
            "uuid": "41ca4da8-b990-420a-86b2-3d77404fb7f4",
            "name": "Ethylamine",
            "url": "https://haz-map.com/Agents/220",
            "category": "agents"
          },
          {
            "type": "name_match",
            "text": "pentaerythritol",
            "confidence": 1.0,
            "uuid": "0fe7143c-c4ff-4326-baca-71a7d500b479",
            "name": "Pentaerythritol",
            "url": "https://haz-map.com/Agents/586",
            "category": "agents"
          },
          {
            "type": "name_match",
            "text": "propane",
            "confidence": 1.0,
            "uuid": "563a611b-46ea-4bdc-b77b-17d8f7646283",
            "name": "Propane",
            "url": "https://haz-map.com/Agents/607",
            "category": "agents"
          },
          {
            "type": "name_match",
            "text": "1,3-propanediol",
            "confidence": 1.0,
            "uuid": "363c509c-abea-46ca-9e07-a05fe05d1854",
            "name": "1,3-Propanediol",
            "url": "https://haz-map.com/Agents/9616",
            "category": "agents"
          },
          {
            "type": "name_match",
            "text": "erythritol",
            "confidence": 1.0,
            "uuid": "ca232438-a65d-428a-93d7-e0e84dfe2fc1",
            "name": "Erythritol",
            "url": "https://haz-map.com/Agents/14150",
            "category": "agents"
          }
        ]
      },
      "category": {
        "original_name": "Category",
        "value": "Amino Alcohols, Other",
        "links": [],
        "cross_references": []
      },
      "description": {
        "original_name": "Description",
        "value": "Solid; [Merck Index] Colorless crystalline solid; [Aldrich MSDS]",
        "links": [],
        "cross_references": [
          {
            "type": "fuzzy_match",
            "text": "crystalline",
            "matched_name": "Silica, crystalline",
            "confidence": 0.7061403508771931,
            "uuid": "f920e8a2-46df-41b7-af8d-0368a777251e",
            "category": "agents",
            "url": "https://haz-map.com/Agents/427"
          }
        ]
      },
      "sourcesuses": {
        "original_name": "Sources/Uses",
        "value": "Used to make surfactants, vulcanization accelerators, and pharmaceuticals; Also used as a biological buffer, absorbent for acidic gases, and emulsifying agent (cosmetics, mineral oil, leather dressings, textile specialties, and cleaning compounds; Also used in hair sprays and wave sets; [Merck Index]",
        "links": [],
        "cross_references": [
          {
            "type": "name_match",
            "text": "pharmaceuticals",
            "confidence": 1.0,
            "uuid": "713c3c30-b67e-4a2f-a90f-b32f8a306332",
            "name": "PHARMACEUTICALS",
            "url": "https://haz-map.com/Agents/1000",
            "category": "agents"
          }
        ]
      },
      "comments": {
        "original_name": "Comments",
        "value": "Causes somnolence, muscle weakness, and coma in oral lethal-dose studies of rabbits; [RTECS] A skin and strong eye irritant; [Aldrich MSDS]",
        "links": [],
        "cross_references": [
          {
            "type": "name_match",
            "text": "weakness",
            "confidence": 1.0,
            "uuid": "44bfccd5-0f7a-48f7-b4eb-de9a6ef23064",
            "name": "weakness",
            "url": "https://haz-map.com/Findings/83",
            "category": "findings"
          }
        ]
      },
      "biomedical_references": {
        "original_name": "Biomedical References",
        "value": "Search PubMed",
        "links": [
          {
            "text": "Search PubMed",
            "url": "https://www.ncbi.nlm.nih.gov/pubmed?term=2-Amino-2-methyl-1%2c3-propanediol%20AND%20human%5Bmh%5D%20AND%20%28Occupational%20Diseases%20%5Bmh%5D%20OR%20Occupational%20Exposure%20%5Bmh%5D%29%20%20AND%20%28tox%5Bsb%5D%29&cmd=search"
          }
        ],
        "cross_references": []
      }
    },
    "exposure_assessment": {
      "vapor_pressure": {
        "original_name": "Vapor Pressure",
        "value": "0.00654 mm Hg",
        "links": [],
        "cross_references": []
      }
    },
    "adverse_effects": {
      "neurotoxin": {
        "original_name": "Neurotoxin",
        "value": "Other CNS neurotoxin",
        "links": [],
        "cross_references": []
      }
    },
    "diseases_processes_and_activities_linked_to_this_agent": {
      "processes": {
        "original_name": "Processes",
        "value": "Industrial Processes with risk of exposure: Dressing Hair Leather Tanning and Processing Textiles (Printing, Dyeing, or Finishing)",
        "links": [
          {
            "text": "Dressing Hair",
            "url": "https://haz-map.com/Processes/258"
          },
          {
            "text": "Leather Tanning and Processing",
            "url": "https://haz-map.com/Processes/230"
          },
          {
            "text": "Textiles (Printing, Dyeing, or Finishing)",
            "url": "https://haz-map.com/Processes/235"
          }
        ],
        "cross_references": []
      }
    }
  },
  "cross_references": [
    {
      "type": "name_match",
      "text": "weakness",
      "confidence": 1.0,
      "uuid": "44bfccd5-0f7a-48f7-b4eb-de9a6ef23064",
      "name": "weakness",
      "url": "https://haz-map.com/Findings/83",
      "category": "findings"
    },
    {
      "type": "name_match",
      "text": "ethylamine",
      "confidence": 1.0,
      "uuid": "41ca4da8-b990-420a-86b2-3d77404fb7f4",
      "name": "Ethylamine",
      "url": "https://haz-map.com/Agents/220",
      "category": "agents"
    },
    {
      "type": "name_match",
      "text": "pentaerythritol",
      "confidence": 1.0,
      "uuid": "0fe7143c-c4ff-4326-baca-71a7d500b479",
      "name": "Pentaerythritol",
      "url": "https://haz-map.com/Agents/586",
      "category": "agents"
    },
    {
      "type": "name_match",
      "text": "propane",
      "confidence": 1.0,
      "uuid": "563a611b-46ea-4bdc-b77b-17d8f7646283",
      "name": "Propane",
      "url": "https://haz-map.com/Agents/607",
      "category": "agents"
    },
    {
      "type": "name_match",
      "text": "pharmaceuticals",
      "confidence": 1.0,
      "uuid": "713c3c30-b67e-4a2f-a90f-b32f8a306332",
      "name": "PHARMACEUTICALS",
      "url": "https://haz-map.com/Agents/1000",
      "category": "agents"
    },
    {
      "type": "name_match",
      "text": "nitrogen",
      "confidence": 1.0,
      "uuid": "db5e90a9-06d2-45b9-8b81-f345a89b0bc0",
      "name": "Nitrogen",
      "url": "https://haz-map.com/Agents/1072",
      "category": "agents"
    },
    {
      "type": "name_match",
      "text": "2-methyl-1,3-propanediol",
      "confidence": 1.0,
      "uuid": "b27d7777-5c8c-47bb-92c2-fef6e1f0f4ba",
      "name": "2-Methyl-1,3-propanediol",
      "url": "https://haz-map.com/Agents/3123",
      "category": "agents"
    },
    {
      "type": "name_match",
      "text": "1,3-propanediol",
      "confidence": 1.0,
      "uuid": "363c509c-abea-46ca-9e07-a05fe05d1854",
      "name": "1,3-Propanediol",
      "url": "https://haz-map.com/Agents/9616",
      "category": "agents"
    },
    {
      "type": "name_match",
      "text": "2-amino-2-methyl-1,3-propanediol",
      "confidence": 1.0,
      "uuid": "52adeb52-e40f-40a8-8a31-d853d971f5a4",
      "name": "2-Amino-2-methyl-1,3-propanediol",
      "url": "https://haz-map.com/Agents/9975",
      "category": "agents"
    },
    {
      "type": "name_match",
      "text": "erythritol",
      "confidence": 1.0,
      "uuid": "ca232438-a65d-428a-93d7-e0e84dfe2fc1",
      "name": "Erythritol",
      "url": "https://haz-map.com/Agents/14150",
      "category": "agents"
    },
    {
      "type": "fuzzy_match",
      "text": "crystalline",
      "matched_name": "Silica, crystalline",
      "confidence": 0.7061403508771931,
      "uuid": "f920e8a2-46df-41b7-af8d-0368a777251e",
      "category": "agents",
      "url": "https://haz-map.com/Agents/427"
    }
  ],
  "all_links": [
    {
      "text": "Search PubMed",
      "url": "https://www.ncbi.nlm.nih.gov/pubmed?term=2-Amino-2-methyl-1%2c3-propanediol%20AND%20human%5Bmh%5D%20AND%20%28Occupational%20Diseases%20%5Bmh%5D%20OR%20Occupational%20Exposure%20%5Bmh%5D%29%20%20AND%20%28tox%5Bsb%5D%29&cmd=search"
    },
    {
      "text": "Dressing Hair",
      "url": "https://haz-map.com/Processes/258"
    },
    {
      "text": "Leather Tanning and Processing",
      "url": "https://haz-map.com/Processes/230"
    },
    {
      "text": "Textiles (Printing, Dyeing, or Finishing)",
      "url": "https://haz-map.com/Processes/235"
    }
  ]
}