{
  "metadata": {
    "scraped_from": "https://haz-map.com/Agents/1630",
    "entity_name": "Trimethylacetyl chloride",
    "category": "agents",
    "uuid": "52fceda1-eac1-41eb-a790-764ec8a54973",
    "scraped_at": "2025-07-23T19:02:27.510294"
  },
  "parsed_at": "2025-07-24T00:54:45.735796",
  "title": "Trimethylacetyl chloride",
  "sections": {
    "general": {
      "agent_name": {
        "original_name": "Agent Name",
        "value": "Trimethylacetyl chloride",
        "links": [],
        "cross_references": [
          {
            "type": "name_match",
            "text": "acetyl chloride",
            "confidence": 1.0,
            "uuid": "4344d69e-7f30-4ea8-9f6a-c3906f464fde",
            "name": "Acetyl chloride",
            "url": "https://haz-map.com/Agents/1375",
            "category": "agents"
          },
          {
            "type": "name_match",
            "text": "trimethylacetyl chloride",
            "confidence": 1.0,
            "uuid": "52fceda1-eac1-41eb-a790-764ec8a54973",
            "name": "Trimethylacetyl chloride",
            "url": "https://haz-map.com/Agents/1630",
            "category": "agents"
          }
        ]
      },
      "alternative_name": {
        "original_name": "Alternative Name",
        "value": "Pivaloyl chloride",
        "links": [],
        "cross_references": []
      },
      "cas_number": {
        "original_name": "CAS Number",
        "value": "3282-30-2",
        "links": [],
        "cross_references": []
      },
      "formula": {
        "original_name": "Formula",
        "value": "C5-H9-Cl-O",
        "links": [],
        "cross_references": []
      },
      "major_category": {
        "original_name": "Major Category",
        "value": "Toxic Gases & Vapors",
        "links": [],
        "cross_references": []
      },
      "synonyms": {
        "original_name": "Synonyms",
        "value": "2,2-Dimethylpropanoyl chloride; Pivaloyl chloride; Propanoyl chloride, 2,2-dimethyl-; UN2438; [ChemIDplus]",
        "links": [],
        "cross_references": []
      },
      "category": {
        "original_name": "Category",
        "value": "Acid Halides",
        "links": [],
        "cross_references": []
      },
      "description": {
        "original_name": "Description",
        "value": "Colorless to yellow liquid with a pungent odor; [CHEMINFO MSDS]",
        "links": [],
        "cross_references": []
      },
      "sourcesuses": {
        "original_name": "Sources/Uses",
        "value": "Used as a chemical intermediate; [CHEMINFO MSDS]",
        "links": [],
        "cross_references": [
          {
            "type": "name_match",
            "text": "mica",
            "confidence": 1.0,
            "uuid": "433f26f1-c399-4596-b179-ce3843cfd465",
            "name": "Mica",
            "url": "https://haz-map.com/Agents/621",
            "category": "agents"
          }
        ]
      },
      "comments": {
        "original_name": "Comments",
        "value": "Rats die after 2 minutes of exposure to an atmosphere saturated with trimethylacetyl chloride at room temperature; Corrosive to skin, eyes, and respiratory tract; [CHEMINFO MSDS] Very toxic by inhalation; [CAMEO]",
        "links": [],
        "cross_references": [
          {
            "type": "name_match",
            "text": "acetyl chloride",
            "confidence": 1.0,
            "uuid": "4344d69e-7f30-4ea8-9f6a-c3906f464fde",
            "name": "Acetyl chloride",
            "url": "https://haz-map.com/Agents/1375",
            "category": "agents"
          },
          {
            "type": "name_match",
            "text": "trimethylacetyl chloride",
            "confidence": 1.0,
            "uuid": "52fceda1-eac1-41eb-a790-764ec8a54973",
            "name": "Trimethylacetyl chloride",
            "url": "https://haz-map.com/Agents/1630",
            "category": "agents"
          }
        ]
      },
      "biomedical_references": {
        "original_name": "Biomedical References",
        "value": "Search PubMed",
        "links": [
          {
            "text": "Search PubMed",
            "url": "https://www.ncbi.nlm.nih.gov/pubmed?term=Trimethylacetyl+chloride%20AND%20human%5Bmh%5D%20AND%20%28Occupational%20Diseases%20%5Bmh%5D%20OR%20Occupational%20Exposure%20%5Bmh%5D%29%20%20AND%20%28tox%5Bsb%5D%29&cmd=search"
          }
        ],
        "cross_references": []
      }
    },
    "exposure_assessment": {
      "tih": {
        "original_name": "TIH",
        "value": "Yes",
        "links": [],
        "cross_references": []
      },
      "vapor_pressure": {
        "original_name": "Vapor Pressure",
        "value": "1.18 mm Hg",
        "links": [],
        "cross_references": []
      },
      "explanatory_notes": {
        "original_name": "Explanatory Notes",
        "value": "Boiling point = 105-106 deg F; Flash point = 48 deg F; [CAMEO]",
        "links": [],
        "cross_references": [
          {
            "type": "name_match",
            "text": "ash",
            "confidence": 1.0,
            "uuid": "68b360f1-5ad0-4337-bea0-d7adca2961b5",
            "name": "Ash",
            "url": "https://haz-map.com/Agents/965",
            "category": "agents"
          }
        ]
      }
    },
    "adverse_effects": {
      "toxic_pneumonitis": {
        "original_name": "Toxic Pneumonitis",
        "value": "Yes",
        "links": [],
        "cross_references": []
      },
      "dermatotoxin": {
        "original_name": "Dermatotoxin",
        "value": "Skin burns",
        "links": [],
        "cross_references": [
          {
            "type": "name_match",
            "text": "burn",
            "confidence": 1.0,
            "uuid": "63665de5-6376-4918-8dbf-4c10c4d63837",
            "name": "burn",
            "url": "https://haz-map.com/Findings/204",
            "category": "findings"
          }
        ]
      }
    },
    "diseases_processes_and_activities_linked_to_this_agent": {
      "diseases": {
        "original_name": "Diseases",
        "value": "Occupational diseases associated with exposure to this agent: Pneumonitis, toxic",
        "links": [
          {
            "text": "Pneumonitis, toxic",
            "url": "https://haz-map.com/Diseases/306"
          }
        ],
        "cross_references": [
          {
            "type": "url_match",
            "text": "Pneumonitis, toxic",
            "url": "https://haz-map.com/Diseases/306",
            "confidence": 1.0,
            "uuid": "cd799281-0284-450d-bb82-ed6b675616ac",
            "name": "Pneumonitis, toxic",
            "category": "diseases"
          }
        ]
      }
    }
  },
  "cross_references": [
    {
      "type": "url_match",
      "text": "Pneumonitis, toxic",
      "url": "https://haz-map.com/Diseases/306",
      "confidence": 1.0,
      "uuid": "cd799281-0284-450d-bb82-ed6b675616ac",
      "name": "Pneumonitis, toxic",
      "category": "diseases"
    },
    {
      "type": "name_match",
      "text": "burn",
      "confidence": 1.0,
      "uuid": "63665de5-6376-4918-8dbf-4c10c4d63837",
      "name": "burn",
      "url": "https://haz-map.com/Findings/204",
      "category": "findings"
    },
    {
      "type": "name_match",
      "text": "mica",
      "confidence": 1.0,
      "uuid": "433f26f1-c399-4596-b179-ce3843cfd465",
      "name": "Mica",
      "url": "https://haz-map.com/Agents/621",
      "category": "agents"
    },
    {
      "type": "name_match",
      "text": "ash",
      "confidence": 1.0,
      "uuid": "68b360f1-5ad0-4337-bea0-d7adca2961b5",
      "name": "Ash",
      "url": "https://haz-map.com/Agents/965",
      "category": "agents"
    },
    {
      "type": "name_match",
      "text": "acetyl chloride",
      "confidence": 1.0,
      "uuid": "4344d69e-7f30-4ea8-9f6a-c3906f464fde",
      "name": "Acetyl chloride",
      "url": "https://haz-map.com/Agents/1375",
      "category": "agents"
    },
    {
      "type": "name_match",
      "text": "trimethylacetyl chloride",
      "confidence": 1.0,
      "uuid": "52fceda1-eac1-41eb-a790-764ec8a54973",
      "name": "Trimethylacetyl chloride",
      "url": "https://haz-map.com/Agents/1630",
      "category": "agents"
    }
  ],
  "all_links": [
    {
      "text": "Search PubMed",
      "url": "https://www.ncbi.nlm.nih.gov/pubmed?term=Trimethylacetyl+chloride%20AND%20human%5Bmh%5D%20AND%20%28Occupational%20Diseases%20%5Bmh%5D%20OR%20Occupational%20Exposure%20%5Bmh%5D%29%20%20AND%20%28tox%5Bsb%5D%29&cmd=search"
    },
    {
      "text": "Pneumonitis, toxic",
      "url": "https://haz-map.com/Diseases/306"
    }
  ]
}