{
  "metadata": {
    "scraped_from": "https://haz-map.com/Agents/15879",
    "entity_name": "Nerol",
    "category": "agents",
    "uuid": "53925df0-1f00-41e3-a11b-d04ce842c736",
    "scraped_at": "2025-07-23T21:33:02.543910"
  },
  "parsed_at": "2025-07-24T00:55:18.689398",
  "title": "Nerol",
  "sections": {
    "general": {
      "agent_name": {
        "original_name": "Agent Name",
        "value": "Nerol",
        "links": [],
        "cross_references": [
          {
            "type": "name_match",
            "text": "nerol",
            "confidence": 1.0,
            "uuid": "53925df0-1f00-41e3-a11b-d04ce842c736",
            "name": "Nerol",
            "url": "https://haz-map.com/Agents/15879",
            "category": "agents"
          }
        ]
      },
      "cas_number": {
        "original_name": "CAS Number",
        "value": "106-25-2",
        "links": [],
        "cross_references": []
      },
      "formula": {
        "original_name": "Formula",
        "value": "C10-H18-O",
        "links": [],
        "cross_references": []
      },
      "major_category": {
        "original_name": "Major Category",
        "value": "Biological Agents",
        "links": [],
        "cross_references": []
      },
      "synonyms": {
        "original_name": "Synonyms",
        "value": "(Z)-Geraniol; 2,6-Octadien-1-ol, 3,7-dimethyl-, (Z)-; 2-cis-3,7-Dimethyl-2,6-octadien-1-ol; 3,7-Dimethyl-2,6-octadien-1-ol, (Z)-; 3,7-Dimethyl-2,6-octadien-1-ol, cis-; Nerol (natural); Nerol 900; Neryl alcohol; cis-Geraniol; 2,6-Octadien-1-ol, 3,7-dimethyl-, (2Z)-; [ChemIDplus]",
        "links": [],
        "cross_references": [
          {
            "type": "name_match",
            "text": "geraniol",
            "confidence": 1.0,
            "uuid": "ce09a344-76f6-4260-91c4-5d6feed6b3c1",
            "name": "Geraniol",
            "url": "https://haz-map.com/Agents/5416",
            "category": "agents"
          },
          {
            "type": "name_match",
            "text": "nerol",
            "confidence": 1.0,
            "uuid": "53925df0-1f00-41e3-a11b-d04ce842c736",
            "name": "Nerol",
            "url": "https://haz-map.com/Agents/15879",
            "category": "agents"
          }
        ]
      },
      "category": {
        "original_name": "Category",
        "value": "Plant Oils and Extracts",
        "links": [],
        "cross_references": []
      },
      "description": {
        "original_name": "Description",
        "value": "Liquid with an odor of sweet rose; [Merck Index] Colorless to pale yellow liquid with a pleasant odor; [CAMEO]",
        "links": [],
        "cross_references": []
      },
      "sourcesuses": {
        "original_name": "Sources/Uses",
        "value": "Permitted for use as an inert ingredient in non-food pesticide products; [EPA] Present in many essential oils; Used as a base for perfume manufacture; [Merck Index] Also used as a flavoring agent; [CAMEO] The cis-isomer of geraniol; [Merck Index]",
        "links": [],
        "cross_references": [
          {
            "type": "name_match",
            "text": "geraniol",
            "confidence": 1.0,
            "uuid": "ce09a344-76f6-4260-91c4-5d6feed6b3c1",
            "name": "Geraniol",
            "url": "https://haz-map.com/Agents/5416",
            "category": "agents"
          }
        ]
      },
      "comments": {
        "original_name": "Comments",
        "value": "Causes respiratory depression in acute inhalation studies of mice; Causes general anesthesia in oral lethal-dose studies of rats; [RTECS] Mortality, stomach lesions, and cytoplasmic vacuolization (lipidosis) of the liver, kidney, and myocardium in 13-week oral study of mice (LOAEL of 2,000 mg/kg/day); [EPA ChAMP: Terpenoid Primary Alcohols and Related Esters - 2009] Safe when used as a flavoring agent in food; [JECFA] A maximization study of 25 volunteers showed no skin sensitization at 4% in petrolatum; [IUCLID] A skin and strong eye irritant; [Sigma-Aldrich MSDS] See \"Geraniol.\"",
        "links": [],
        "cross_references": [
          {
            "type": "name_match",
            "text": "tali",
            "confidence": 1.0,
            "uuid": "8c3a0f99-2143-4122-b539-ec5cc49596b0",
            "name": "Tali",
            "url": "https://haz-map.com/Agents/1128",
            "category": "agents"
          },
          {
            "type": "name_match",
            "text": "geraniol",
            "confidence": 1.0,
            "uuid": "ce09a344-76f6-4260-91c4-5d6feed6b3c1",
            "name": "Geraniol",
            "url": "https://haz-map.com/Agents/5416",
            "category": "agents"
          },
          {
            "type": "name_match",
            "text": "petrolatum",
            "confidence": 1.0,
            "uuid": "3aa16d92-e402-405d-86f0-246be9009b2b",
            "name": "Petrolatum",
            "url": "https://haz-map.com/Agents/6605",
            "category": "agents"
          }
        ]
      },
      "biomedical_references": {
        "original_name": "Biomedical References",
        "value": "Search PubMed",
        "links": [
          {
            "text": "Search PubMed",
            "url": "https://www.ncbi.nlm.nih.gov/pubmed?term=Nerol%20AND%20human%5Bmh%5D%20AND%20%28Occupational%20Diseases%20%5Bmh%5D%20OR%20Occupational%20Exposure%20%5Bmh%5D%29%20%20AND%20%28tox%5Bsb%5D%29&cmd=search"
          }
        ],
        "cross_references": []
      }
    },
    "exposure_assessment": {
      "vapor_pressure": {
        "original_name": "Vapor Pressure",
        "value": "0.03 mm Hg",
        "links": [],
        "cross_references": []
      },
      "nfpa": {
        "original_name": "NFPA",
        "value": "must be preheated",
        "links": [],
        "cross_references": []
      }
    },
    "adverse_effects": {
      "neurotoxin": {
        "original_name": "Neurotoxin",
        "value": "Acute solvent syndrome",
        "links": [],
        "cross_references": []
      },
      "hepatotoxin": {
        "original_name": "Hepatotoxin",
        "value": "Hepatoxic (a) from occupational exposure (secondary effect) or (b) in animal studies or in humans after ingestion",
        "links": [],
        "cross_references": []
      }
    },
    "diseases_processes_and_activities_linked_to_this_agent": {
      "diseases": {
        "original_name": "Diseases",
        "value": "Occupational diseases associated with exposure to this agent: Solvents, acute toxic effect",
        "links": [
          {
            "text": "Solvents, acute toxic effect",
            "url": "https://haz-map.com/Diseases/326"
          }
        ],
        "cross_references": [
          {
            "type": "url_match",
            "text": "Solvents, acute toxic effect",
            "url": "https://haz-map.com/Diseases/326",
            "confidence": 1.0,
            "uuid": "581e90e3-9d0c-45f0-aa6c-3468c28da129",
            "name": "Solvents, acute toxic effect",
            "category": "diseases"
          }
        ]
      }
    }
  },
  "cross_references": [
    {
      "type": "url_match",
      "text": "Solvents, acute toxic effect",
      "url": "https://haz-map.com/Diseases/326",
      "confidence": 1.0,
      "uuid": "581e90e3-9d0c-45f0-aa6c-3468c28da129",
      "name": "Solvents, acute toxic effect",
      "category": "diseases"
    },
    {
      "type": "name_match",
      "text": "tali",
      "confidence": 1.0,
      "uuid": "8c3a0f99-2143-4122-b539-ec5cc49596b0",
      "name": "Tali",
      "url": "https://haz-map.com/Agents/1128",
      "category": "agents"
    },
    {
      "type": "name_match",
      "text": "geraniol",
      "confidence": 1.0,
      "uuid": "ce09a344-76f6-4260-91c4-5d6feed6b3c1",
      "name": "Geraniol",
      "url": "https://haz-map.com/Agents/5416",
      "category": "agents"
    },
    {
      "type": "name_match",
      "text": "petrolatum",
      "confidence": 1.0,
      "uuid": "3aa16d92-e402-405d-86f0-246be9009b2b",
      "name": "Petrolatum",
      "url": "https://haz-map.com/Agents/6605",
      "category": "agents"
    },
    {
      "type": "name_match",
      "text": "nerol",
      "confidence": 1.0,
      "uuid": "53925df0-1f00-41e3-a11b-d04ce842c736",
      "name": "Nerol",
      "url": "https://haz-map.com/Agents/15879",
      "category": "agents"
    }
  ],
  "all_links": [
    {
      "text": "Search PubMed",
      "url": "https://www.ncbi.nlm.nih.gov/pubmed?term=Nerol%20AND%20human%5Bmh%5D%20AND%20%28Occupational%20Diseases%20%5Bmh%5D%20OR%20Occupational%20Exposure%20%5Bmh%5D%29%20%20AND%20%28tox%5Bsb%5D%29&cmd=search"
    },
    {
      "text": "Solvents, acute toxic effect",
      "url": "https://haz-map.com/Diseases/326"
    }
  ]
}