{
  "metadata": {
    "scraped_from": "https://haz-map.com/Agents/11499",
    "entity_name": "(E)-4,4-Dimethylpent-2-ene",
    "category": "agents",
    "uuid": "53c5a0db-4183-4fd7-8fa7-07c0c87be178",
    "scraped_at": "2025-07-23T21:00:07.928115"
  },
  "parsed_at": "2025-07-24T00:55:36.860140",
  "title": "(E)-4,4-Dimethylpent-2-ene",
  "sections": {
    "general": {
      "agent_name": {
        "original_name": "Agent Name",
        "value": "(E)-4,4-Dimethylpent-2-ene",
        "links": [],
        "cross_references": [
          {
            "type": "name_match",
            "text": "(e)-4,4-dimethylpent-2-ene",
            "confidence": 1.0,
            "uuid": "53c5a0db-4183-4fd7-8fa7-07c0c87be178",
            "name": "(E)-4,4-Dimethylpent-2-ene",
            "url": "https://haz-map.com/Agents/11499",
            "category": "agents"
          },
          {
            "type": "fuzzy_match",
            "text": "4-dimethylpent-2-ene",
            "matched_name": "2,4-Dimethylpent-2-ene",
            "confidence": 0.9188311688311688,
            "uuid": "486ccdbd-5ff2-4686-80d9-6e3004a64c2d",
            "category": "agents",
            "url": "https://haz-map.com/Agents/11496"
          }
        ]
      },
      "cas_number": {
        "original_name": "CAS Number",
        "value": "690-08-4",
        "links": [],
        "cross_references": []
      },
      "formula": {
        "original_name": "Formula",
        "value": "C7-H14",
        "links": [],
        "cross_references": []
      },
      "major_category": {
        "original_name": "Major Category",
        "value": "Other Classes",
        "links": [],
        "cross_references": []
      },
      "synonyms": {
        "original_name": "Synonyms",
        "value": "4,4-Dimethyl-trans-2-pentene; (E)-4,4-Dimethyl-2-pentene; 2-Pentene, 4,4-dimethyl-, (E)-; [ChemIDplus] trans-4,4-Dimethyl-2-pentene; [MP Biomedicals MSDS]",
        "links": [],
        "cross_references": [
          {
            "type": "name_match",
            "text": "pentene",
            "confidence": 1.0,
            "uuid": "8a79e71e-e90a-4993-a702-7b2bacae6310",
            "name": "Pentene",
            "url": "https://haz-map.com/Agents/6584",
            "category": "agents"
          },
          {
            "type": "name_match",
            "text": "trans-2-pentene",
            "confidence": 1.0,
            "uuid": "52dfc941-5b2e-4e32-949c-6c389113cc59",
            "name": "trans-2-Pentene",
            "url": "https://haz-map.com/Agents/8531",
            "category": "agents"
          }
        ]
      },
      "category": {
        "original_name": "Category",
        "value": "Aliphatics, Unsaturated",
        "links": [],
        "cross_references": []
      },
      "comments": {
        "original_name": "Comments",
        "value": "See \"1-Pentene, 3,4-dimethyl-.\"",
        "links": [],
        "cross_references": [
          {
            "type": "name_match",
            "text": "1-pentene",
            "confidence": 1.0,
            "uuid": "fb5ff9a7-52d9-4c0c-a462-090f2c7e657f",
            "name": "1-Pentene",
            "url": "https://haz-map.com/Agents/2918",
            "category": "agents"
          },
          {
            "type": "name_match",
            "text": "pentene",
            "confidence": 1.0,
            "uuid": "8a79e71e-e90a-4993-a702-7b2bacae6310",
            "name": "Pentene",
            "url": "https://haz-map.com/Agents/6584",
            "category": "agents"
          },
          {
            "type": "name_match",
            "text": "1-pentene, 3,4-dimethyl-",
            "confidence": 1.0,
            "uuid": "5390c327-f3c8-46c6-ad02-5deab500d8a9",
            "name": "1-Pentene, 3,4-dimethyl-",
            "url": "https://haz-map.com/Agents/10637",
            "category": "agents"
          }
        ]
      },
      "biomedical_references": {
        "original_name": "Biomedical References",
        "value": "Search PubMed",
        "links": [
          {
            "text": "Search PubMed",
            "url": "https://www.ncbi.nlm.nih.gov/pubmed?term=(E)-4%2c4-Dimethylpent-2-ene%20AND%20human%5Bmh%5D%20AND%20%28Occupational%20Diseases%20%5Bmh%5D%20OR%20Occupational%20Exposure%20%5Bmh%5D%29%20%20AND%20%28tox%5Bsb%5D%29&cmd=search"
          }
        ],
        "cross_references": []
      }
    },
    "exposure_assessment": {
      "vapor_pressure": {
        "original_name": "Vapor Pressure",
        "value": "111 mm Hg",
        "links": [],
        "cross_references": []
      },
      "explanatory_notes": {
        "original_name": "Explanatory Notes",
        "value": "VP from ChemIDplus;",
        "links": [],
        "cross_references": []
      }
    },
    "adverse_effects": {
      "neurotoxin": {
        "original_name": "Neurotoxin",
        "value": "Acute solvent syndrome",
        "links": [],
        "cross_references": []
      }
    },
    "diseases_processes_and_activities_linked_to_this_agent": {
      "diseases": {
        "original_name": "Diseases",
        "value": "Occupational diseases associated with exposure to this agent: Solvents, acute toxic effect",
        "links": [
          {
            "text": "Solvents, acute toxic effect",
            "url": "https://haz-map.com/Diseases/326"
          }
        ],
        "cross_references": [
          {
            "type": "url_match",
            "text": "Solvents, acute toxic effect",
            "url": "https://haz-map.com/Diseases/326",
            "confidence": 1.0,
            "uuid": "581e90e3-9d0c-45f0-aa6c-3468c28da129",
            "name": "Solvents, acute toxic effect",
            "category": "diseases"
          }
        ]
      }
    }
  },
  "cross_references": [
    {
      "type": "url_match",
      "text": "Solvents, acute toxic effect",
      "url": "https://haz-map.com/Diseases/326",
      "confidence": 1.0,
      "uuid": "581e90e3-9d0c-45f0-aa6c-3468c28da129",
      "name": "Solvents, acute toxic effect",
      "category": "diseases"
    },
    {
      "type": "name_match",
      "text": "1-pentene",
      "confidence": 1.0,
      "uuid": "fb5ff9a7-52d9-4c0c-a462-090f2c7e657f",
      "name": "1-Pentene",
      "url": "https://haz-map.com/Agents/2918",
      "category": "agents"
    },
    {
      "type": "name_match",
      "text": "pentene",
      "confidence": 1.0,
      "uuid": "8a79e71e-e90a-4993-a702-7b2bacae6310",
      "name": "Pentene",
      "url": "https://haz-map.com/Agents/6584",
      "category": "agents"
    },
    {
      "type": "name_match",
      "text": "trans-2-pentene",
      "confidence": 1.0,
      "uuid": "52dfc941-5b2e-4e32-949c-6c389113cc59",
      "name": "trans-2-Pentene",
      "url": "https://haz-map.com/Agents/8531",
      "category": "agents"
    },
    {
      "type": "name_match",
      "text": "1-pentene, 3,4-dimethyl-",
      "confidence": 1.0,
      "uuid": "5390c327-f3c8-46c6-ad02-5deab500d8a9",
      "name": "1-Pentene, 3,4-dimethyl-",
      "url": "https://haz-map.com/Agents/10637",
      "category": "agents"
    },
    {
      "type": "name_match",
      "text": "(e)-4,4-dimethylpent-2-ene",
      "confidence": 1.0,
      "uuid": "53c5a0db-4183-4fd7-8fa7-07c0c87be178",
      "name": "(E)-4,4-Dimethylpent-2-ene",
      "url": "https://haz-map.com/Agents/11499",
      "category": "agents"
    },
    {
      "type": "fuzzy_match",
      "text": "4-dimethylpent-2-ene",
      "matched_name": "2,4-Dimethylpent-2-ene",
      "confidence": 0.9188311688311688,
      "uuid": "486ccdbd-5ff2-4686-80d9-6e3004a64c2d",
      "category": "agents",
      "url": "https://haz-map.com/Agents/11496"
    }
  ],
  "all_links": [
    {
      "text": "Search PubMed",
      "url": "https://www.ncbi.nlm.nih.gov/pubmed?term=(E)-4%2c4-Dimethylpent-2-ene%20AND%20human%5Bmh%5D%20AND%20%28Occupational%20Diseases%20%5Bmh%5D%20OR%20Occupational%20Exposure%20%5Bmh%5D%29%20%20AND%20%28tox%5Bsb%5D%29&cmd=search"
    },
    {
      "text": "Solvents, acute toxic effect",
      "url": "https://haz-map.com/Diseases/326"
    }
  ]
}