{
  "metadata": {
    "scraped_from": "https://haz-map.com/Agents/14887",
    "entity_name": "Inositol",
    "category": "agents",
    "uuid": "53d558d0-9a0f-439b-b6bc-8c134cc069b9",
    "scraped_at": "2025-07-23T21:27:06.099805"
  },
  "parsed_at": "2025-07-24T01:15:37.394581",
  "title": "Inositol",
  "sections": {
    "general": {
      "agent_name": {
        "original_name": "Agent Name",
        "value": "Inositol",
        "links": [],
        "cross_references": [
          {
            "type": "name_match",
            "text": "inositol",
            "confidence": 1.0,
            "uuid": "53d558d0-9a0f-439b-b6bc-8c134cc069b9",
            "name": "Inositol",
            "url": "https://haz-map.com/Agents/14887",
            "category": "agents"
          }
        ]
      },
      "cas_number": {
        "original_name": "CAS Number",
        "value": "87-89-8",
        "links": [],
        "cross_references": []
      },
      "formula": {
        "original_name": "Formula",
        "value": "C6-H12-O6",
        "links": [],
        "cross_references": []
      },
      "major_category": {
        "original_name": "Major Category",
        "value": "Biological Agents",
        "links": [],
        "cross_references": []
      },
      "synonyms": {
        "original_name": "Synonyms",
        "value": "1,2,3,5-trans-4,6-Cyclohexanehexol, cis-; Dambose; Inosital; Inositene; Inositina; Inositol, i-; Inositol, meso-; Inositol, myo-; Insitolum; Iso-inositol; Isoinositol; Meat sugar; Mesoinosit; Mesoinosite; Mesoinositol; Mesol; Mesovit; Myoinosite; Myoinositol; Nucite; Phaseomannite; Phaseomannitol; Scyllite; i-Inositol; meso-Inositol; myo-Inositol; cis-1,2,3,5-trans-4,6-Cyclohexanehexol; [ChemIDplus] Hexahydroxycyclohexane; Cyclohexanehexol; Cyclohexitol; Inosite; Bios I; Rat antispectacled eye factor; Mouse antialopecia factor; [Merck Index]",
        "links": [],
        "cross_references": [
          {
            "type": "name_match",
            "text": "cyclohexane",
            "confidence": 1.0,
            "uuid": "366fabd7-ac2f-461c-969f-62dfe3bf2377",
            "name": "Cyclohexane",
            "url": "https://haz-map.com/Agents/384",
            "category": "agents"
          },
          {
            "type": "name_match",
            "text": "inositol",
            "confidence": 1.0,
            "uuid": "53d558d0-9a0f-439b-b6bc-8c134cc069b9",
            "name": "Inositol",
            "url": "https://haz-map.com/Agents/14887",
            "category": "agents"
          },
          {
            "type": "name_match",
            "text": "mannitol",
            "confidence": 1.0,
            "uuid": "1b4d029d-e798-4c03-8ec3-b7984b76817a",
            "name": "Mannitol",
            "url": "https://haz-map.com/Agents/15381",
            "category": "agents"
          }
        ]
      },
      "category": {
        "original_name": "Category",
        "value": "Monosaccharides and Derivatives",
        "links": [],
        "cross_references": []
      },
      "description": {
        "original_name": "Description",
        "value": "Solid; [Merck Index] White crystalline powder; [Sigma-Aldrich MSDS]",
        "links": [],
        "cross_references": [
          {
            "type": "fuzzy_match",
            "text": "crystalline",
            "matched_name": "Silica, crystalline",
            "confidence": 0.7061403508771931,
            "uuid": "f920e8a2-46df-41b7-af8d-0368a777251e",
            "category": "agents",
            "url": "https://haz-map.com/Agents/427"
          }
        ]
      },
      "sourcesuses": {
        "original_name": "Sources/Uses",
        "value": "A growth factor in many plants and animals; [Merck Index] Used as a nutritional supplement; [FDA] \"An isomer of glucose that has traditionally been considered to be a B vitamin although it has an uncertain status as a vitamin and a deficiency syndrome has not been identified in man. [From Martindale, The Extra Pharmacopoeia, 30th ed, p. 1379] Inositol a polyol of cyclohexane. It is a carbohydrate, but not a classical sugar, used as a messenger in eukaryotic cells. {Wikipedia] \"Inositol phospholipids are important in signal transduction.\" [ChemIDplus]",
        "links": [],
        "cross_references": [
          {
            "type": "name_match",
            "text": "cyclohexane",
            "confidence": 1.0,
            "uuid": "366fabd7-ac2f-461c-969f-62dfe3bf2377",
            "name": "Cyclohexane",
            "url": "https://haz-map.com/Agents/384",
            "category": "agents"
          },
          {
            "type": "name_match",
            "text": "glucose",
            "confidence": 1.0,
            "uuid": "329d86ed-6744-4566-825c-5247ed1a8f75",
            "name": "Glucose",
            "url": "https://haz-map.com/Agents/14413",
            "category": "agents"
          },
          {
            "type": "name_match",
            "text": "inositol",
            "confidence": 1.0,
            "uuid": "53d558d0-9a0f-439b-b6bc-8c134cc069b9",
            "name": "Inositol",
            "url": "https://haz-map.com/Agents/14887",
            "category": "agents"
          },
          {
            "type": "name_match",
            "text": "vitamin a",
            "confidence": 1.0,
            "uuid": "6153e6dc-c71a-4223-ba38-70dc39542046",
            "name": "Vitamin A",
            "url": "https://haz-map.com/Agents/19043",
            "category": "agents"
          }
        ]
      },
      "comments": {
        "original_name": "Comments",
        "value": "May cause irritation; [Sigma-Aldrich MSDS]",
        "links": [],
        "cross_references": []
      },
      "biomedical_references": {
        "original_name": "Biomedical References",
        "value": "Search PubMed",
        "links": [
          {
            "text": "Search PubMed",
            "url": "https://www.ncbi.nlm.nih.gov/pubmed?term=Inositol%20AND%20human%5Bmh%5D%20AND%20%28Occupational%20Diseases%20%5Bmh%5D%20OR%20Occupational%20Exposure%20%5Bmh%5D%29%20%20AND%20%28tox%5Bsb%5D%29&cmd=search"
          }
        ],
        "cross_references": []
      }
    },
    "exposure_assessment": {
      "vapor_pressure": {
        "original_name": "Vapor Pressure",
        "value": "2.05E-09 mm Hg",
        "links": [],
        "cross_references": []
      }
    },
    "diseases_processes_and_activities_linked_to_this_agent": {
      "other_information": {
        "original_name": "Other Information",
        "value": "No other related information on this agent was found.",
        "links": [],
        "cross_references": []
      }
    }
  },
  "cross_references": [
    {
      "type": "name_match",
      "text": "cyclohexane",
      "confidence": 1.0,
      "uuid": "366fabd7-ac2f-461c-969f-62dfe3bf2377",
      "name": "Cyclohexane",
      "url": "https://haz-map.com/Agents/384",
      "category": "agents"
    },
    {
      "type": "name_match",
      "text": "glucose",
      "confidence": 1.0,
      "uuid": "329d86ed-6744-4566-825c-5247ed1a8f75",
      "name": "Glucose",
      "url": "https://haz-map.com/Agents/14413",
      "category": "agents"
    },
    {
      "type": "name_match",
      "text": "inositol",
      "confidence": 1.0,
      "uuid": "53d558d0-9a0f-439b-b6bc-8c134cc069b9",
      "name": "Inositol",
      "url": "https://haz-map.com/Agents/14887",
      "category": "agents"
    },
    {
      "type": "name_match",
      "text": "mannitol",
      "confidence": 1.0,
      "uuid": "1b4d029d-e798-4c03-8ec3-b7984b76817a",
      "name": "Mannitol",
      "url": "https://haz-map.com/Agents/15381",
      "category": "agents"
    },
    {
      "type": "name_match",
      "text": "vitamin a",
      "confidence": 1.0,
      "uuid": "6153e6dc-c71a-4223-ba38-70dc39542046",
      "name": "Vitamin A",
      "url": "https://haz-map.com/Agents/19043",
      "category": "agents"
    },
    {
      "type": "fuzzy_match",
      "text": "crystalline",
      "matched_name": "Silica, crystalline",
      "confidence": 0.7061403508771931,
      "uuid": "f920e8a2-46df-41b7-af8d-0368a777251e",
      "category": "agents",
      "url": "https://haz-map.com/Agents/427"
    }
  ],
  "all_links": [
    {
      "text": "Search PubMed",
      "url": "https://www.ncbi.nlm.nih.gov/pubmed?term=Inositol%20AND%20human%5Bmh%5D%20AND%20%28Occupational%20Diseases%20%5Bmh%5D%20OR%20Occupational%20Exposure%20%5Bmh%5D%29%20%20AND%20%28tox%5Bsb%5D%29&cmd=search"
    }
  ]
}