{
  "metadata": {
    "scraped_from": "https://haz-map.com/Agents/6724",
    "entity_name": "Piperonyl acetone",
    "category": "agents",
    "uuid": "53db9e0f-ba1f-41b6-b9a9-69224f06a18f",
    "scraped_at": "2025-07-23T20:04:49.802699"
  },
  "parsed_at": "2025-07-24T01:07:18.515536",
  "title": "Piperonyl acetone",
  "sections": {
    "general": {
      "agent_name": {
        "original_name": "Agent Name",
        "value": "Piperonyl acetone",
        "links": [],
        "cross_references": [
          {
            "type": "name_match",
            "text": "acetone",
            "confidence": 1.0,
            "uuid": "31b7bdae-eb37-44cc-9c56-b6dfc1908d64",
            "name": "Acetone",
            "url": "https://haz-map.com/Agents/138",
            "category": "agents"
          },
          {
            "type": "name_match",
            "text": "piperonyl acetone",
            "confidence": 1.0,
            "uuid": "53db9e0f-ba1f-41b6-b9a9-69224f06a18f",
            "name": "Piperonyl acetone",
            "url": "https://haz-map.com/Agents/6724",
            "category": "agents"
          }
        ]
      },
      "cas_number": {
        "original_name": "CAS Number",
        "value": "3160-37-0",
        "links": [],
        "cross_references": []
      },
      "formula": {
        "original_name": "Formula",
        "value": "C11-H10-O3",
        "links": [],
        "cross_references": []
      },
      "major_category": {
        "original_name": "Major Category",
        "value": "Other Classes",
        "links": [],
        "cross_references": []
      },
      "synonyms": {
        "original_name": "Synonyms",
        "value": "3,4-(Methylenedioxy)benzalacetone; 3-Buten-2-one, 4-(1,3-benzodioxol-5-yl)-; 3-Buten-2-one, 4-(3,4-(methylenedioxy)phenyl)-; 4-(1,3-Benzodioxol-5-yl)-3-buten-2-one; 4-(3,4-(Methylenedioxy)phenyl)-2-butanone; 4-(3,4-(Methylenedioxy)phenyl)-3-buten-2-one; Heliotropyl acetone; Piperonalacetone; Piperonylidene acetone; Piperonylideneacetone; [ChemIDplus]",
        "links": [],
        "cross_references": [
          {
            "type": "name_match",
            "text": "acetone",
            "confidence": 1.0,
            "uuid": "31b7bdae-eb37-44cc-9c56-b6dfc1908d64",
            "name": "Acetone",
            "url": "https://haz-map.com/Agents/138",
            "category": "agents"
          },
          {
            "type": "name_match",
            "text": "2-butanone",
            "confidence": 1.0,
            "uuid": "7755b6c7-e823-404c-b6cc-3fe49558cf7d",
            "name": "2-Butanone",
            "url": "https://haz-map.com/Agents/320",
            "category": "agents"
          },
          {
            "type": "name_match",
            "text": "ethylene",
            "confidence": 1.0,
            "uuid": "958eacc0-5135-4b62-bb93-6df972bf552f",
            "name": "Ethylene",
            "url": "https://haz-map.com/Agents/1076",
            "category": "agents"
          },
          {
            "type": "name_match",
            "text": "piperonal",
            "confidence": 1.0,
            "uuid": "c1646bc4-f3e5-426b-81f0-649ce55960c3",
            "name": "Piperonal",
            "url": "https://haz-map.com/Agents/6723",
            "category": "agents"
          }
        ]
      },
      "category": {
        "original_name": "Category",
        "value": "Other Aromatic Compounds",
        "links": [],
        "cross_references": []
      },
      "description": {
        "original_name": "Description",
        "value": "Clear yellow liquid; [CAMEO] White or pale yellow powder; [MSDSonline]",
        "links": [],
        "cross_references": []
      },
      "comments": {
        "original_name": "Comments",
        "value": "Toxic by ingestion; Estimated lethal dose = 1 ounce to 1 pint; [HSDB] May cause irritation; [MSDSonline]",
        "links": [],
        "cross_references": []
      },
      "biomedical_references": {
        "original_name": "Biomedical References",
        "value": "Search PubMed",
        "links": [
          {
            "text": "Search PubMed",
            "url": "https://www.ncbi.nlm.nih.gov/pubmed?term=Piperonyl+acetone%20AND%20human%5Bmh%5D%20AND%20%28Occupational%20Diseases%20%5Bmh%5D%20OR%20Occupational%20Exposure%20%5Bmh%5D%29%20%20AND%20%28tox%5Bsb%5D%29&cmd=search"
          }
        ],
        "cross_references": []
      }
    },
    "exposure_assessment": {
      "vapor_pressure": {
        "original_name": "Vapor Pressure",
        "value": "0.000594 mm Hg",
        "links": [],
        "cross_references": []
      }
    },
    "diseases_processes_and_activities_linked_to_this_agent": {
      "other_information": {
        "original_name": "Other Information",
        "value": "No other related information on this agent was found.",
        "links": [],
        "cross_references": []
      }
    }
  },
  "cross_references": [
    {
      "type": "name_match",
      "text": "acetone",
      "confidence": 1.0,
      "uuid": "31b7bdae-eb37-44cc-9c56-b6dfc1908d64",
      "name": "Acetone",
      "url": "https://haz-map.com/Agents/138",
      "category": "agents"
    },
    {
      "type": "name_match",
      "text": "2-butanone",
      "confidence": 1.0,
      "uuid": "7755b6c7-e823-404c-b6cc-3fe49558cf7d",
      "name": "2-Butanone",
      "url": "https://haz-map.com/Agents/320",
      "category": "agents"
    },
    {
      "type": "name_match",
      "text": "ethylene",
      "confidence": 1.0,
      "uuid": "958eacc0-5135-4b62-bb93-6df972bf552f",
      "name": "Ethylene",
      "url": "https://haz-map.com/Agents/1076",
      "category": "agents"
    },
    {
      "type": "name_match",
      "text": "piperonal",
      "confidence": 1.0,
      "uuid": "c1646bc4-f3e5-426b-81f0-649ce55960c3",
      "name": "Piperonal",
      "url": "https://haz-map.com/Agents/6723",
      "category": "agents"
    },
    {
      "type": "name_match",
      "text": "piperonyl acetone",
      "confidence": 1.0,
      "uuid": "53db9e0f-ba1f-41b6-b9a9-69224f06a18f",
      "name": "Piperonyl acetone",
      "url": "https://haz-map.com/Agents/6724",
      "category": "agents"
    }
  ],
  "all_links": [
    {
      "text": "Search PubMed",
      "url": "https://www.ncbi.nlm.nih.gov/pubmed?term=Piperonyl+acetone%20AND%20human%5Bmh%5D%20AND%20%28Occupational%20Diseases%20%5Bmh%5D%20OR%20Occupational%20Exposure%20%5Bmh%5D%29%20%20AND%20%28tox%5Bsb%5D%29&cmd=search"
    }
  ]
}