{
  "metadata": {
    "scraped_from": "https://haz-map.com/Agents/5106",
    "entity_name": "2-Ethylhexyl epoxystearate",
    "category": "agents",
    "uuid": "53f5ef40-773c-4224-b7e7-dce485d40277",
    "scraped_at": "2025-07-23T19:49:02.152326"
  },
  "parsed_at": "2025-07-24T01:07:23.989834",
  "title": "2-Ethylhexyl epoxystearate",
  "sections": {
    "general": {
      "agent_name": {
        "original_name": "Agent Name",
        "value": "2-Ethylhexyl epoxystearate",
        "links": [],
        "cross_references": [
          {
            "type": "name_match",
            "text": "tea",
            "confidence": 1.0,
            "uuid": "773409e5-ac1a-4c9e-9470-9667ca82091c",
            "name": "Tea",
            "url": "https://haz-map.com/Agents/878",
            "category": "agents"
          },
          {
            "type": "name_match",
            "text": "2-ethylhexyl epoxystearate",
            "confidence": 1.0,
            "uuid": "53f5ef40-773c-4224-b7e7-dce485d40277",
            "name": "2-Ethylhexyl epoxystearate",
            "url": "https://haz-map.com/Agents/5106",
            "category": "agents"
          }
        ]
      },
      "cas_number": {
        "original_name": "CAS Number",
        "value": "141-38-8",
        "links": [],
        "cross_references": []
      },
      "formula": {
        "original_name": "Formula",
        "value": "C26-H50-O3",
        "links": [],
        "cross_references": []
      },
      "major_category": {
        "original_name": "Major Category",
        "value": "Other Classes",
        "links": [],
        "cross_references": []
      },
      "synonyms": {
        "original_name": "Synonyms",
        "value": "2-Ethylhexyl 9,10-epoxyoctadecanoate; 9,10-Epoxyoctadecanoic acid, 2-ethylhexyl ester; 9,10-Epoxystearic acid, 2-ethylhexyl ester; Octadecanoic acid, 9,10-epoxy-, 2-ethylhexyl ester; Oxiraneoctanoic acid, 3-octyl-, 2-ethylhexyl ester; [ChemIDplus]",
        "links": [],
        "cross_references": [
          {
            "type": "name_match",
            "text": "tea",
            "confidence": 1.0,
            "uuid": "773409e5-ac1a-4c9e-9470-9667ca82091c",
            "name": "Tea",
            "url": "https://haz-map.com/Agents/878",
            "category": "agents"
          },
          {
            "type": "name_match",
            "text": "octanoic acid",
            "confidence": 1.0,
            "uuid": "91031b08-c749-4488-913e-e44380cc24cd",
            "name": "Octanoic acid",
            "url": "https://haz-map.com/Agents/2211",
            "category": "agents"
          },
          {
            "type": "name_match",
            "text": "stearic acid",
            "confidence": 1.0,
            "uuid": "bca9cb9c-5b13-46e3-ab28-e8e0d566876e",
            "name": "Stearic acid",
            "url": "https://haz-map.com/Agents/7203",
            "category": "agents"
          }
        ]
      },
      "category": {
        "original_name": "Category",
        "value": "Stearates",
        "links": [],
        "cross_references": [
          {
            "type": "name_match",
            "text": "tea",
            "confidence": 1.0,
            "uuid": "773409e5-ac1a-4c9e-9470-9667ca82091c",
            "name": "Tea",
            "url": "https://haz-map.com/Agents/878",
            "category": "agents"
          },
          {
            "type": "name_match",
            "text": "stearates",
            "confidence": 1.0,
            "uuid": "045c9fd5-f3b6-4b87-bd04-15b7f96495b6",
            "name": "STEARATES",
            "url": "https://haz-map.com/Agents/1690",
            "category": "agents"
          }
        ]
      },
      "description": {
        "original_name": "Description",
        "value": "Clear amber liquid; [CAMEO]",
        "links": [],
        "cross_references": []
      },
      "sourcesuses": {
        "original_name": "Sources/Uses",
        "value": "Used as heat and light stabilizer and plasticizer for polyvinyl chloride; [HSDB]",
        "links": [],
        "cross_references": [
          {
            "type": "name_match",
            "text": "vinyl chloride",
            "confidence": 1.0,
            "uuid": "7b74b11d-1ba5-4dde-8d86-ed88645b5ce1",
            "name": "Vinyl chloride",
            "url": "https://haz-map.com/Agents/15",
            "category": "agents"
          },
          {
            "type": "name_match",
            "text": "polyvinyl chloride",
            "confidence": 1.0,
            "uuid": "b11c91ba-ec9a-445f-a605-51f00a75c949",
            "name": "Polyvinyl chloride",
            "url": "https://haz-map.com/Agents/849",
            "category": "agents"
          },
          {
            "type": "name_match",
            "text": "ht",
            "confidence": 1.0,
            "uuid": "764df367-8d53-4a11-81a2-31ccfe122a8d",
            "name": "HT",
            "url": "https://haz-map.com/Agents/2168",
            "category": "agents"
          }
        ]
      },
      "comments": {
        "original_name": "Comments",
        "value": "Mild irritant effect on rabbit skin; [RTECS] May polymerize when heated; A skin irritant; [CAMEO] See \"STEARATES.\"",
        "links": [],
        "cross_references": [
          {
            "type": "name_match",
            "text": "tea",
            "confidence": 1.0,
            "uuid": "773409e5-ac1a-4c9e-9470-9667ca82091c",
            "name": "Tea",
            "url": "https://haz-map.com/Agents/878",
            "category": "agents"
          },
          {
            "type": "name_match",
            "text": "stearates",
            "confidence": 1.0,
            "uuid": "045c9fd5-f3b6-4b87-bd04-15b7f96495b6",
            "name": "STEARATES",
            "url": "https://haz-map.com/Agents/1690",
            "category": "agents"
          }
        ]
      },
      "biomedical_references": {
        "original_name": "Biomedical References",
        "value": "Search PubMed",
        "links": [
          {
            "text": "Search PubMed",
            "url": "https://www.ncbi.nlm.nih.gov/pubmed?term=2-Ethylhexyl+epoxystearate%20AND%20human%5Bmh%5D%20AND%20%28Occupational%20Diseases%20%5Bmh%5D%20OR%20Occupational%20Exposure%20%5Bmh%5D%29%20%20AND%20%28tox%5Bsb%5D%29&cmd=search"
          }
        ],
        "cross_references": []
      }
    },
    "exposure_assessment": {
      "vapor_pressure": {
        "original_name": "Vapor Pressure",
        "value": "5.2 mm Hg",
        "links": [],
        "cross_references": []
      }
    },
    "diseases_processes_and_activities_linked_to_this_agent": {
      "other_information": {
        "original_name": "Other Information",
        "value": "No other related information on this agent was found.",
        "links": [],
        "cross_references": []
      }
    }
  },
  "cross_references": [
    {
      "type": "name_match",
      "text": "vinyl chloride",
      "confidence": 1.0,
      "uuid": "7b74b11d-1ba5-4dde-8d86-ed88645b5ce1",
      "name": "Vinyl chloride",
      "url": "https://haz-map.com/Agents/15",
      "category": "agents"
    },
    {
      "type": "name_match",
      "text": "polyvinyl chloride",
      "confidence": 1.0,
      "uuid": "b11c91ba-ec9a-445f-a605-51f00a75c949",
      "name": "Polyvinyl chloride",
      "url": "https://haz-map.com/Agents/849",
      "category": "agents"
    },
    {
      "type": "name_match",
      "text": "tea",
      "confidence": 1.0,
      "uuid": "773409e5-ac1a-4c9e-9470-9667ca82091c",
      "name": "Tea",
      "url": "https://haz-map.com/Agents/878",
      "category": "agents"
    },
    {
      "type": "name_match",
      "text": "stearates",
      "confidence": 1.0,
      "uuid": "045c9fd5-f3b6-4b87-bd04-15b7f96495b6",
      "name": "STEARATES",
      "url": "https://haz-map.com/Agents/1690",
      "category": "agents"
    },
    {
      "type": "name_match",
      "text": "ht",
      "confidence": 1.0,
      "uuid": "764df367-8d53-4a11-81a2-31ccfe122a8d",
      "name": "HT",
      "url": "https://haz-map.com/Agents/2168",
      "category": "agents"
    },
    {
      "type": "name_match",
      "text": "octanoic acid",
      "confidence": 1.0,
      "uuid": "91031b08-c749-4488-913e-e44380cc24cd",
      "name": "Octanoic acid",
      "url": "https://haz-map.com/Agents/2211",
      "category": "agents"
    },
    {
      "type": "name_match",
      "text": "2-ethylhexyl epoxystearate",
      "confidence": 1.0,
      "uuid": "53f5ef40-773c-4224-b7e7-dce485d40277",
      "name": "2-Ethylhexyl epoxystearate",
      "url": "https://haz-map.com/Agents/5106",
      "category": "agents"
    },
    {
      "type": "name_match",
      "text": "stearic acid",
      "confidence": 1.0,
      "uuid": "bca9cb9c-5b13-46e3-ab28-e8e0d566876e",
      "name": "Stearic acid",
      "url": "https://haz-map.com/Agents/7203",
      "category": "agents"
    }
  ],
  "all_links": [
    {
      "text": "Search PubMed",
      "url": "https://www.ncbi.nlm.nih.gov/pubmed?term=2-Ethylhexyl+epoxystearate%20AND%20human%5Bmh%5D%20AND%20%28Occupational%20Diseases%20%5Bmh%5D%20OR%20Occupational%20Exposure%20%5Bmh%5D%29%20%20AND%20%28tox%5Bsb%5D%29&cmd=search"
    }
  ]
}