{
  "metadata": {
    "scraped_from": "https://haz-map.com/Agents/20496",
    "entity_name": "Cycloheptatriene",
    "category": "agents",
    "uuid": "544f9b57-2801-4828-9e38-83fc5d4ea858",
    "scraped_at": "2025-07-23T22:26:16.625815"
  },
  "parsed_at": "2025-07-24T01:03:00.955867",
  "title": "Cycloheptatriene",
  "sections": {
    "general": {
      "agent_name": {
        "original_name": "Agent Name",
        "value": "Cycloheptatriene",
        "links": [],
        "cross_references": [
          {
            "type": "name_match",
            "text": "cycloheptatriene",
            "confidence": 1.0,
            "uuid": "544f9b57-2801-4828-9e38-83fc5d4ea858",
            "name": "Cycloheptatriene",
            "url": "https://haz-map.com/Agents/20496",
            "category": "agents"
          }
        ]
      },
      "cas_number": {
        "original_name": "CAS Number",
        "value": "544-25-2",
        "links": [],
        "cross_references": []
      },
      "formula": {
        "original_name": "Formula",
        "value": "C7-H8",
        "links": [],
        "cross_references": []
      },
      "major_category": {
        "original_name": "Major Category",
        "value": "Other Classes",
        "links": [],
        "cross_references": []
      },
      "synonyms": {
        "original_name": "Synonyms",
        "value": "Tropilidine; Tropiliden; Tropilidene; 1,3,5-Cycloheptatriene; [ChemIDplus] UN2603",
        "links": [],
        "cross_references": [
          {
            "type": "name_match",
            "text": "cycloheptatriene",
            "confidence": 1.0,
            "uuid": "544f9b57-2801-4828-9e38-83fc5d4ea858",
            "name": "Cycloheptatriene",
            "url": "https://haz-map.com/Agents/20496",
            "category": "agents"
          }
        ]
      },
      "category": {
        "original_name": "Category",
        "value": "Aliphatics, Unsaturated",
        "links": [],
        "cross_references": []
      },
      "description": {
        "original_name": "Description",
        "value": "Colorless liquid; [CAMEO] Yellow liquid with an unpleasant odor; [Alfa Aesar MSDS]",
        "links": [],
        "cross_references": []
      },
      "sourcesuses": {
        "original_name": "Sources/Uses",
        "value": "Used to make other chemicals; [CAMEO]",
        "links": [],
        "cross_references": [
          {
            "type": "name_match",
            "text": "mica",
            "confidence": 1.0,
            "uuid": "433f26f1-c399-4596-b179-ce3843cfd465",
            "name": "Mica",
            "url": "https://haz-map.com/Agents/621",
            "category": "agents"
          }
        ]
      },
      "comments": {
        "original_name": "Comments",
        "value": "Causes convulsions, regional or general arteriolar constriction, and hemorrhage in oral lethal-dose studies of rats and mice; [RTECS] May polymerize; May be narcotic at high concentrations; [CAMEO] A skin and strong eye irritant; Highly toxic by ingestion; Toxic by skin absorption; An aspiration hazard by ingestion (may cause lung injury); [Alfa Aesar MSDS] See \"Cyclohexene.\"",
        "links": [],
        "cross_references": [
          {
            "type": "name_match",
            "text": "convulsion",
            "confidence": 1.0,
            "uuid": "af2c36f8-707a-48e3-a62b-1aa07adc9b72",
            "name": "convulsion",
            "url": "https://haz-map.com/Findings/14",
            "category": "findings"
          },
          {
            "type": "name_match",
            "text": "cyclohexene",
            "confidence": 1.0,
            "uuid": "899603b1-ebcd-41d9-a67b-1e8d7d4eee3f",
            "name": "Cyclohexene",
            "url": "https://haz-map.com/Agents/1173",
            "category": "agents"
          },
          {
            "type": "name_match",
            "text": "hexene",
            "confidence": 1.0,
            "uuid": "592a6801-2d0b-441f-b3f6-6d67971256b7",
            "name": "Hexene",
            "url": "https://haz-map.com/Agents/5534",
            "category": "agents"
          }
        ]
      },
      "biomedical_references": {
        "original_name": "Biomedical References",
        "value": "Search PubMed",
        "links": [
          {
            "text": "Search PubMed",
            "url": "https://www.ncbi.nlm.nih.gov/pubmed?term=Cycloheptatriene%20AND%20human%5Bmh%5D%20AND%20%28Occupational%20Diseases%20%5Bmh%5D%20OR%20Occupational%20Exposure%20%5Bmh%5D%29%20%20AND%20%28tox%5Bsb%5D%29&cmd=search"
          }
        ],
        "cross_references": []
      }
    },
    "exposure_assessment": {
      "vapor_pressure": {
        "original_name": "Vapor Pressure",
        "value": "23.5 mm Hg",
        "links": [],
        "cross_references": []
      },
      "nfpa": {
        "original_name": "NFPA",
        "value": "may ignite at ambient temp",
        "links": [],
        "cross_references": []
      }
    },
    "adverse_effects": {
      "neurotoxin": {
        "original_name": "Neurotoxin",
        "value": "Other CNS neurotoxin",
        "links": [],
        "cross_references": []
      }
    },
    "diseases_processes_and_activities_linked_to_this_agent": {
      "other_information": {
        "original_name": "Other Information",
        "value": "No other related information on this agent was found.",
        "links": [],
        "cross_references": []
      }
    }
  },
  "cross_references": [
    {
      "type": "name_match",
      "text": "convulsion",
      "confidence": 1.0,
      "uuid": "af2c36f8-707a-48e3-a62b-1aa07adc9b72",
      "name": "convulsion",
      "url": "https://haz-map.com/Findings/14",
      "category": "findings"
    },
    {
      "type": "name_match",
      "text": "mica",
      "confidence": 1.0,
      "uuid": "433f26f1-c399-4596-b179-ce3843cfd465",
      "name": "Mica",
      "url": "https://haz-map.com/Agents/621",
      "category": "agents"
    },
    {
      "type": "name_match",
      "text": "cyclohexene",
      "confidence": 1.0,
      "uuid": "899603b1-ebcd-41d9-a67b-1e8d7d4eee3f",
      "name": "Cyclohexene",
      "url": "https://haz-map.com/Agents/1173",
      "category": "agents"
    },
    {
      "type": "name_match",
      "text": "hexene",
      "confidence": 1.0,
      "uuid": "592a6801-2d0b-441f-b3f6-6d67971256b7",
      "name": "Hexene",
      "url": "https://haz-map.com/Agents/5534",
      "category": "agents"
    },
    {
      "type": "name_match",
      "text": "cycloheptatriene",
      "confidence": 1.0,
      "uuid": "544f9b57-2801-4828-9e38-83fc5d4ea858",
      "name": "Cycloheptatriene",
      "url": "https://haz-map.com/Agents/20496",
      "category": "agents"
    }
  ],
  "all_links": [
    {
      "text": "Search PubMed",
      "url": "https://www.ncbi.nlm.nih.gov/pubmed?term=Cycloheptatriene%20AND%20human%5Bmh%5D%20AND%20%28Occupational%20Diseases%20%5Bmh%5D%20OR%20Occupational%20Exposure%20%5Bmh%5D%29%20%20AND%20%28tox%5Bsb%5D%29&cmd=search"
    }
  ]
}