{
  "metadata": {
    "scraped_from": "https://haz-map.com/Agents/13655",
    "entity_name": "Dimethyl sulfoxide-d6",
    "category": "agents",
    "uuid": "54ba80ba-2832-4dfc-96c8-8f58ea86648f",
    "scraped_at": "2025-07-23T21:16:50.621459"
  },
  "parsed_at": "2025-07-24T01:01:20.857496",
  "title": "Dimethyl sulfoxide-d6",
  "sections": {
    "general": {
      "agent_name": {
        "original_name": "Agent Name",
        "value": "Dimethyl sulfoxide-d6",
        "links": [],
        "cross_references": [
          {
            "type": "name_match",
            "text": "dimethyl sulfoxide",
            "confidence": 1.0,
            "uuid": "c29c05b9-2a62-4c06-a205-f73b1ef4892d",
            "name": "Dimethyl sulfoxide",
            "url": "https://haz-map.com/Agents/1671",
            "category": "agents"
          },
          {
            "type": "name_match",
            "text": "dimethyl sulfoxide-d6",
            "confidence": 1.0,
            "uuid": "54ba80ba-2832-4dfc-96c8-8f58ea86648f",
            "name": "Dimethyl sulfoxide-d6",
            "url": "https://haz-map.com/Agents/13655",
            "category": "agents"
          }
        ]
      },
      "cas_number": {
        "original_name": "CAS Number",
        "value": "2206-27-1",
        "links": [],
        "cross_references": []
      },
      "formula": {
        "original_name": "Formula",
        "value": "C2-D6-O-S",
        "links": [],
        "cross_references": []
      },
      "major_category": {
        "original_name": "Major Category",
        "value": "Solvents",
        "links": [],
        "cross_references": []
      },
      "synonyms": {
        "original_name": "Synonyms",
        "value": "Hexadeuteriodimethyl sulfoxide; Di((2H3)methyl) sulphoxide; Methane-d3, sulfinylbis-; [ChemIDplus] (Methyl sulfoxide)-d6; DMSO-D6; [Sigma-Aldrich MSDS]",
        "links": [],
        "cross_references": [
          {
            "type": "name_match",
            "text": "methane",
            "confidence": 1.0,
            "uuid": "5018bf73-24be-4353-8643-c351d5f52186",
            "name": "Methane",
            "url": "https://haz-map.com/Agents/1074",
            "category": "agents"
          },
          {
            "type": "name_match",
            "text": "ethane",
            "confidence": 1.0,
            "uuid": "5162cc8c-dfb9-4060-81ac-38a8cec7f9dd",
            "name": "Ethane",
            "url": "https://haz-map.com/Agents/1075",
            "category": "agents"
          },
          {
            "type": "name_match",
            "text": "dimethyl sulfoxide",
            "confidence": 1.0,
            "uuid": "c29c05b9-2a62-4c06-a205-f73b1ef4892d",
            "name": "Dimethyl sulfoxide",
            "url": "https://haz-map.com/Agents/1671",
            "category": "agents"
          }
        ]
      },
      "category": {
        "original_name": "Category",
        "value": "Other Solvents",
        "links": [],
        "cross_references": []
      },
      "description": {
        "original_name": "Description",
        "value": "Hygroscopic liquid; [Sigma-Aldrich MSDS]",
        "links": [],
        "cross_references": []
      },
      "comments": {
        "original_name": "Comments",
        "value": "May cause irritation; [Sigma-Aldrich MSDS] See \"Dimethyl sulfoxide.\" See \"Deuterium.\"",
        "links": [],
        "cross_references": [
          {
            "type": "name_match",
            "text": "dimethyl sulfoxide",
            "confidence": 1.0,
            "uuid": "c29c05b9-2a62-4c06-a205-f73b1ef4892d",
            "name": "Dimethyl sulfoxide",
            "url": "https://haz-map.com/Agents/1671",
            "category": "agents"
          },
          {
            "type": "name_match",
            "text": "deuterium",
            "confidence": 1.0,
            "uuid": "ec37973d-f893-4e67-b758-6711c6893a52",
            "name": "Deuterium",
            "url": "https://haz-map.com/Agents/2021",
            "category": "agents"
          }
        ]
      },
      "biomedical_references": {
        "original_name": "Biomedical References",
        "value": "Search PubMed",
        "links": [
          {
            "text": "Search PubMed",
            "url": "https://www.ncbi.nlm.nih.gov/pubmed?term=Dimethyl+sulfoxide-d6%20AND%20human%5Bmh%5D%20AND%20%28Occupational%20Diseases%20%5Bmh%5D%20OR%20Occupational%20Exposure%20%5Bmh%5D%29%20%20AND%20%28tox%5Bsb%5D%29&cmd=search"
          }
        ],
        "cross_references": []
      }
    },
    "exposure_assessment": {
      "vapor_pressure": {
        "original_name": "Vapor Pressure",
        "value": "0.41 mm Hg",
        "links": [],
        "cross_references": []
      },
      "explanatory_notes": {
        "original_name": "Explanatory Notes",
        "value": "The Guide in the Emergency Response Guidebook is for \"Combustible liquid, n.o.s.\"",
        "links": [],
        "cross_references": []
      }
    },
    "adverse_effects": {
      "neurotoxin": {
        "original_name": "Neurotoxin",
        "value": "Acute solvent syndrome",
        "links": [],
        "cross_references": []
      },
      "hepatotoxin": {
        "original_name": "Hepatotoxin",
        "value": "Hepatoxic (a) from occupational exposure (secondary effect) or (b) in animal studies or in humans after ingestion",
        "links": [],
        "cross_references": []
      }
    },
    "diseases_processes_and_activities_linked_to_this_agent": {
      "diseases": {
        "original_name": "Diseases",
        "value": "Occupational diseases associated with exposure to this agent: Solvents, acute toxic effect",
        "links": [
          {
            "text": "Solvents, acute toxic effect",
            "url": "https://haz-map.com/Diseases/326"
          }
        ],
        "cross_references": [
          {
            "type": "url_match",
            "text": "Solvents, acute toxic effect",
            "url": "https://haz-map.com/Diseases/326",
            "confidence": 1.0,
            "uuid": "581e90e3-9d0c-45f0-aa6c-3468c28da129",
            "name": "Solvents, acute toxic effect",
            "category": "diseases"
          }
        ]
      }
    }
  },
  "cross_references": [
    {
      "type": "url_match",
      "text": "Solvents, acute toxic effect",
      "url": "https://haz-map.com/Diseases/326",
      "confidence": 1.0,
      "uuid": "581e90e3-9d0c-45f0-aa6c-3468c28da129",
      "name": "Solvents, acute toxic effect",
      "category": "diseases"
    },
    {
      "type": "name_match",
      "text": "methane",
      "confidence": 1.0,
      "uuid": "5018bf73-24be-4353-8643-c351d5f52186",
      "name": "Methane",
      "url": "https://haz-map.com/Agents/1074",
      "category": "agents"
    },
    {
      "type": "name_match",
      "text": "ethane",
      "confidence": 1.0,
      "uuid": "5162cc8c-dfb9-4060-81ac-38a8cec7f9dd",
      "name": "Ethane",
      "url": "https://haz-map.com/Agents/1075",
      "category": "agents"
    },
    {
      "type": "name_match",
      "text": "dimethyl sulfoxide",
      "confidence": 1.0,
      "uuid": "c29c05b9-2a62-4c06-a205-f73b1ef4892d",
      "name": "Dimethyl sulfoxide",
      "url": "https://haz-map.com/Agents/1671",
      "category": "agents"
    },
    {
      "type": "name_match",
      "text": "deuterium",
      "confidence": 1.0,
      "uuid": "ec37973d-f893-4e67-b758-6711c6893a52",
      "name": "Deuterium",
      "url": "https://haz-map.com/Agents/2021",
      "category": "agents"
    },
    {
      "type": "name_match",
      "text": "dimethyl sulfoxide-d6",
      "confidence": 1.0,
      "uuid": "54ba80ba-2832-4dfc-96c8-8f58ea86648f",
      "name": "Dimethyl sulfoxide-d6",
      "url": "https://haz-map.com/Agents/13655",
      "category": "agents"
    }
  ],
  "all_links": [
    {
      "text": "Search PubMed",
      "url": "https://www.ncbi.nlm.nih.gov/pubmed?term=Dimethyl+sulfoxide-d6%20AND%20human%5Bmh%5D%20AND%20%28Occupational%20Diseases%20%5Bmh%5D%20OR%20Occupational%20Exposure%20%5Bmh%5D%29%20%20AND%20%28tox%5Bsb%5D%29&cmd=search"
    },
    {
      "text": "Solvents, acute toxic effect",
      "url": "https://haz-map.com/Diseases/326"
    }
  ]
}