{
  "metadata": {
    "scraped_from": "https://haz-map.com/Agents/19460",
    "entity_name": "Trinitrobenzenesulfonic acid",
    "category": "agents",
    "uuid": "5559f680-0c6c-4c4d-8d7d-0a472388de5a",
    "scraped_at": "2025-07-23T22:06:34.867352"
  },
  "parsed_at": "2025-07-24T01:00:21.523487",
  "title": "Trinitrobenzenesulfonic acid",
  "sections": {
    "general": {
      "agent_name": {
        "original_name": "Agent Name",
        "value": "Trinitrobenzenesulfonic acid",
        "links": [],
        "cross_references": [
          {
            "type": "name_match",
            "text": "benzene",
            "confidence": 1.0,
            "uuid": "b05124de-5f34-4c14-8f04-ccb20c3780d9",
            "name": "Benzene",
            "url": "https://haz-map.com/Agents/5",
            "category": "agents"
          },
          {
            "type": "name_match",
            "text": "nitrobenzene",
            "confidence": 1.0,
            "uuid": "4488262c-4790-4774-a462-bf0cc71ff40c",
            "name": "Nitrobenzene",
            "url": "https://haz-map.com/Agents/569",
            "category": "agents"
          },
          {
            "type": "name_match",
            "text": "benzenesulfonic acid",
            "confidence": 1.0,
            "uuid": "39630619-7b3f-4266-b4e1-e41deb2f24e6",
            "name": "Benzenesulfonic acid",
            "url": "https://haz-map.com/Agents/3840",
            "category": "agents"
          },
          {
            "type": "name_match",
            "text": "trinitrobenzenesulfonic acid",
            "confidence": 1.0,
            "uuid": "5559f680-0c6c-4c4d-8d7d-0a472388de5a",
            "name": "Trinitrobenzenesulfonic acid",
            "url": "https://haz-map.com/Agents/19460",
            "category": "agents"
          }
        ]
      },
      "alternative_name": {
        "original_name": "Alternative Name",
        "value": "Picryl sulfonic acid",
        "links": [],
        "cross_references": []
      },
      "cas_number": {
        "original_name": "CAS Number",
        "value": "2508-19-2",
        "links": [],
        "cross_references": []
      },
      "formula": {
        "original_name": "Formula",
        "value": "C6-H3-N3-O9-S",
        "links": [],
        "cross_references": []
      },
      "major_category": {
        "original_name": "Major Category",
        "value": "Other Uses",
        "links": [],
        "cross_references": []
      },
      "synonyms": {
        "original_name": "Synonyms",
        "value": "2,4,6-Trinitrobenzene-1-sulfonic acid; 2,4,6-Trinitrobenzenesulfonic acid; Picryl sulfonic acid; 2,4,6-Trinitrobenzenesulphonic acid; Benzenesulfonic acid, 2,4,6-trinitro-; [ChemIDplus] TNBS; [RTECS] UN0386",
        "links": [],
        "cross_references": [
          {
            "type": "name_match",
            "text": "benzene",
            "confidence": 1.0,
            "uuid": "b05124de-5f34-4c14-8f04-ccb20c3780d9",
            "name": "Benzene",
            "url": "https://haz-map.com/Agents/5",
            "category": "agents"
          },
          {
            "type": "name_match",
            "text": "nitrobenzene",
            "confidence": 1.0,
            "uuid": "4488262c-4790-4774-a462-bf0cc71ff40c",
            "name": "Nitrobenzene",
            "url": "https://haz-map.com/Agents/569",
            "category": "agents"
          },
          {
            "type": "name_match",
            "text": "benzenesulfonic acid",
            "confidence": 1.0,
            "uuid": "39630619-7b3f-4266-b4e1-e41deb2f24e6",
            "name": "Benzenesulfonic acid",
            "url": "https://haz-map.com/Agents/3840",
            "category": "agents"
          },
          {
            "type": "name_match",
            "text": "trinitrobenzenesulfonic acid",
            "confidence": 1.0,
            "uuid": "5559f680-0c6c-4c4d-8d7d-0a472388de5a",
            "name": "Trinitrobenzenesulfonic acid",
            "url": "https://haz-map.com/Agents/19460",
            "category": "agents"
          }
        ]
      },
      "category": {
        "original_name": "Category",
        "value": "Explosives",
        "links": [],
        "cross_references": []
      },
      "description": {
        "original_name": "Description",
        "value": "Solid; [Sigma-Aldrich MSDS]",
        "links": [],
        "cross_references": []
      },
      "sourcesuses": {
        "original_name": "Sources/Uses",
        "value": "Used as a reagent to neutralize peptide terminal amino groups; [ChemIDplus]",
        "links": [],
        "cross_references": []
      },
      "comments": {
        "original_name": "Comments",
        "value": "A detonating explosive and strong oxidizing agent; [CAMEO] Explosive; Causes burns; Inhalation may cause corrosive injuries to upper respiratory tract; May cause skin sensitization; Toxic by ingestion; [Sigma-Aldrich MSDS] See \"Picryl chloride.\"",
        "links": [],
        "cross_references": [
          {
            "type": "name_match",
            "text": "burn",
            "confidence": 1.0,
            "uuid": "63665de5-6376-4918-8dbf-4c10c4d63837",
            "name": "burn",
            "url": "https://haz-map.com/Findings/204",
            "category": "findings"
          },
          {
            "type": "name_match",
            "text": "picryl chloride",
            "confidence": 1.0,
            "uuid": "85ca40ba-3dd5-4bc3-b081-ef3669250351",
            "name": "Picryl chloride",
            "url": "https://haz-map.com/Agents/3082",
            "category": "agents"
          }
        ]
      },
      "biomedical_references": {
        "original_name": "Biomedical References",
        "value": "Search PubMed",
        "links": [
          {
            "text": "Search PubMed",
            "url": "https://www.ncbi.nlm.nih.gov/pubmed?term=Trinitrobenzenesulfonic+acid%20AND%20human%5Bmh%5D%20AND%20%28Occupational%20Diseases%20%5Bmh%5D%20OR%20Occupational%20Exposure%20%5Bmh%5D%29%20%20AND%20%28tox%5Bsb%5D%29&cmd=search"
          }
        ],
        "cross_references": []
      }
    },
    "exposure_assessment": {
      "vapor_pressure": {
        "original_name": "Vapor Pressure",
        "value": "5.2E-12 mm Hg",
        "links": [],
        "cross_references": []
      },
      "explanatory_notes": {
        "original_name": "Explanatory Notes",
        "value": "The Guide in the Emergency Response Guidebook is for \"Explosives, division 1.1, 1.2, 1.3, or 1.5.\"",
        "links": [],
        "cross_references": []
      }
    },
    "adverse_effects": {
      "skin_sensitizer": {
        "original_name": "Skin Sensitizer",
        "value": "Yes",
        "links": [],
        "cross_references": []
      },
      "dermatotoxin": {
        "original_name": "Dermatotoxin",
        "value": "Skin burns",
        "links": [],
        "cross_references": [
          {
            "type": "name_match",
            "text": "burn",
            "confidence": 1.0,
            "uuid": "63665de5-6376-4918-8dbf-4c10c4d63837",
            "name": "burn",
            "url": "https://haz-map.com/Findings/204",
            "category": "findings"
          }
        ]
      }
    },
    "diseases_processes_and_activities_linked_to_this_agent": {
      "diseases": {
        "original_name": "Diseases",
        "value": "Occupational diseases associated with exposure to this agent: Contact dermatitis, allergic",
        "links": [
          {
            "text": "Contact dermatitis, allergic",
            "url": "https://haz-map.com/Diseases/18"
          }
        ],
        "cross_references": [
          {
            "type": "url_match",
            "text": "Contact dermatitis, allergic",
            "url": "https://haz-map.com/Diseases/18",
            "confidence": 1.0,
            "uuid": "c9499de0-9aa1-41bf-8753-cd5b28a63e29",
            "name": "Contact dermatitis, allergic",
            "category": "diseases"
          },
          {
            "type": "name_match",
            "text": "dermatitis",
            "confidence": 1.0,
            "uuid": "fe9c05f2-b19f-4ceb-ac7a-ffb7d7a0cae0",
            "name": "dermatitis",
            "url": "https://haz-map.com/Findings/59",
            "category": "findings"
          }
        ]
      }
    }
  },
  "cross_references": [
    {
      "type": "url_match",
      "text": "Contact dermatitis, allergic",
      "url": "https://haz-map.com/Diseases/18",
      "confidence": 1.0,
      "uuid": "c9499de0-9aa1-41bf-8753-cd5b28a63e29",
      "name": "Contact dermatitis, allergic",
      "category": "diseases"
    },
    {
      "type": "name_match",
      "text": "dermatitis",
      "confidence": 1.0,
      "uuid": "fe9c05f2-b19f-4ceb-ac7a-ffb7d7a0cae0",
      "name": "dermatitis",
      "url": "https://haz-map.com/Findings/59",
      "category": "findings"
    },
    {
      "type": "name_match",
      "text": "burn",
      "confidence": 1.0,
      "uuid": "63665de5-6376-4918-8dbf-4c10c4d63837",
      "name": "burn",
      "url": "https://haz-map.com/Findings/204",
      "category": "findings"
    },
    {
      "type": "name_match",
      "text": "benzene",
      "confidence": 1.0,
      "uuid": "b05124de-5f34-4c14-8f04-ccb20c3780d9",
      "name": "Benzene",
      "url": "https://haz-map.com/Agents/5",
      "category": "agents"
    },
    {
      "type": "name_match",
      "text": "nitrobenzene",
      "confidence": 1.0,
      "uuid": "4488262c-4790-4774-a462-bf0cc71ff40c",
      "name": "Nitrobenzene",
      "url": "https://haz-map.com/Agents/569",
      "category": "agents"
    },
    {
      "type": "name_match",
      "text": "picryl chloride",
      "confidence": 1.0,
      "uuid": "85ca40ba-3dd5-4bc3-b081-ef3669250351",
      "name": "Picryl chloride",
      "url": "https://haz-map.com/Agents/3082",
      "category": "agents"
    },
    {
      "type": "name_match",
      "text": "benzenesulfonic acid",
      "confidence": 1.0,
      "uuid": "39630619-7b3f-4266-b4e1-e41deb2f24e6",
      "name": "Benzenesulfonic acid",
      "url": "https://haz-map.com/Agents/3840",
      "category": "agents"
    },
    {
      "type": "name_match",
      "text": "trinitrobenzenesulfonic acid",
      "confidence": 1.0,
      "uuid": "5559f680-0c6c-4c4d-8d7d-0a472388de5a",
      "name": "Trinitrobenzenesulfonic acid",
      "url": "https://haz-map.com/Agents/19460",
      "category": "agents"
    }
  ],
  "all_links": [
    {
      "text": "Search PubMed",
      "url": "https://www.ncbi.nlm.nih.gov/pubmed?term=Trinitrobenzenesulfonic+acid%20AND%20human%5Bmh%5D%20AND%20%28Occupational%20Diseases%20%5Bmh%5D%20OR%20Occupational%20Exposure%20%5Bmh%5D%29%20%20AND%20%28tox%5Bsb%5D%29&cmd=search"
    },
    {
      "text": "Contact dermatitis, allergic",
      "url": "https://haz-map.com/Diseases/18"
    }
  ]
}