{
  "metadata": {
    "scraped_from": "https://haz-map.com/Agents/1486",
    "entity_name": "Trimethyl borate",
    "category": "agents",
    "uuid": "557c3bfc-c060-4f26-a10e-cef34c1586cb",
    "scraped_at": "2025-07-23T19:00:01.606754"
  },
  "parsed_at": "2025-07-24T00:54:21.537498",
  "title": "Trimethyl borate",
  "sections": {
    "general": {
      "agent_name": {
        "original_name": "Agent Name",
        "value": "Trimethyl borate",
        "links": [],
        "cross_references": [
          {
            "type": "name_match",
            "text": "trimethyl borate",
            "confidence": 1.0,
            "uuid": "557c3bfc-c060-4f26-a10e-cef34c1586cb",
            "name": "Trimethyl borate",
            "url": "https://haz-map.com/Agents/1486",
            "category": "agents"
          }
        ]
      },
      "cas_number": {
        "original_name": "CAS Number",
        "value": "121-43-7",
        "links": [],
        "cross_references": []
      },
      "formula": {
        "original_name": "Formula",
        "value": "C3-H9-B-O3",
        "links": [],
        "cross_references": []
      },
      "major_category": {
        "original_name": "Major Category",
        "value": "Metals",
        "links": [],
        "cross_references": []
      },
      "synonyms": {
        "original_name": "Synonyms",
        "value": "Borester O; Boric acid (H3BO3), trimethyl ester; Boric acid, trimethyl ester; Methyl borate; Trimethoxyborane; Trimethoxyborine; Trimethoxyboron; Trimethylester kyseliny borite [Czech]; UN2416; [ChemIDplus]",
        "links": [],
        "cross_references": [
          {
            "type": "name_match",
            "text": "boric acid",
            "confidence": 1.0,
            "uuid": "6ceb7ad0-b349-47a5-abd4-99fd72800e53",
            "name": "Boric acid",
            "url": "https://haz-map.com/Agents/1374",
            "category": "agents"
          },
          {
            "type": "name_match",
            "text": "boron",
            "confidence": 1.0,
            "uuid": "539de4b5-2187-4144-ac60-98c577b00bca",
            "name": "Boron",
            "url": "https://haz-map.com/Agents/2001",
            "category": "agents"
          },
          {
            "type": "name_match",
            "text": "borane",
            "confidence": 1.0,
            "uuid": "a5e38655-49dd-4cdf-bbc0-f37c42350b45",
            "name": "Borane",
            "url": "https://haz-map.com/Agents/8317",
            "category": "agents"
          }
        ]
      },
      "category": {
        "original_name": "Category",
        "value": "Metalloid Compounds (Boron)",
        "links": [],
        "cross_references": [
          {
            "type": "name_match",
            "text": "boron",
            "confidence": 1.0,
            "uuid": "539de4b5-2187-4144-ac60-98c577b00bca",
            "name": "Boron",
            "url": "https://haz-map.com/Agents/2001",
            "category": "agents"
          }
        ]
      },
      "description": {
        "original_name": "Description",
        "value": "Colorless liquid; [ICSC]",
        "links": [],
        "cross_references": []
      },
      "sourcesuses": {
        "original_name": "Sources/Uses",
        "value": "Used as a flame retardant, welding and brazing flux, chemical intermediate, fungicide, and a solvent for waxes, resins, and oils; [HSDB]",
        "links": [],
        "cross_references": [
          {
            "type": "name_match",
            "text": "welding",
            "confidence": 1.0,
            "uuid": "e3d0f0df-0977-480c-9c78-ba89501210a7",
            "name": "Welding",
            "url": "https://haz-map.com/Processes/41",
            "category": "processes"
          },
          {
            "type": "name_match",
            "text": "brazing",
            "confidence": 1.0,
            "uuid": "01061228-8757-45ef-83f2-27308c32d380",
            "name": "Brazing",
            "url": "https://haz-map.com/Processes/50",
            "category": "processes"
          },
          {
            "type": "name_match",
            "text": "mica",
            "confidence": 1.0,
            "uuid": "433f26f1-c399-4596-b179-ce3843cfd465",
            "name": "Mica",
            "url": "https://haz-map.com/Agents/621",
            "category": "agents"
          },
          {
            "type": "name_match",
            "text": "fungi",
            "confidence": 1.0,
            "uuid": "e0d489cb-bfee-4aee-b665-999c017268a2",
            "name": "Fungi",
            "url": "https://haz-map.com/Agents/1988",
            "category": "agents"
          }
        ]
      },
      "comments": {
        "original_name": "Comments",
        "value": "A skin and eye irritant; Inhalation may cause cough and sore throat; [ICSC] Chronic poisoning in grazing animals where soil is high in boric acid results in vomiting, diarrhea, shock, convulsions, and paralysis; Post-mortem findings include inflammation of the GI tract, liver and kidney damage, and cerebral edema; [HSDB]",
        "links": [],
        "cross_references": [
          {
            "type": "name_match",
            "text": "cough",
            "confidence": 1.0,
            "uuid": "c18f3d8e-9c2e-4cef-ace6-8008147b34b1",
            "name": "cough",
            "url": "https://haz-map.com/Findings/4",
            "category": "findings"
          },
          {
            "type": "name_match",
            "text": "convulsion",
            "confidence": 1.0,
            "uuid": "af2c36f8-707a-48e3-a62b-1aa07adc9b72",
            "name": "convulsion",
            "url": "https://haz-map.com/Findings/14",
            "category": "findings"
          },
          {
            "type": "name_match",
            "text": "diarrhea",
            "confidence": 1.0,
            "uuid": "001ae7b5-5f3c-42c2-bc33-81e7581abd53",
            "name": "diarrhea",
            "url": "https://haz-map.com/Findings/15",
            "category": "findings"
          },
          {
            "type": "name_match",
            "text": "shock",
            "confidence": 1.0,
            "uuid": "184088a3-33cc-4d64-b02e-bfb90ba4cbe5",
            "name": "shock",
            "url": "https://haz-map.com/Findings/76",
            "category": "findings"
          },
          {
            "type": "name_match",
            "text": "boric acid",
            "confidence": 1.0,
            "uuid": "6ceb7ad0-b349-47a5-abd4-99fd72800e53",
            "name": "Boric acid",
            "url": "https://haz-map.com/Agents/1374",
            "category": "agents"
          }
        ]
      },
      "biomedical_references": {
        "original_name": "Biomedical References",
        "value": "Search PubMed",
        "links": [
          {
            "text": "Search PubMed",
            "url": "https://www.ncbi.nlm.nih.gov/pubmed?term=Trimethyl+borate%20AND%20human%5Bmh%5D%20AND%20%28Occupational%20Diseases%20%5Bmh%5D%20OR%20Occupational%20Exposure%20%5Bmh%5D%29%20%20AND%20%28tox%5Bsb%5D%29&cmd=search"
          }
        ],
        "cross_references": []
      }
    },
    "exposure_assessment": {
      "vapor_pressure": {
        "original_name": "Vapor Pressure",
        "value": "137 mm Hg",
        "links": [],
        "cross_references": []
      },
      "explanatory_notes": {
        "original_name": "Explanatory Notes",
        "value": "VP from HSDB;",
        "links": [],
        "cross_references": []
      },
      "nfpa": {
        "original_name": "NFPA",
        "value": "may ignite at ambient temp",
        "links": [],
        "cross_references": []
      }
    },
    "adverse_effects": {
      "neurotoxin": {
        "original_name": "Neurotoxin",
        "value": "Other CNS neurotoxin",
        "links": [],
        "cross_references": []
      },
      "hepatotoxin": {
        "original_name": "Hepatotoxin",
        "value": "Hepatoxic (a) from occupational exposure (secondary effect) or (b) in animal studies or in humans after ingestion",
        "links": [],
        "cross_references": []
      }
    },
    "diseases_processes_and_activities_linked_to_this_agent": {
      "processes": {
        "original_name": "Processes",
        "value": "Industrial Processes with risk of exposure: Brazing Farming (Pesticides) Welding",
        "links": [
          {
            "text": "Brazing",
            "url": "https://haz-map.com/Processes/50"
          },
          {
            "text": "Farming (Pesticides)",
            "url": "https://haz-map.com/Processes/218"
          },
          {
            "text": "Welding",
            "url": "https://haz-map.com/Processes/41"
          }
        ],
        "cross_references": [
          {
            "type": "url_match",
            "text": "Brazing",
            "url": "https://haz-map.com/Processes/50",
            "confidence": 1.0,
            "uuid": "01061228-8757-45ef-83f2-27308c32d380",
            "name": "Brazing",
            "category": "processes"
          },
          {
            "type": "url_match",
            "text": "Farming (Pesticides)",
            "url": "https://haz-map.com/Processes/218",
            "confidence": 1.0,
            "uuid": "cf1e5815-c9bb-4917-82a5-391848170b7e",
            "name": "Farming (Pesticides)",
            "category": "processes"
          },
          {
            "type": "url_match",
            "text": "Welding",
            "url": "https://haz-map.com/Processes/41",
            "confidence": 1.0,
            "uuid": "e3d0f0df-0977-480c-9c78-ba89501210a7",
            "name": "Welding",
            "category": "processes"
          }
        ]
      }
    }
  },
  "cross_references": [
    {
      "type": "url_match",
      "text": "Brazing",
      "url": "https://haz-map.com/Processes/50",
      "confidence": 1.0,
      "uuid": "01061228-8757-45ef-83f2-27308c32d380",
      "name": "Brazing",
      "category": "processes"
    },
    {
      "type": "url_match",
      "text": "Farming (Pesticides)",
      "url": "https://haz-map.com/Processes/218",
      "confidence": 1.0,
      "uuid": "cf1e5815-c9bb-4917-82a5-391848170b7e",
      "name": "Farming (Pesticides)",
      "category": "processes"
    },
    {
      "type": "url_match",
      "text": "Welding",
      "url": "https://haz-map.com/Processes/41",
      "confidence": 1.0,
      "uuid": "e3d0f0df-0977-480c-9c78-ba89501210a7",
      "name": "Welding",
      "category": "processes"
    },
    {
      "type": "name_match",
      "text": "cough",
      "confidence": 1.0,
      "uuid": "c18f3d8e-9c2e-4cef-ace6-8008147b34b1",
      "name": "cough",
      "url": "https://haz-map.com/Findings/4",
      "category": "findings"
    },
    {
      "type": "name_match",
      "text": "convulsion",
      "confidence": 1.0,
      "uuid": "af2c36f8-707a-48e3-a62b-1aa07adc9b72",
      "name": "convulsion",
      "url": "https://haz-map.com/Findings/14",
      "category": "findings"
    },
    {
      "type": "name_match",
      "text": "diarrhea",
      "confidence": 1.0,
      "uuid": "001ae7b5-5f3c-42c2-bc33-81e7581abd53",
      "name": "diarrhea",
      "url": "https://haz-map.com/Findings/15",
      "category": "findings"
    },
    {
      "type": "name_match",
      "text": "shock",
      "confidence": 1.0,
      "uuid": "184088a3-33cc-4d64-b02e-bfb90ba4cbe5",
      "name": "shock",
      "url": "https://haz-map.com/Findings/76",
      "category": "findings"
    },
    {
      "type": "name_match",
      "text": "mica",
      "confidence": 1.0,
      "uuid": "433f26f1-c399-4596-b179-ce3843cfd465",
      "name": "Mica",
      "url": "https://haz-map.com/Agents/621",
      "category": "agents"
    },
    {
      "type": "name_match",
      "text": "boric acid",
      "confidence": 1.0,
      "uuid": "6ceb7ad0-b349-47a5-abd4-99fd72800e53",
      "name": "Boric acid",
      "url": "https://haz-map.com/Agents/1374",
      "category": "agents"
    },
    {
      "type": "name_match",
      "text": "trimethyl borate",
      "confidence": 1.0,
      "uuid": "557c3bfc-c060-4f26-a10e-cef34c1586cb",
      "name": "Trimethyl borate",
      "url": "https://haz-map.com/Agents/1486",
      "category": "agents"
    },
    {
      "type": "name_match",
      "text": "fungi",
      "confidence": 1.0,
      "uuid": "e0d489cb-bfee-4aee-b665-999c017268a2",
      "name": "Fungi",
      "url": "https://haz-map.com/Agents/1988",
      "category": "agents"
    },
    {
      "type": "name_match",
      "text": "boron",
      "confidence": 1.0,
      "uuid": "539de4b5-2187-4144-ac60-98c577b00bca",
      "name": "Boron",
      "url": "https://haz-map.com/Agents/2001",
      "category": "agents"
    },
    {
      "type": "name_match",
      "text": "borane",
      "confidence": 1.0,
      "uuid": "a5e38655-49dd-4cdf-bbc0-f37c42350b45",
      "name": "Borane",
      "url": "https://haz-map.com/Agents/8317",
      "category": "agents"
    }
  ],
  "all_links": [
    {
      "text": "Search PubMed",
      "url": "https://www.ncbi.nlm.nih.gov/pubmed?term=Trimethyl+borate%20AND%20human%5Bmh%5D%20AND%20%28Occupational%20Diseases%20%5Bmh%5D%20OR%20Occupational%20Exposure%20%5Bmh%5D%29%20%20AND%20%28tox%5Bsb%5D%29&cmd=search"
    },
    {
      "text": "Brazing",
      "url": "https://haz-map.com/Processes/50"
    },
    {
      "text": "Farming (Pesticides)",
      "url": "https://haz-map.com/Processes/218"
    },
    {
      "text": "Welding",
      "url": "https://haz-map.com/Processes/41"
    }
  ]
}