{
  "metadata": {
    "scraped_from": "https://haz-map.com/Agents/21284",
    "entity_name": "N-Nitroso-2-methylpiperidine",
    "category": "agents",
    "uuid": "557f6ea5-a7c2-4ccf-a706-90b3720285e8",
    "scraped_at": "2025-07-23T22:40:57.617143"
  },
  "parsed_at": "2025-07-24T00:57:20.427582",
  "title": "N-Nitroso-2-methylpiperidine",
  "sections": {
    "general": {
      "agent_name": {
        "original_name": "Agent Name",
        "value": "N-Nitroso-2-methylpiperidine",
        "links": [],
        "cross_references": [
          {
            "type": "name_match",
            "text": "piperidine",
            "confidence": 1.0,
            "uuid": "622e458e-e32f-4d3a-80d2-7455291a8a04",
            "name": "Piperidine",
            "url": "https://haz-map.com/Agents/1427",
            "category": "agents"
          },
          {
            "type": "name_match",
            "text": "n-nitroso-2-methylpiperidine",
            "confidence": 1.0,
            "uuid": "557f6ea5-a7c2-4ccf-a706-90b3720285e8",
            "name": "N-Nitroso-2-methylpiperidine",
            "url": "https://haz-map.com/Agents/21284",
            "category": "agents"
          }
        ]
      },
      "cas_number": {
        "original_name": "CAS Number",
        "value": "7247-89-4",
        "links": [],
        "cross_references": []
      },
      "formula": {
        "original_name": "Formula",
        "value": "C6-H12-N2-O",
        "links": [],
        "cross_references": []
      },
      "major_category": {
        "original_name": "Major Category",
        "value": "Nitrogen Compounds",
        "links": [],
        "cross_references": [
          {
            "type": "name_match",
            "text": "nitrogen",
            "confidence": 1.0,
            "uuid": "db5e90a9-06d2-45b9-8b81-f345a89b0bc0",
            "name": "Nitrogen",
            "url": "https://haz-map.com/Agents/1072",
            "category": "agents"
          }
        ]
      },
      "synonyms": {
        "original_name": "Synonyms",
        "value": "1-Nitroso-2-pipecoline; 2-Methylnitrosopiperidine; Piperidine, 2-methyl-N-nitroso-; 2-Pipecoline, 1-nitroso-; Piperidine, 2-methyl-1-nitroso- (9CI); [ChemIDplus]",
        "links": [],
        "cross_references": [
          {
            "type": "name_match",
            "text": "piperidine",
            "confidence": 1.0,
            "uuid": "622e458e-e32f-4d3a-80d2-7455291a8a04",
            "name": "Piperidine",
            "url": "https://haz-map.com/Agents/1427",
            "category": "agents"
          }
        ]
      },
      "category": {
        "original_name": "Category",
        "value": "Nitrosamines",
        "links": [],
        "cross_references": [
          {
            "type": "name_match",
            "text": "nitrosamines",
            "confidence": 1.0,
            "uuid": "71647706-f82f-4f7a-a1ad-2500c04c2ac0",
            "name": "NITROSAMINES",
            "url": "https://haz-map.com/Agents/767",
            "category": "agents"
          }
        ]
      },
      "comments": {
        "original_name": "Comments",
        "value": "See \"NITROSAMINES.\"",
        "links": [],
        "cross_references": [
          {
            "type": "name_match",
            "text": "nitrosamines",
            "confidence": 1.0,
            "uuid": "71647706-f82f-4f7a-a1ad-2500c04c2ac0",
            "name": "NITROSAMINES",
            "url": "https://haz-map.com/Agents/767",
            "category": "agents"
          }
        ]
      },
      "biomedical_references": {
        "original_name": "Biomedical References",
        "value": "Search PubMed",
        "links": [
          {
            "text": "Search PubMed",
            "url": "https://www.ncbi.nlm.nih.gov/pubmed?term=N-Nitroso-2-methylpiperidine%20AND%20human%5Bmh%5D%20AND%20%28Occupational%20Diseases%20%5Bmh%5D%20OR%20Occupational%20Exposure%20%5Bmh%5D%29%20%20AND%20%28tox%5Bsb%5D%29&cmd=search"
          }
        ],
        "cross_references": []
      }
    },
    "exposure_assessment": {
      "vapor_pressure": {
        "original_name": "Vapor Pressure",
        "value": "0.064 mm Hg",
        "links": [],
        "cross_references": []
      }
    },
    "diseases_processes_and_activities_linked_to_this_agent": {
      "other_information": {
        "original_name": "Other Information",
        "value": "No other related information on this agent was found.",
        "links": [],
        "cross_references": []
      }
    }
  },
  "cross_references": [
    {
      "type": "name_match",
      "text": "nitrosamines",
      "confidence": 1.0,
      "uuid": "71647706-f82f-4f7a-a1ad-2500c04c2ac0",
      "name": "NITROSAMINES",
      "url": "https://haz-map.com/Agents/767",
      "category": "agents"
    },
    {
      "type": "name_match",
      "text": "nitrogen",
      "confidence": 1.0,
      "uuid": "db5e90a9-06d2-45b9-8b81-f345a89b0bc0",
      "name": "Nitrogen",
      "url": "https://haz-map.com/Agents/1072",
      "category": "agents"
    },
    {
      "type": "name_match",
      "text": "piperidine",
      "confidence": 1.0,
      "uuid": "622e458e-e32f-4d3a-80d2-7455291a8a04",
      "name": "Piperidine",
      "url": "https://haz-map.com/Agents/1427",
      "category": "agents"
    },
    {
      "type": "name_match",
      "text": "n-nitroso-2-methylpiperidine",
      "confidence": 1.0,
      "uuid": "557f6ea5-a7c2-4ccf-a706-90b3720285e8",
      "name": "N-Nitroso-2-methylpiperidine",
      "url": "https://haz-map.com/Agents/21284",
      "category": "agents"
    }
  ],
  "all_links": [
    {
      "text": "Search PubMed",
      "url": "https://www.ncbi.nlm.nih.gov/pubmed?term=N-Nitroso-2-methylpiperidine%20AND%20human%5Bmh%5D%20AND%20%28Occupational%20Diseases%20%5Bmh%5D%20OR%20Occupational%20Exposure%20%5Bmh%5D%29%20%20AND%20%28tox%5Bsb%5D%29&cmd=search"
    }
  ]
}