{
  "metadata": {
    "scraped_from": "https://haz-map.com/Agents/17879",
    "entity_name": "TEMPO",
    "category": "agents",
    "uuid": "55930a45-7786-4f0a-a7e8-bd4064508b68",
    "scraped_at": "2025-07-23T21:50:19.803469"
  },
  "parsed_at": "2025-07-24T01:12:45.919327",
  "title": "TEMPO",
  "sections": {
    "general": {
      "agent_name": {
        "original_name": "Agent Name",
        "value": "TEMPO",
        "links": [],
        "cross_references": [
          {
            "type": "name_match",
            "text": "tempo",
            "confidence": 1.0,
            "uuid": "55930a45-7786-4f0a-a7e8-bd4064508b68",
            "name": "TEMPO",
            "url": "https://haz-map.com/Agents/17879",
            "category": "agents"
          }
        ]
      },
      "cas_number": {
        "original_name": "CAS Number",
        "value": "2564-83-2",
        "links": [],
        "cross_references": []
      },
      "formula": {
        "original_name": "Formula",
        "value": "C9-H18-N-O",
        "links": [],
        "cross_references": []
      },
      "major_category": {
        "original_name": "Major Category",
        "value": "Nitrogen Compounds",
        "links": [],
        "cross_references": [
          {
            "type": "name_match",
            "text": "nitrogen",
            "confidence": 1.0,
            "uuid": "db5e90a9-06d2-45b9-8b81-f345a89b0bc0",
            "name": "Nitrogen",
            "url": "https://haz-map.com/Agents/1072",
            "category": "agents"
          }
        ]
      },
      "synonyms": {
        "original_name": "Synonyms",
        "value": "2,2,6,6-Tetramethyl-1-piperidinyloxy; 2,2,6,6-Tetramethylpiperidine-1-oxyl; 2,2,6,6-Tetramethylpiperidinooxy; 2,2,6,6-Tetramethylpiperidinooxyl; 2,2,6,6-Tetramethylpiperidinyloxy; 2,2,6,6-Tetramethylpiperidoxyl; Tanan; Tanane; Tempo; Tetramethylpiperidine nitroxide; Tetramethylpiperidinooxy; 1-Piperidinyloxy, 2,2,6,6-tetramethyl-; Piperidinooxy, 2,2,6,6-tetramethyl-; [ChemIDplus] 2,2,6,6-Tetramethylpentamethylene nitroxide; [Merck Index] TEMPO, free radical; [Alfa Aesar MSDS] UN3263",
        "links": [],
        "cross_references": [
          {
            "type": "name_match",
            "text": "ethylene",
            "confidence": 1.0,
            "uuid": "958eacc0-5135-4b62-bb93-6df972bf552f",
            "name": "Ethylene",
            "url": "https://haz-map.com/Agents/1076",
            "category": "agents"
          },
          {
            "type": "name_match",
            "text": "piperidine",
            "confidence": 1.0,
            "uuid": "622e458e-e32f-4d3a-80d2-7455291a8a04",
            "name": "Piperidine",
            "url": "https://haz-map.com/Agents/1427",
            "category": "agents"
          },
          {
            "type": "name_match",
            "text": "tempo",
            "confidence": 1.0,
            "uuid": "55930a45-7786-4f0a-a7e8-bd4064508b68",
            "name": "TEMPO",
            "url": "https://haz-map.com/Agents/17879",
            "category": "agents"
          },
          {
            "type": "name_match",
            "text": "2,2,6,6-tetramethylpiperidine",
            "confidence": 1.0,
            "uuid": "81ae5d78-ff38-490f-a37f-5f043ab8b0c7",
            "name": "2,2,6,6-Tetramethylpiperidine",
            "url": "https://haz-map.com/Agents/19431",
            "category": "agents"
          }
        ]
      },
      "category": {
        "original_name": "Category",
        "value": "Amine Oxides",
        "links": [],
        "cross_references": []
      },
      "description": {
        "original_name": "Description",
        "value": "Dark red solid; [Merck Index] Red crystalline solid; mp = 32-37 deg C; [Alfa Aesar MSDS]",
        "links": [],
        "cross_references": [
          {
            "type": "fuzzy_match",
            "text": "crystalline",
            "matched_name": "Silica, crystalline",
            "confidence": 0.7061403508771931,
            "uuid": "f920e8a2-46df-41b7-af8d-0368a777251e",
            "category": "agents",
            "url": "https://haz-map.com/Agents/427"
          }
        ]
      },
      "sourcesuses": {
        "original_name": "Sources/Uses",
        "value": "Used in organic chemistry (radical trap, catalyst, and polymerization mediator); [Merck Index] Used as a spin label in MRI; [REPROTOX]",
        "links": [],
        "cross_references": []
      },
      "comments": {
        "original_name": "Comments",
        "value": "A severe skin and eye irritant; Causes somnolence in dermal lethal-dose studies of rabbits; [RTECS] Causes burns; [Alfa Aesar MSDS]",
        "links": [],
        "cross_references": [
          {
            "type": "name_match",
            "text": "burn",
            "confidence": 1.0,
            "uuid": "63665de5-6376-4918-8dbf-4c10c4d63837",
            "name": "burn",
            "url": "https://haz-map.com/Findings/204",
            "category": "findings"
          }
        ]
      },
      "biomedical_references": {
        "original_name": "Biomedical References",
        "value": "Search PubMed",
        "links": [
          {
            "text": "Search PubMed",
            "url": "https://www.ncbi.nlm.nih.gov/pubmed?term=TEMPO%20AND%20human%5Bmh%5D%20AND%20%28Occupational%20Diseases%20%5Bmh%5D%20OR%20Occupational%20Exposure%20%5Bmh%5D%29%20%20AND%20%28tox%5Bsb%5D%29&cmd=search"
          }
        ],
        "cross_references": []
      }
    },
    "exposure_assessment": {
      "vapor_pressure": {
        "original_name": "Vapor Pressure",
        "value": "6E-06 mm Hg",
        "links": [],
        "cross_references": []
      },
      "lethal_concentration": {
        "original_name": "Lethal Concentration",
        "value": "LCLo (rat) = 4,500 mg/m3/2hr",
        "links": [],
        "cross_references": []
      },
      "explanatory_notes": {
        "original_name": "Explanatory Notes",
        "value": "The Guide in the Emergency Response Guidebook is for \"Corrosive solid, basic, organic, n.o.s.\"",
        "links": [],
        "cross_references": []
      }
    },
    "adverse_effects": {
      "dermatotoxin": {
        "original_name": "Dermatotoxin",
        "value": "Skin burns",
        "links": [],
        "cross_references": [
          {
            "type": "name_match",
            "text": "burn",
            "confidence": 1.0,
            "uuid": "63665de5-6376-4918-8dbf-4c10c4d63837",
            "name": "burn",
            "url": "https://haz-map.com/Findings/204",
            "category": "findings"
          }
        ]
      }
    },
    "diseases_processes_and_activities_linked_to_this_agent": {
      "other_information": {
        "original_name": "Other Information",
        "value": "No other related information on this agent was found.",
        "links": [],
        "cross_references": []
      }
    }
  },
  "cross_references": [
    {
      "type": "name_match",
      "text": "burn",
      "confidence": 1.0,
      "uuid": "63665de5-6376-4918-8dbf-4c10c4d63837",
      "name": "burn",
      "url": "https://haz-map.com/Findings/204",
      "category": "findings"
    },
    {
      "type": "name_match",
      "text": "nitrogen",
      "confidence": 1.0,
      "uuid": "db5e90a9-06d2-45b9-8b81-f345a89b0bc0",
      "name": "Nitrogen",
      "url": "https://haz-map.com/Agents/1072",
      "category": "agents"
    },
    {
      "type": "name_match",
      "text": "ethylene",
      "confidence": 1.0,
      "uuid": "958eacc0-5135-4b62-bb93-6df972bf552f",
      "name": "Ethylene",
      "url": "https://haz-map.com/Agents/1076",
      "category": "agents"
    },
    {
      "type": "name_match",
      "text": "piperidine",
      "confidence": 1.0,
      "uuid": "622e458e-e32f-4d3a-80d2-7455291a8a04",
      "name": "Piperidine",
      "url": "https://haz-map.com/Agents/1427",
      "category": "agents"
    },
    {
      "type": "name_match",
      "text": "tempo",
      "confidence": 1.0,
      "uuid": "55930a45-7786-4f0a-a7e8-bd4064508b68",
      "name": "TEMPO",
      "url": "https://haz-map.com/Agents/17879",
      "category": "agents"
    },
    {
      "type": "name_match",
      "text": "2,2,6,6-tetramethylpiperidine",
      "confidence": 1.0,
      "uuid": "81ae5d78-ff38-490f-a37f-5f043ab8b0c7",
      "name": "2,2,6,6-Tetramethylpiperidine",
      "url": "https://haz-map.com/Agents/19431",
      "category": "agents"
    },
    {
      "type": "fuzzy_match",
      "text": "crystalline",
      "matched_name": "Silica, crystalline",
      "confidence": 0.7061403508771931,
      "uuid": "f920e8a2-46df-41b7-af8d-0368a777251e",
      "category": "agents",
      "url": "https://haz-map.com/Agents/427"
    }
  ],
  "all_links": [
    {
      "text": "Search PubMed",
      "url": "https://www.ncbi.nlm.nih.gov/pubmed?term=TEMPO%20AND%20human%5Bmh%5D%20AND%20%28Occupational%20Diseases%20%5Bmh%5D%20OR%20Occupational%20Exposure%20%5Bmh%5D%29%20%20AND%20%28tox%5Bsb%5D%29&cmd=search"
    }
  ]
}