{
  "metadata": {
    "scraped_from": "https://haz-map.com/Agents/7664",
    "entity_name": "Trixylyl phosphate",
    "category": "agents",
    "uuid": "55adb943-9816-46b0-a180-b24fad786247",
    "scraped_at": "2025-07-23T20:15:37.315391"
  },
  "parsed_at": "2025-07-24T01:10:07.539051",
  "title": "Trixylyl phosphate",
  "sections": {
    "general": {
      "agent_name": {
        "original_name": "Agent Name",
        "value": "Trixylyl phosphate",
        "links": [],
        "cross_references": [
          {
            "type": "name_match",
            "text": "trixylyl phosphate",
            "confidence": 1.0,
            "uuid": "55adb943-9816-46b0-a180-b24fad786247",
            "name": "Trixylyl phosphate",
            "url": "https://haz-map.com/Agents/7664",
            "category": "agents"
          }
        ]
      },
      "cas_number": {
        "original_name": "CAS Number",
        "value": "25155-23-1",
        "links": [],
        "cross_references": []
      },
      "formula": {
        "original_name": "Formula",
        "value": "C24-H27-O4-P",
        "links": [],
        "cross_references": []
      },
      "major_category": {
        "original_name": "Major Category",
        "value": "Other Classes",
        "links": [],
        "cross_references": []
      },
      "synonyms": {
        "original_name": "Synonyms",
        "value": "Tri-xylenyl phosphate; Coalite NTP; Dimethylphenol phosphate (3:1); Ivviol-3; Phenol, dimethyl-, phosphate (3:1); Phosflex 179; Phosphoric acid, trixylyl ester; Tri-dimethyl phenyl phosphate; Tris(dimethylphenol) phosphate; Trixylenyl phosphate; Xylenol, phosphate (3:1); Xylyl phosphate; Phenol, dimethyl-, 1,1',1''-phosphate; [ChemIDplus]",
        "links": [],
        "cross_references": [
          {
            "type": "name_match",
            "text": "phenol",
            "confidence": 1.0,
            "uuid": "03141a03-a7df-4f51-9a37-adde1a7c4b31",
            "name": "Phenol",
            "url": "https://haz-map.com/Agents/84",
            "category": "agents"
          },
          {
            "type": "name_match",
            "text": "phosphoric acid",
            "confidence": 1.0,
            "uuid": "9049e74c-22b3-4fb1-8e7f-53f17c0ec74a",
            "name": "Phosphoric acid",
            "url": "https://haz-map.com/Agents/595",
            "category": "agents"
          },
          {
            "type": "name_match",
            "text": "xylenol",
            "confidence": 1.0,
            "uuid": "b3841b62-71db-4e83-86de-5a0182f482a9",
            "name": "Xylenol",
            "url": "https://haz-map.com/Agents/1442",
            "category": "agents"
          }
        ]
      },
      "category": {
        "original_name": "Category",
        "value": "Organophosphates, Other",
        "links": [],
        "cross_references": [
          {
            "type": "name_match",
            "text": "organophosphates",
            "confidence": 1.0,
            "uuid": "8d2d239c-20f9-4f02-9916-5e7667b9990c",
            "name": "ORGANOPHOSPHATES",
            "url": "https://haz-map.com/Agents/702",
            "category": "agents"
          }
        ]
      },
      "description": {
        "original_name": "Description",
        "value": "Liquid; [HSDB]",
        "links": [],
        "cross_references": []
      },
      "sourcesuses": {
        "original_name": "Sources/Uses",
        "value": "Used in flame retardants, plasticizes, and hydraulic fluids; [HSDB]",
        "links": [],
        "cross_references": []
      },
      "comments": {
        "original_name": "Comments",
        "value": "May cause skin, eye, mucous membrane, and respiratory tract irritation; [CAMEO] A mild skin and eye irritant, based on animal studies; [eChemPortal: HPVIS] May cause irritation; [MSDSonline]",
        "links": [],
        "cross_references": []
      },
      "biomedical_references": {
        "original_name": "Biomedical References",
        "value": "Search PubMed",
        "links": [
          {
            "text": "Search PubMed",
            "url": "https://www.ncbi.nlm.nih.gov/pubmed?term=Trixylyl+phosphate%20AND%20human%5Bmh%5D%20AND%20%28Occupational%20Diseases%20%5Bmh%5D%20OR%20Occupational%20Exposure%20%5Bmh%5D%29%20%20AND%20%28tox%5Bsb%5D%29&cmd=search"
          }
        ],
        "cross_references": []
      }
    },
    "exposure_assessment": {
      "vapor_pressure": {
        "original_name": "Vapor Pressure",
        "value": "5.15E-08 mm Hg",
        "links": [],
        "cross_references": []
      }
    },
    "diseases_processes_and_activities_linked_to_this_agent": {
      "other_information": {
        "original_name": "Other Information",
        "value": "No other related information on this agent was found.",
        "links": [],
        "cross_references": []
      }
    }
  },
  "cross_references": [
    {
      "type": "name_match",
      "text": "phenol",
      "confidence": 1.0,
      "uuid": "03141a03-a7df-4f51-9a37-adde1a7c4b31",
      "name": "Phenol",
      "url": "https://haz-map.com/Agents/84",
      "category": "agents"
    },
    {
      "type": "name_match",
      "text": "phosphoric acid",
      "confidence": 1.0,
      "uuid": "9049e74c-22b3-4fb1-8e7f-53f17c0ec74a",
      "name": "Phosphoric acid",
      "url": "https://haz-map.com/Agents/595",
      "category": "agents"
    },
    {
      "type": "name_match",
      "text": "organophosphates",
      "confidence": 1.0,
      "uuid": "8d2d239c-20f9-4f02-9916-5e7667b9990c",
      "name": "ORGANOPHOSPHATES",
      "url": "https://haz-map.com/Agents/702",
      "category": "agents"
    },
    {
      "type": "name_match",
      "text": "xylenol",
      "confidence": 1.0,
      "uuid": "b3841b62-71db-4e83-86de-5a0182f482a9",
      "name": "Xylenol",
      "url": "https://haz-map.com/Agents/1442",
      "category": "agents"
    },
    {
      "type": "name_match",
      "text": "trixylyl phosphate",
      "confidence": 1.0,
      "uuid": "55adb943-9816-46b0-a180-b24fad786247",
      "name": "Trixylyl phosphate",
      "url": "https://haz-map.com/Agents/7664",
      "category": "agents"
    }
  ],
  "all_links": [
    {
      "text": "Search PubMed",
      "url": "https://www.ncbi.nlm.nih.gov/pubmed?term=Trixylyl+phosphate%20AND%20human%5Bmh%5D%20AND%20%28Occupational%20Diseases%20%5Bmh%5D%20OR%20Occupational%20Exposure%20%5Bmh%5D%29%20%20AND%20%28tox%5Bsb%5D%29&cmd=search"
    }
  ]
}