{
  "metadata": {
    "scraped_from": "https://haz-map.com/Agents/3314",
    "entity_name": "4-Nitro-3-trifluoromethylphenol",
    "category": "agents",
    "uuid": "55c78e78-7c51-42c0-83a5-d43ec44c16ef",
    "scraped_at": "2025-07-23T19:27:29.837326"
  },
  "parsed_at": "2025-07-24T01:01:01.770416",
  "title": "4-Nitro-3-trifluoromethylphenol",
  "sections": {
    "general": {
      "agent_name": {
        "original_name": "Agent Name",
        "value": "4-Nitro-3-trifluoromethylphenol",
        "links": [],
        "cross_references": [
          {
            "type": "name_match",
            "text": "phenol",
            "confidence": 1.0,
            "uuid": "03141a03-a7df-4f51-9a37-adde1a7c4b31",
            "name": "Phenol",
            "url": "https://haz-map.com/Agents/84",
            "category": "agents"
          },
          {
            "type": "name_match",
            "text": "4-nitro-3-trifluoromethylphenol",
            "confidence": 1.0,
            "uuid": "55c78e78-7c51-42c0-83a5-d43ec44c16ef",
            "name": "4-Nitro-3-trifluoromethylphenol",
            "url": "https://haz-map.com/Agents/3314",
            "category": "agents"
          }
        ]
      },
      "alternative_name": {
        "original_name": "Alternative Name",
        "value": "TFM",
        "links": [],
        "cross_references": []
      },
      "cas_number": {
        "original_name": "CAS Number",
        "value": "88-30-2",
        "links": [],
        "cross_references": []
      },
      "formula": {
        "original_name": "Formula",
        "value": "C7-H4-F3-N-O3",
        "links": [],
        "cross_references": []
      },
      "major_category": {
        "original_name": "Major Category",
        "value": "Pesticides",
        "links": [],
        "cross_references": []
      },
      "synonyms": {
        "original_name": "Synonyms",
        "value": "TFM; 3-Trifluoromethyl-4-nitrophenol; Dowlap F; Lamprecid; Lamprecide; Phenol, 4-nitro-3-(trifluoromethyl)-; TFM; TMF; m-Cresol, 4-nitro-alpha,alpha,alpha-trifluoro-; [ChemIDplus]",
        "links": [],
        "cross_references": [
          {
            "type": "name_match",
            "text": "phenol",
            "confidence": 1.0,
            "uuid": "03141a03-a7df-4f51-9a37-adde1a7c4b31",
            "name": "Phenol",
            "url": "https://haz-map.com/Agents/84",
            "category": "agents"
          },
          {
            "type": "name_match",
            "text": "4-nitrophenol",
            "confidence": 1.0,
            "uuid": "a31aad6a-4b43-4bf1-a51b-253bca4056a3",
            "name": "4-Nitrophenol",
            "url": "https://haz-map.com/Agents/780",
            "category": "agents"
          },
          {
            "type": "name_match",
            "text": "m-cresol",
            "confidence": 1.0,
            "uuid": "33975f23-f0cb-49a7-a631-36f1ad4f95de",
            "name": "m-Cresol",
            "url": "https://haz-map.com/Agents/15395",
            "category": "agents"
          }
        ]
      },
      "category": {
        "original_name": "Category",
        "value": "Other Insecticides",
        "links": [],
        "cross_references": []
      },
      "description": {
        "original_name": "Description",
        "value": "Yellow to orange solid; [HSDB] Yellow to pale brown solid; [MSDSonline]",
        "links": [],
        "cross_references": []
      },
      "sourcesuses": {
        "original_name": "Sources/Uses",
        "value": "Used to kill the parasitic sea lamprey, Petromyzon marinus, which preys upon commercial fish species of the Great Lakes; Restricted Use Pesticide; Only for sale to and application by certified applicators of the U.S. Fish and Wildlife Service, Fisheries and Oceans Canada, and Provincial and State Fish and Game employees; [HSDB]",
        "links": [],
        "cross_references": []
      },
      "comments": {
        "original_name": "Comments",
        "value": "\"Sea Lamprey Larvicide\" is a corrosive substance that can cause injury to the skin and eyes; [HSDB] May cause skin irritation; [MSDSonline]",
        "links": [],
        "cross_references": []
      },
      "reference_link_1": {
        "original_name": "Reference Link #1",
        "value": "EPA Pesticide Chemical Search",
        "links": [
          {
            "text": "EPA Pesticide Chemical Search",
            "url": "https://iaspub.epa.gov/apex/pesticides/f?p=CHEMICALSEARCH:1:"
          }
        ],
        "cross_references": [
          {
            "type": "name_match",
            "text": "mica",
            "confidence": 1.0,
            "uuid": "433f26f1-c399-4596-b179-ce3843cfd465",
            "name": "Mica",
            "url": "https://haz-map.com/Agents/621",
            "category": "agents"
          }
        ]
      },
      "biomedical_references": {
        "original_name": "Biomedical References",
        "value": "Search PubMed",
        "links": [
          {
            "text": "Search PubMed",
            "url": "https://www.ncbi.nlm.nih.gov/pubmed?term=4-Nitro-3-trifluoromethylphenol%20AND%20human%5Bmh%5D%20AND%20%28Occupational%20Diseases%20%5Bmh%5D%20OR%20Occupational%20Exposure%20%5Bmh%5D%29%20%20AND%20%28tox%5Bsb%5D%29&cmd=search"
          }
        ],
        "cross_references": []
      }
    },
    "exposure_assessment": {
      "vapor_pressure": {
        "original_name": "Vapor Pressure",
        "value": "0.00133 mm Hg",
        "links": [],
        "cross_references": []
      }
    },
    "diseases_processes_and_activities_linked_to_this_agent": {
      "other_information": {
        "original_name": "Other Information",
        "value": "No other related information on this agent was found.",
        "links": [],
        "cross_references": []
      }
    }
  },
  "cross_references": [
    {
      "type": "name_match",
      "text": "phenol",
      "confidence": 1.0,
      "uuid": "03141a03-a7df-4f51-9a37-adde1a7c4b31",
      "name": "Phenol",
      "url": "https://haz-map.com/Agents/84",
      "category": "agents"
    },
    {
      "type": "name_match",
      "text": "mica",
      "confidence": 1.0,
      "uuid": "433f26f1-c399-4596-b179-ce3843cfd465",
      "name": "Mica",
      "url": "https://haz-map.com/Agents/621",
      "category": "agents"
    },
    {
      "type": "name_match",
      "text": "4-nitrophenol",
      "confidence": 1.0,
      "uuid": "a31aad6a-4b43-4bf1-a51b-253bca4056a3",
      "name": "4-Nitrophenol",
      "url": "https://haz-map.com/Agents/780",
      "category": "agents"
    },
    {
      "type": "name_match",
      "text": "4-nitro-3-trifluoromethylphenol",
      "confidence": 1.0,
      "uuid": "55c78e78-7c51-42c0-83a5-d43ec44c16ef",
      "name": "4-Nitro-3-trifluoromethylphenol",
      "url": "https://haz-map.com/Agents/3314",
      "category": "agents"
    },
    {
      "type": "name_match",
      "text": "m-cresol",
      "confidence": 1.0,
      "uuid": "33975f23-f0cb-49a7-a631-36f1ad4f95de",
      "name": "m-Cresol",
      "url": "https://haz-map.com/Agents/15395",
      "category": "agents"
    }
  ],
  "all_links": [
    {
      "text": "EPA Pesticide Chemical Search",
      "url": "https://iaspub.epa.gov/apex/pesticides/f?p=CHEMICALSEARCH:1:"
    },
    {
      "text": "Search PubMed",
      "url": "https://www.ncbi.nlm.nih.gov/pubmed?term=4-Nitro-3-trifluoromethylphenol%20AND%20human%5Bmh%5D%20AND%20%28Occupational%20Diseases%20%5Bmh%5D%20OR%20Occupational%20Exposure%20%5Bmh%5D%29%20%20AND%20%28tox%5Bsb%5D%29&cmd=search"
    }
  ]
}