{
  "metadata": {
    "scraped_from": "https://haz-map.com/Agents/5730",
    "entity_name": "Isopropylphenyl diphenyl phosphate",
    "category": "agents",
    "uuid": "55c98a59-772f-433f-a962-776f0b0de611",
    "scraped_at": "2025-07-23T19:55:37.574501"
  },
  "parsed_at": "2025-07-24T01:06:12.001712",
  "title": "Isopropylphenyl diphenyl phosphate",
  "sections": {
    "general": {
      "agent_name": {
        "original_name": "Agent Name",
        "value": "Isopropylphenyl diphenyl phosphate",
        "links": [],
        "cross_references": [
          {
            "type": "name_match",
            "text": "isopropylphenyl diphenyl phosphate",
            "confidence": 1.0,
            "uuid": "55c98a59-772f-433f-a962-776f0b0de611",
            "name": "Isopropylphenyl diphenyl phosphate",
            "url": "https://haz-map.com/Agents/5730",
            "category": "agents"
          }
        ]
      },
      "cas_number": {
        "original_name": "CAS Number",
        "value": "28108-99-8",
        "links": [],
        "cross_references": []
      },
      "formula": {
        "original_name": "Formula",
        "value": "C21-H21-O4-P",
        "links": [],
        "cross_references": []
      },
      "major_category": {
        "original_name": "Major Category",
        "value": "Other Classes",
        "links": [],
        "cross_references": []
      },
      "synonyms": {
        "original_name": "Synonyms",
        "value": "Kronitex 100; Phosflex 41P; Phosphoric acid, (1-methylethyl)phenyl diphenyl ester (9CI); [ChemIDplus]",
        "links": [],
        "cross_references": [
          {
            "type": "name_match",
            "text": "phosphoric acid",
            "confidence": 1.0,
            "uuid": "9049e74c-22b3-4fb1-8e7f-53f17c0ec74a",
            "name": "Phosphoric acid",
            "url": "https://haz-map.com/Agents/595",
            "category": "agents"
          }
        ]
      },
      "category": {
        "original_name": "Category",
        "value": "Organophosphates, Other",
        "links": [],
        "cross_references": [
          {
            "type": "name_match",
            "text": "organophosphates",
            "confidence": 1.0,
            "uuid": "8d2d239c-20f9-4f02-9916-5e7667b9990c",
            "name": "ORGANOPHOSPHATES",
            "url": "https://haz-map.com/Agents/702",
            "category": "agents"
          }
        ]
      },
      "description": {
        "original_name": "Description",
        "value": "Light yellow liquid; [CAMEO]",
        "links": [],
        "cross_references": [
          {
            "type": "name_match",
            "text": "ht",
            "confidence": 1.0,
            "uuid": "764df367-8d53-4a11-81a2-31ccfe122a8d",
            "name": "HT",
            "url": "https://haz-map.com/Agents/2168",
            "category": "agents"
          }
        ]
      },
      "sourcesuses": {
        "original_name": "Sources/Uses",
        "value": "Used as a flame-retardant plasticizer, hydraulic fluid, and lubricant additive; [HSDB]",
        "links": [],
        "cross_references": []
      },
      "comments": {
        "original_name": "Comments",
        "value": "\"This testing regimen showed that isopropyl triphenyl phosphate produced an effect on neurotoxic esterase at the biochemical level without producing clinical or neurohistologic abnormalities in treated hens.\" [HSDB] No information available on health hazard; [CAMEO] See \"Triorthocresyl phosphate.\" See \"Triphenyl phosphate.\"",
        "links": [],
        "cross_references": [
          {
            "type": "name_match",
            "text": "mica",
            "confidence": 1.0,
            "uuid": "433f26f1-c399-4596-b179-ce3843cfd465",
            "name": "Mica",
            "url": "https://haz-map.com/Agents/621",
            "category": "agents"
          },
          {
            "type": "name_match",
            "text": "triorthocresyl phosphate",
            "confidence": 1.0,
            "uuid": "23e4ea47-015f-4ee8-ab13-1631915e2a4e",
            "name": "Triorthocresyl phosphate",
            "url": "https://haz-map.com/Agents/669",
            "category": "agents"
          },
          {
            "type": "name_match",
            "text": "triphenyl phosphate",
            "confidence": 1.0,
            "uuid": "4b3b4687-f04c-479e-bf25-29d6001c3e01",
            "name": "Triphenyl phosphate",
            "url": "https://haz-map.com/Agents/671",
            "category": "agents"
          }
        ]
      },
      "biomedical_references": {
        "original_name": "Biomedical References",
        "value": "Search PubMed",
        "links": [
          {
            "text": "Search PubMed",
            "url": "https://www.ncbi.nlm.nih.gov/pubmed?term=Isopropylphenyl+diphenyl+phosphate%20AND%20human%5Bmh%5D%20AND%20%28Occupational%20Diseases%20%5Bmh%5D%20OR%20Occupational%20Exposure%20%5Bmh%5D%29%20%20AND%20%28tox%5Bsb%5D%29&cmd=search"
          }
        ],
        "cross_references": []
      }
    },
    "exposure_assessment": {
      "vapor_pressure": {
        "original_name": "Vapor Pressure",
        "value": "3.52E-07 mm Hg",
        "links": [],
        "cross_references": []
      }
    },
    "diseases_processes_and_activities_linked_to_this_agent": {
      "other_information": {
        "original_name": "Other Information",
        "value": "No other related information on this agent was found.",
        "links": [],
        "cross_references": []
      }
    }
  },
  "cross_references": [
    {
      "type": "name_match",
      "text": "phosphoric acid",
      "confidence": 1.0,
      "uuid": "9049e74c-22b3-4fb1-8e7f-53f17c0ec74a",
      "name": "Phosphoric acid",
      "url": "https://haz-map.com/Agents/595",
      "category": "agents"
    },
    {
      "type": "name_match",
      "text": "mica",
      "confidence": 1.0,
      "uuid": "433f26f1-c399-4596-b179-ce3843cfd465",
      "name": "Mica",
      "url": "https://haz-map.com/Agents/621",
      "category": "agents"
    },
    {
      "type": "name_match",
      "text": "triorthocresyl phosphate",
      "confidence": 1.0,
      "uuid": "23e4ea47-015f-4ee8-ab13-1631915e2a4e",
      "name": "Triorthocresyl phosphate",
      "url": "https://haz-map.com/Agents/669",
      "category": "agents"
    },
    {
      "type": "name_match",
      "text": "triphenyl phosphate",
      "confidence": 1.0,
      "uuid": "4b3b4687-f04c-479e-bf25-29d6001c3e01",
      "name": "Triphenyl phosphate",
      "url": "https://haz-map.com/Agents/671",
      "category": "agents"
    },
    {
      "type": "name_match",
      "text": "organophosphates",
      "confidence": 1.0,
      "uuid": "8d2d239c-20f9-4f02-9916-5e7667b9990c",
      "name": "ORGANOPHOSPHATES",
      "url": "https://haz-map.com/Agents/702",
      "category": "agents"
    },
    {
      "type": "name_match",
      "text": "ht",
      "confidence": 1.0,
      "uuid": "764df367-8d53-4a11-81a2-31ccfe122a8d",
      "name": "HT",
      "url": "https://haz-map.com/Agents/2168",
      "category": "agents"
    },
    {
      "type": "name_match",
      "text": "isopropylphenyl diphenyl phosphate",
      "confidence": 1.0,
      "uuid": "55c98a59-772f-433f-a962-776f0b0de611",
      "name": "Isopropylphenyl diphenyl phosphate",
      "url": "https://haz-map.com/Agents/5730",
      "category": "agents"
    }
  ],
  "all_links": [
    {
      "text": "Search PubMed",
      "url": "https://www.ncbi.nlm.nih.gov/pubmed?term=Isopropylphenyl+diphenyl+phosphate%20AND%20human%5Bmh%5D%20AND%20%28Occupational%20Diseases%20%5Bmh%5D%20OR%20Occupational%20Exposure%20%5Bmh%5D%29%20%20AND%20%28tox%5Bsb%5D%29&cmd=search"
    }
  ]
}