{
  "metadata": {
    "scraped_from": "https://haz-map.com/Agents/17929",
    "entity_name": "Tetramethyldisiloxane",
    "category": "agents",
    "uuid": "56b21121-d741-4711-a074-00d9e2c9e30b",
    "scraped_at": "2025-07-23T21:50:49.474194"
  },
  "parsed_at": "2025-07-24T01:12:45.372676",
  "title": "Tetramethyldisiloxane",
  "sections": {
    "general": {
      "agent_name": {
        "original_name": "Agent Name",
        "value": "Tetramethyldisiloxane",
        "links": [],
        "cross_references": [
          {
            "type": "name_match",
            "text": "tetramethyldisiloxane",
            "confidence": 1.0,
            "uuid": "56b21121-d741-4711-a074-00d9e2c9e30b",
            "name": "Tetramethyldisiloxane",
            "url": "https://haz-map.com/Agents/17929",
            "category": "agents"
          }
        ]
      },
      "cas_number": {
        "original_name": "CAS Number",
        "value": "30110-74-8",
        "links": [],
        "cross_references": []
      },
      "formula": {
        "original_name": "Formula",
        "value": "C4-H14-O-Si2",
        "links": [],
        "cross_references": []
      },
      "major_category": {
        "original_name": "Major Category",
        "value": "Metals",
        "links": [],
        "cross_references": []
      },
      "synonyms": {
        "original_name": "Synonyms",
        "value": "Disiloxane, tetramethyl-; [ChemIDplus] UN1993",
        "links": [],
        "cross_references": []
      },
      "category": {
        "original_name": "Category",
        "value": "Metalloid Compounds (Silicon)",
        "links": [],
        "cross_references": [
          {
            "type": "name_match",
            "text": "silicon",
            "confidence": 1.0,
            "uuid": "443f4405-7a1f-47db-bf43-809557f77483",
            "name": "Silicon",
            "url": "https://haz-map.com/Agents/623",
            "category": "agents"
          }
        ]
      },
      "description": {
        "original_name": "Description",
        "value": "Clear liquid; [Gelest MSDS]",
        "links": [],
        "cross_references": []
      },
      "comments": {
        "original_name": "Comments",
        "value": "A severe eye irritant; [Gelest MSDS] See \"Hexamethyldisiloxane.\"",
        "links": [],
        "cross_references": [
          {
            "type": "name_match",
            "text": "hexamethyldisiloxane",
            "confidence": 1.0,
            "uuid": "152d69f7-dd66-4d09-a6fb-55394a7f25d4",
            "name": "Hexamethyldisiloxane",
            "url": "https://haz-map.com/Agents/5523",
            "category": "agents"
          }
        ]
      },
      "biomedical_references": {
        "original_name": "Biomedical References",
        "value": "Search PubMed",
        "links": [
          {
            "text": "Search PubMed",
            "url": "https://www.ncbi.nlm.nih.gov/pubmed?term=Tetramethyldisiloxane%20AND%20human%5Bmh%5D%20AND%20%28Occupational%20Diseases%20%5Bmh%5D%20OR%20Occupational%20Exposure%20%5Bmh%5D%29%20%20AND%20%28tox%5Bsb%5D%29&cmd=search"
          }
        ],
        "cross_references": []
      }
    },
    "exposure_assessment": {
      "explanatory_notes": {
        "original_name": "Explanatory Notes",
        "value": "Vapor pressure = 194.8 mm Hg at 27 deg C; [Gelest MSDS] The Guide in the Emergency Response Guidebook is for \"Flammable liquid, n.o.s.\"",
        "links": [],
        "cross_references": []
      }
    },
    "diseases_processes_and_activities_linked_to_this_agent": {
      "other_information": {
        "original_name": "Other Information",
        "value": "No other related information on this agent was found.",
        "links": [],
        "cross_references": []
      }
    }
  },
  "cross_references": [
    {
      "type": "name_match",
      "text": "silicon",
      "confidence": 1.0,
      "uuid": "443f4405-7a1f-47db-bf43-809557f77483",
      "name": "Silicon",
      "url": "https://haz-map.com/Agents/623",
      "category": "agents"
    },
    {
      "type": "name_match",
      "text": "hexamethyldisiloxane",
      "confidence": 1.0,
      "uuid": "152d69f7-dd66-4d09-a6fb-55394a7f25d4",
      "name": "Hexamethyldisiloxane",
      "url": "https://haz-map.com/Agents/5523",
      "category": "agents"
    },
    {
      "type": "name_match",
      "text": "tetramethyldisiloxane",
      "confidence": 1.0,
      "uuid": "56b21121-d741-4711-a074-00d9e2c9e30b",
      "name": "Tetramethyldisiloxane",
      "url": "https://haz-map.com/Agents/17929",
      "category": "agents"
    }
  ],
  "all_links": [
    {
      "text": "Search PubMed",
      "url": "https://www.ncbi.nlm.nih.gov/pubmed?term=Tetramethyldisiloxane%20AND%20human%5Bmh%5D%20AND%20%28Occupational%20Diseases%20%5Bmh%5D%20OR%20Occupational%20Exposure%20%5Bmh%5D%29%20%20AND%20%28tox%5Bsb%5D%29&cmd=search"
    }
  ]
}