{
  "metadata": {
    "scraped_from": "https://haz-map.com/Agents/7309",
    "entity_name": "Tecnazene",
    "category": "agents",
    "uuid": "57d07bde-80a6-4e0f-9954-3894f7d19ae4",
    "scraped_at": "2025-07-23T20:11:25.191891"
  },
  "parsed_at": "2025-07-24T00:56:56.852541",
  "title": "Tecnazene",
  "sections": {
    "general": {
      "agent_name": {
        "original_name": "Agent Name",
        "value": "Tecnazene",
        "links": [],
        "cross_references": [
          {
            "type": "name_match",
            "text": "tecnazene",
            "confidence": 1.0,
            "uuid": "57d07bde-80a6-4e0f-9954-3894f7d19ae4",
            "name": "Tecnazene",
            "url": "https://haz-map.com/Agents/7309",
            "category": "agents"
          }
        ]
      },
      "cas_number": {
        "original_name": "CAS Number",
        "value": "117-18-0",
        "links": [],
        "cross_references": []
      },
      "formula": {
        "original_name": "Formula",
        "value": "C6-H-Cl4-N-O2",
        "links": [],
        "cross_references": []
      },
      "major_category": {
        "original_name": "Major Category",
        "value": "Pesticides",
        "links": [],
        "cross_references": []
      },
      "synonyms": {
        "original_name": "Synonyms",
        "value": "1,2,4,5-Tetrachloro-3-nitrobenzene; 2,3,5,6-TCNB; 2,3,5,6-Tetrachlor-1-nitrobenzol [German]; 2,3,5,6-Tetrachloro-1-nitrobenzene; 2,3,5,6-Tetrachloronitrobenzene; Altritan; Arena; Benzene, 1,2,4,5-tetrachloro-3-nitro-; Benzene, 3-nitro-1,2,4,5-tetrachloro-; Bygran; Chipman 3,142; Easytec; Folosan; Folosan (VAN); Folosan DB 905; Fumite; Fumite Techalin; Fusarex; Fusarex G; Fusarex T; Hickstor; Hystore; Hytec; Myfusan; Nebulin; New Hystore; Storite SS; TCNB; Tecnazen [German]; Teknazen [Czech]; Terraclor; Tetrachloronitrobenzene; Tetrachloronitrobenzene (VAN); Turbostore; [ChemIDplus]",
        "links": [],
        "cross_references": [
          {
            "type": "name_match",
            "text": "benzene",
            "confidence": 1.0,
            "uuid": "b05124de-5f34-4c14-8f04-ccb20c3780d9",
            "name": "Benzene",
            "url": "https://haz-map.com/Agents/5",
            "category": "agents"
          },
          {
            "type": "name_match",
            "text": "nitrobenzene",
            "confidence": 1.0,
            "uuid": "4488262c-4790-4774-a462-bf0cc71ff40c",
            "name": "Nitrobenzene",
            "url": "https://haz-map.com/Agents/569",
            "category": "agents"
          },
          {
            "type": "name_match",
            "text": "2,4,5-t",
            "confidence": 1.0,
            "uuid": "e264617e-1fc4-45f5-acbb-36f4d966512f",
            "name": "2,4,5-T",
            "url": "https://haz-map.com/Agents/687",
            "category": "agents"
          }
        ]
      },
      "category": {
        "original_name": "Category",
        "value": "Fungicides",
        "links": [],
        "cross_references": [
          {
            "type": "name_match",
            "text": "fungicides",
            "confidence": 1.0,
            "uuid": "f4a9c1e1-4d57-4480-be97-d3590d38ce39",
            "name": "FUNGICIDES",
            "url": "https://haz-map.com/Agents/763",
            "category": "agents"
          },
          {
            "type": "name_match",
            "text": "fungi",
            "confidence": 1.0,
            "uuid": "e0d489cb-bfee-4aee-b665-999c017268a2",
            "name": "Fungi",
            "url": "https://haz-map.com/Agents/1988",
            "category": "agents"
          }
        ]
      },
      "description": {
        "original_name": "Description",
        "value": "Colorless odorless solid; [HSDB] Pale yellow solid; [CAMEO] Cream to pale brown solid; [MSDSonline]",
        "links": [],
        "cross_references": []
      },
      "sourcesuses": {
        "original_name": "Sources/Uses",
        "value": "Used as fungicide and plant growth regulator; to prevent rotting and sprouting of stored potatoes; No longer registered with the EPA for use in the US, cancelled; Registered in the UK for post harvest use on potatoes for long term storage; [HSDB] Used as a fungicide in smoke generators for greenhouses; [INCHEM] Banned for use as pesticide for plant protection and pesticide including biocides in the EU; [eChemPortal: ESIS]",
        "links": [],
        "cross_references": [
          {
            "type": "name_match",
            "text": "fungi",
            "confidence": 1.0,
            "uuid": "e0d489cb-bfee-4aee-b665-999c017268a2",
            "name": "Fungi",
            "url": "https://haz-map.com/Agents/1988",
            "category": "agents"
          }
        ]
      },
      "comments": {
        "original_name": "Comments",
        "value": "May cause irritation; [CAMEO] May cause irritation; May cause skin sensitization; \"With the exception of one report of dermal sensitization in agricultural workers, tecnazene does not seem to present a problem occupationally.\" [INCHEM] May cause skin sensitization; [eChemPortal: ESIS] An irritant; May cause skin sensitization; [MSDSonline]",
        "links": [],
        "cross_references": [
          {
            "type": "name_match",
            "text": "tecnazene",
            "confidence": 1.0,
            "uuid": "57d07bde-80a6-4e0f-9954-3894f7d19ae4",
            "name": "Tecnazene",
            "url": "https://haz-map.com/Agents/7309",
            "category": "agents"
          }
        ]
      },
      "reference_link_1": {
        "original_name": "Reference Link #1",
        "value": "INCHEM: Tecnazene (HSG 12 - 1988)",
        "links": [
          {
            "text": "INCHEM: Tecnazene (HSG 12 - 1988)",
            "url": "http://www.inchem.org/documents/hsg/hsg/hsg012.htm"
          }
        ],
        "cross_references": [
          {
            "type": "name_match",
            "text": "tecnazene",
            "confidence": 1.0,
            "uuid": "57d07bde-80a6-4e0f-9954-3894f7d19ae4",
            "name": "Tecnazene",
            "url": "https://haz-map.com/Agents/7309",
            "category": "agents"
          }
        ]
      },
      "biomedical_references": {
        "original_name": "Biomedical References",
        "value": "Search PubMed",
        "links": [
          {
            "text": "Search PubMed",
            "url": "https://www.ncbi.nlm.nih.gov/pubmed?term=Tecnazene%20AND%20human%5Bmh%5D%20AND%20%28Occupational%20Diseases%20%5Bmh%5D%20OR%20Occupational%20Exposure%20%5Bmh%5D%29%20%20AND%20%28tox%5Bsb%5D%29&cmd=search"
          }
        ],
        "cross_references": []
      }
    },
    "exposure_assessment": {
      "vapor_pressure": {
        "original_name": "Vapor Pressure",
        "value": "0.0018 mm Hg",
        "links": [],
        "cross_references": []
      }
    },
    "adverse_effects": {
      "skin_sensitizer": {
        "original_name": "Skin Sensitizer",
        "value": "Yes",
        "links": [],
        "cross_references": []
      }
    },
    "diseases_processes_and_activities_linked_to_this_agent": {
      "diseases": {
        "original_name": "Diseases",
        "value": "Occupational diseases associated with exposure to this agent: Contact dermatitis, allergic",
        "links": [
          {
            "text": "Contact dermatitis, allergic",
            "url": "https://haz-map.com/Diseases/18"
          }
        ],
        "cross_references": [
          {
            "type": "url_match",
            "text": "Contact dermatitis, allergic",
            "url": "https://haz-map.com/Diseases/18",
            "confidence": 1.0,
            "uuid": "c9499de0-9aa1-41bf-8753-cd5b28a63e29",
            "name": "Contact dermatitis, allergic",
            "category": "diseases"
          },
          {
            "type": "name_match",
            "text": "dermatitis",
            "confidence": 1.0,
            "uuid": "fe9c05f2-b19f-4ceb-ac7a-ffb7d7a0cae0",
            "name": "dermatitis",
            "url": "https://haz-map.com/Findings/59",
            "category": "findings"
          }
        ]
      },
      "processes": {
        "original_name": "Processes",
        "value": "Industrial Processes with risk of exposure: Farming (Pesticides)",
        "links": [
          {
            "text": "Farming (Pesticides)",
            "url": "https://haz-map.com/Processes/218"
          }
        ],
        "cross_references": [
          {
            "type": "url_match",
            "text": "Farming (Pesticides)",
            "url": "https://haz-map.com/Processes/218",
            "confidence": 1.0,
            "uuid": "cf1e5815-c9bb-4917-82a5-391848170b7e",
            "name": "Farming (Pesticides)",
            "category": "processes"
          }
        ]
      }
    }
  },
  "cross_references": [
    {
      "type": "url_match",
      "text": "Contact dermatitis, allergic",
      "url": "https://haz-map.com/Diseases/18",
      "confidence": 1.0,
      "uuid": "c9499de0-9aa1-41bf-8753-cd5b28a63e29",
      "name": "Contact dermatitis, allergic",
      "category": "diseases"
    },
    {
      "type": "url_match",
      "text": "Farming (Pesticides)",
      "url": "https://haz-map.com/Processes/218",
      "confidence": 1.0,
      "uuid": "cf1e5815-c9bb-4917-82a5-391848170b7e",
      "name": "Farming (Pesticides)",
      "category": "processes"
    },
    {
      "type": "name_match",
      "text": "dermatitis",
      "confidence": 1.0,
      "uuid": "fe9c05f2-b19f-4ceb-ac7a-ffb7d7a0cae0",
      "name": "dermatitis",
      "url": "https://haz-map.com/Findings/59",
      "category": "findings"
    },
    {
      "type": "name_match",
      "text": "benzene",
      "confidence": 1.0,
      "uuid": "b05124de-5f34-4c14-8f04-ccb20c3780d9",
      "name": "Benzene",
      "url": "https://haz-map.com/Agents/5",
      "category": "agents"
    },
    {
      "type": "name_match",
      "text": "nitrobenzene",
      "confidence": 1.0,
      "uuid": "4488262c-4790-4774-a462-bf0cc71ff40c",
      "name": "Nitrobenzene",
      "url": "https://haz-map.com/Agents/569",
      "category": "agents"
    },
    {
      "type": "name_match",
      "text": "2,4,5-t",
      "confidence": 1.0,
      "uuid": "e264617e-1fc4-45f5-acbb-36f4d966512f",
      "name": "2,4,5-T",
      "url": "https://haz-map.com/Agents/687",
      "category": "agents"
    },
    {
      "type": "name_match",
      "text": "fungicides",
      "confidence": 1.0,
      "uuid": "f4a9c1e1-4d57-4480-be97-d3590d38ce39",
      "name": "FUNGICIDES",
      "url": "https://haz-map.com/Agents/763",
      "category": "agents"
    },
    {
      "type": "name_match",
      "text": "fungi",
      "confidence": 1.0,
      "uuid": "e0d489cb-bfee-4aee-b665-999c017268a2",
      "name": "Fungi",
      "url": "https://haz-map.com/Agents/1988",
      "category": "agents"
    },
    {
      "type": "name_match",
      "text": "tecnazene",
      "confidence": 1.0,
      "uuid": "57d07bde-80a6-4e0f-9954-3894f7d19ae4",
      "name": "Tecnazene",
      "url": "https://haz-map.com/Agents/7309",
      "category": "agents"
    }
  ],
  "all_links": [
    {
      "text": "INCHEM: Tecnazene (HSG 12 - 1988)",
      "url": "http://www.inchem.org/documents/hsg/hsg/hsg012.htm"
    },
    {
      "text": "Search PubMed",
      "url": "https://www.ncbi.nlm.nih.gov/pubmed?term=Tecnazene%20AND%20human%5Bmh%5D%20AND%20%28Occupational%20Diseases%20%5Bmh%5D%20OR%20Occupational%20Exposure%20%5Bmh%5D%29%20%20AND%20%28tox%5Bsb%5D%29&cmd=search"
    },
    {
      "text": "Contact dermatitis, allergic",
      "url": "https://haz-map.com/Diseases/18"
    },
    {
      "text": "Farming (Pesticides)",
      "url": "https://haz-map.com/Processes/218"
    }
  ]
}