{
  "metadata": {
    "scraped_from": "https://haz-map.com/Agents/14843",
    "entity_name": "Hypoxanthine",
    "category": "agents",
    "uuid": "5893eab6-f3f2-4884-8c3a-b0eb8ce16a3c",
    "scraped_at": "2025-07-23T21:26:49.671482"
  },
  "parsed_at": "2025-07-24T00:52:18.778949",
  "title": "Hypoxanthine",
  "sections": {
    "general": {
      "agent_name": {
        "original_name": "Agent Name",
        "value": "Hypoxanthine",
        "links": [],
        "cross_references": [
          {
            "type": "name_match",
            "text": "hypoxanthine",
            "confidence": 1.0,
            "uuid": "5893eab6-f3f2-4884-8c3a-b0eb8ce16a3c",
            "name": "Hypoxanthine",
            "url": "https://haz-map.com/Agents/14843",
            "category": "agents"
          },
          {
            "type": "name_match",
            "text": "xanthine",
            "confidence": 1.0,
            "uuid": "6440504f-a48b-4564-b510-e9733c09428b",
            "name": "Xanthine",
            "url": "https://haz-map.com/Agents/18695",
            "category": "agents"
          }
        ]
      },
      "cas_number": {
        "original_name": "CAS Number",
        "value": "68-94-0",
        "links": [],
        "cross_references": []
      },
      "formula": {
        "original_name": "Formula",
        "value": "C5-H4-N4-O",
        "links": [],
        "cross_references": []
      },
      "major_category": {
        "original_name": "Major Category",
        "value": "Nitrogen Compounds",
        "links": [],
        "cross_references": [
          {
            "type": "name_match",
            "text": "nitrogen",
            "confidence": 1.0,
            "uuid": "db5e90a9-06d2-45b9-8b81-f345a89b0bc0",
            "name": "Nitrogen",
            "url": "https://haz-map.com/Agents/1072",
            "category": "agents"
          }
        ]
      },
      "synonyms": {
        "original_name": "Synonyms",
        "value": "1,7-Dihydro-6H-purin-6-one; 3H-Purin-6-ol; 6(1H)-Purinone; 6-Hydroxy-1H-purine; 6-Hydroxypurine; 6-Oxopurine; 9H-Purin-6(1H)-one; 9H-Purin-6-ol; HX; Hypoxanthine enol; Purin-6(3H)-one; Purin-6-ol; Sarcine; Sarkin; Sarkine; 6H-Purin-6-one, 1,7-dihydro-; 6H-Purin-6-one, 1,9-dihydro-; Purin-6(1H)-one; [ChemIDplus]",
        "links": [],
        "cross_references": [
          {
            "type": "name_match",
            "text": "hypoxanthine",
            "confidence": 1.0,
            "uuid": "5893eab6-f3f2-4884-8c3a-b0eb8ce16a3c",
            "name": "Hypoxanthine",
            "url": "https://haz-map.com/Agents/14843",
            "category": "agents"
          },
          {
            "type": "name_match",
            "text": "xanthine",
            "confidence": 1.0,
            "uuid": "6440504f-a48b-4564-b510-e9733c09428b",
            "name": "Xanthine",
            "url": "https://haz-map.com/Agents/18695",
            "category": "agents"
          }
        ]
      },
      "category": {
        "original_name": "Category",
        "value": "Purines",
        "links": [],
        "cross_references": []
      },
      "description": {
        "original_name": "Description",
        "value": "Solid; [Merck Index] White powder; [Alfa Aesar MSDS]",
        "links": [],
        "cross_references": []
      },
      "sourcesuses": {
        "original_name": "Sources/Uses",
        "value": "A breakdown product of nucleic acids; [Merck Index] \"Hypoxanthine is a naturally occurring purine derivative. It is occasionally found as a constituent of nucleic acids, where it is present in the anticodon of tRNA in the form of its nucleoside inosine. It has a tautomer known as 6-hydroxypurine. Hypoxanthine is a necessary additive in certain cell, bacteria, and parasite cultures as a substrate and nitrogen source.\" [Wikipedia]",
        "links": [],
        "cross_references": [
          {
            "type": "name_match",
            "text": "nitrogen",
            "confidence": 1.0,
            "uuid": "db5e90a9-06d2-45b9-8b81-f345a89b0bc0",
            "name": "Nitrogen",
            "url": "https://haz-map.com/Agents/1072",
            "category": "agents"
          },
          {
            "type": "name_match",
            "text": "hypoxanthine",
            "confidence": 1.0,
            "uuid": "5893eab6-f3f2-4884-8c3a-b0eb8ce16a3c",
            "name": "Hypoxanthine",
            "url": "https://haz-map.com/Agents/14843",
            "category": "agents"
          },
          {
            "type": "name_match",
            "text": "inosine",
            "confidence": 1.0,
            "uuid": "896486dd-ad0f-4b3b-850a-e09acec307f0",
            "name": "Inosine",
            "url": "https://haz-map.com/Agents/14885",
            "category": "agents"
          },
          {
            "type": "name_match",
            "text": "xanthine",
            "confidence": 1.0,
            "uuid": "6440504f-a48b-4564-b510-e9733c09428b",
            "name": "Xanthine",
            "url": "https://haz-map.com/Agents/18695",
            "category": "agents"
          }
        ]
      },
      "comments": {
        "original_name": "Comments",
        "value": "Teratogenic in mice at 1,000 mg/kg but not rats at 700 mg/kg; [REPROTOX] May cause irritation; Risk of impaired fertility and harm to the unborn child; [Alfa Aesar MSDS]",
        "links": [],
        "cross_references": []
      },
      "biomedical_references": {
        "original_name": "Biomedical References",
        "value": "Search PubMed",
        "links": [
          {
            "text": "Search PubMed",
            "url": "https://www.ncbi.nlm.nih.gov/pubmed?term=Hypoxanthine%20AND%20human%5Bmh%5D%20AND%20%28Occupational%20Diseases%20%5Bmh%5D%20OR%20Occupational%20Exposure%20%5Bmh%5D%29%20%20AND%20%28tox%5Bsb%5D%29&cmd=search"
          }
        ],
        "cross_references": []
      }
    },
    "exposure_assessment": {
      "vapor_pressure": {
        "original_name": "Vapor Pressure",
        "value": "7.96E-10 mm Hg",
        "links": [],
        "cross_references": []
      }
    },
    "diseases_processes_and_activities_linked_to_this_agent": {
      "other_information": {
        "original_name": "Other Information",
        "value": "No other related information on this agent was found.",
        "links": [],
        "cross_references": []
      }
    }
  },
  "cross_references": [
    {
      "type": "name_match",
      "text": "nitrogen",
      "confidence": 1.0,
      "uuid": "db5e90a9-06d2-45b9-8b81-f345a89b0bc0",
      "name": "Nitrogen",
      "url": "https://haz-map.com/Agents/1072",
      "category": "agents"
    },
    {
      "type": "name_match",
      "text": "hypoxanthine",
      "confidence": 1.0,
      "uuid": "5893eab6-f3f2-4884-8c3a-b0eb8ce16a3c",
      "name": "Hypoxanthine",
      "url": "https://haz-map.com/Agents/14843",
      "category": "agents"
    },
    {
      "type": "name_match",
      "text": "inosine",
      "confidence": 1.0,
      "uuid": "896486dd-ad0f-4b3b-850a-e09acec307f0",
      "name": "Inosine",
      "url": "https://haz-map.com/Agents/14885",
      "category": "agents"
    },
    {
      "type": "name_match",
      "text": "xanthine",
      "confidence": 1.0,
      "uuid": "6440504f-a48b-4564-b510-e9733c09428b",
      "name": "Xanthine",
      "url": "https://haz-map.com/Agents/18695",
      "category": "agents"
    }
  ],
  "all_links": [
    {
      "text": "Search PubMed",
      "url": "https://www.ncbi.nlm.nih.gov/pubmed?term=Hypoxanthine%20AND%20human%5Bmh%5D%20AND%20%28Occupational%20Diseases%20%5Bmh%5D%20OR%20Occupational%20Exposure%20%5Bmh%5D%29%20%20AND%20%28tox%5Bsb%5D%29&cmd=search"
    }
  ]
}