{
  "metadata": {
    "scraped_from": "https://haz-map.com/Agents/5953",
    "entity_name": "sec-Butyl mercaptan",
    "category": "agents",
    "uuid": "58e70b1a-5e9b-4be5-8cbf-0bb7e191d4b3",
    "scraped_at": "2025-07-23T19:57:17.501883"
  },
  "parsed_at": "2025-07-24T00:59:11.057489",
  "title": "sec-Butyl mercaptan",
  "sections": {
    "general": {
      "agent_name": {
        "original_name": "Agent Name",
        "value": "sec-Butyl mercaptan",
        "links": [],
        "cross_references": [
          {
            "type": "name_match",
            "text": "captan",
            "confidence": 1.0,
            "uuid": "19bf918c-9caa-4481-999a-002bb3395f5a",
            "name": "Captan",
            "url": "https://haz-map.com/Agents/341",
            "category": "agents"
          },
          {
            "type": "name_match",
            "text": "sec-butyl mercaptan",
            "confidence": 1.0,
            "uuid": "58e70b1a-5e9b-4be5-8cbf-0bb7e191d4b3",
            "name": "sec-Butyl mercaptan",
            "url": "https://haz-map.com/Agents/5953",
            "category": "agents"
          }
        ]
      },
      "alternative_name": {
        "original_name": "Alternative Name",
        "value": "2-Butanethiol",
        "links": [],
        "cross_references": []
      },
      "cas_number": {
        "original_name": "CAS Number",
        "value": "513-53-1",
        "links": [],
        "cross_references": []
      },
      "formula": {
        "original_name": "Formula",
        "value": "C4-H10-S",
        "links": [],
        "cross_references": []
      },
      "major_category": {
        "original_name": "Major Category",
        "value": "Other Classes",
        "links": [],
        "cross_references": []
      },
      "synonyms": {
        "original_name": "Synonyms",
        "value": "2-Butanethiol; 1-Methyl-1-propanethiol; 2-Butyl mercaptan; 2-Butylmercaptan; 2-Mercaptobutane; sec-Butanethiol; sec-Butyl thioalcohol; sec-Butyl thiol; secondary Butylmercaptan; [ChemIDplus] UN2347",
        "links": [],
        "cross_references": [
          {
            "type": "name_match",
            "text": "1-propanethiol",
            "confidence": 1.0,
            "uuid": "c44ac60e-64bf-43ba-b8ca-60602032a24f",
            "name": "1-Propanethiol",
            "url": "https://haz-map.com/Agents/196",
            "category": "agents"
          },
          {
            "type": "name_match",
            "text": "captan",
            "confidence": 1.0,
            "uuid": "19bf918c-9caa-4481-999a-002bb3395f5a",
            "name": "Captan",
            "url": "https://haz-map.com/Agents/341",
            "category": "agents"
          },
          {
            "type": "name_match",
            "text": "propane",
            "confidence": 1.0,
            "uuid": "563a611b-46ea-4bdc-b77b-17d8f7646283",
            "name": "Propane",
            "url": "https://haz-map.com/Agents/607",
            "category": "agents"
          }
        ]
      },
      "category": {
        "original_name": "Category",
        "value": "Thiols",
        "links": [],
        "cross_references": [
          {
            "type": "name_match",
            "text": "thiols",
            "confidence": 1.0,
            "uuid": "c2e8a59b-9094-4832-9851-2c3cfd1fa8f9",
            "name": "THIOLS",
            "url": "https://haz-map.com/Agents/709",
            "category": "agents"
          }
        ]
      },
      "description": {
        "original_name": "Description",
        "value": "Liquid with a strong skunk-like odor; [Merck Index] Clear colorless liquid; [MSDSonline]",
        "links": [],
        "cross_references": []
      },
      "sourcesuses": {
        "original_name": "Sources/Uses",
        "value": "Used as odorant for natural gas and to make Cadusafos; [HSDB]",
        "links": [],
        "cross_references": [
          {
            "type": "name_match",
            "text": "cadusafos",
            "confidence": 1.0,
            "uuid": "82a89e5d-e9a3-49ae-81f3-0a905feacfbd",
            "name": "Cadusafos",
            "url": "https://haz-map.com/Agents/5080",
            "category": "agents"
          }
        ]
      },
      "comments": {
        "original_name": "Comments",
        "value": "Emergency treatment: \"Butyl mercaptan\"; Butyl mercaptan is a mucous membrane irritant with a repulsive odor detectable at sub-toxic concentrations; It causes narcosis and paralysis; It causes pulmonary edema in animals subjected to near lethal doses; [HSDB] May cause moderate eye irritation, based on animal studies; Inhalation of high concentrations can cause CNS depression; [CHEMINFO] An irritant; Exposure may cause CNS depression; [MSDSonline] See \"1-Butanethiol.\" See \"THIOLS.\"",
        "links": [],
        "cross_references": [
          {
            "type": "name_match",
            "text": "pulmonary edema",
            "confidence": 1.0,
            "uuid": "ee39114e-c922-40fd-9588-a532de404962",
            "name": "pulmonary edema",
            "url": "https://haz-map.com/Findings/186",
            "category": "findings"
          },
          {
            "type": "name_match",
            "text": "1-butanethiol",
            "confidence": 1.0,
            "uuid": "4180a497-6f8d-4987-8a7f-3d24cadac0f9",
            "name": "1-Butanethiol",
            "url": "https://haz-map.com/Agents/184",
            "category": "agents"
          },
          {
            "type": "name_match",
            "text": "captan",
            "confidence": 1.0,
            "uuid": "19bf918c-9caa-4481-999a-002bb3395f5a",
            "name": "Captan",
            "url": "https://haz-map.com/Agents/341",
            "category": "agents"
          },
          {
            "type": "name_match",
            "text": "thiols",
            "confidence": 1.0,
            "uuid": "c2e8a59b-9094-4832-9851-2c3cfd1fa8f9",
            "name": "THIOLS",
            "url": "https://haz-map.com/Agents/709",
            "category": "agents"
          }
        ]
      },
      "biomedical_references": {
        "original_name": "Biomedical References",
        "value": "Search PubMed",
        "links": [
          {
            "text": "Search PubMed",
            "url": "https://www.ncbi.nlm.nih.gov/pubmed?term=sec-Butyl+mercaptan%20AND%20human%5Bmh%5D%20AND%20%28Occupational%20Diseases%20%5Bmh%5D%20OR%20Occupational%20Exposure%20%5Bmh%5D%29%20%20AND%20%28tox%5Bsb%5D%29&cmd=search"
          }
        ],
        "cross_references": []
      }
    },
    "exposure_assessment": {
      "mak": {
        "original_name": "MAK",
        "value": "2 ppm",
        "links": [],
        "cross_references": []
      },
      "vapor_pressure": {
        "original_name": "Vapor Pressure",
        "value": "80.7 mm Hg",
        "links": [],
        "cross_references": []
      },
      "explanatory_notes": {
        "original_name": "Explanatory Notes",
        "value": "The Guide in the Emergency Response Guidebook is for \"Butyl mercaptan.\" VP from ChemIDplus;",
        "links": [],
        "cross_references": [
          {
            "type": "name_match",
            "text": "captan",
            "confidence": 1.0,
            "uuid": "19bf918c-9caa-4481-999a-002bb3395f5a",
            "name": "Captan",
            "url": "https://haz-map.com/Agents/341",
            "category": "agents"
          }
        ]
      },
      "nfpa": {
        "original_name": "NFPA",
        "value": "may ignite at ambient temp",
        "links": [],
        "cross_references": []
      }
    },
    "adverse_effects": {
      "other_poison": {
        "original_name": "Other Poison",
        "value": "Chemical Asphyxiant",
        "links": [],
        "cross_references": [
          {
            "type": "name_match",
            "text": "mica",
            "confidence": 1.0,
            "uuid": "433f26f1-c399-4596-b179-ce3843cfd465",
            "name": "Mica",
            "url": "https://haz-map.com/Agents/621",
            "category": "agents"
          }
        ]
      }
    },
    "diseases_processes_and_activities_linked_to_this_agent": {
      "diseases": {
        "original_name": "Diseases",
        "value": "Occupational diseases associated with exposure to this agent: Asphyxiation, chemical",
        "links": [
          {
            "text": "Asphyxiation, chemical",
            "url": "https://haz-map.com/Diseases/351"
          }
        ],
        "cross_references": [
          {
            "type": "url_match",
            "text": "Asphyxiation, chemical",
            "url": "https://haz-map.com/Diseases/351",
            "confidence": 1.0,
            "uuid": "78d8c6de-b137-4149-8098-0b7e8b092753",
            "name": "Asphyxiation, chemical",
            "category": "diseases"
          },
          {
            "type": "name_match",
            "text": "mica",
            "confidence": 1.0,
            "uuid": "433f26f1-c399-4596-b179-ce3843cfd465",
            "name": "Mica",
            "url": "https://haz-map.com/Agents/621",
            "category": "agents"
          }
        ]
      },
      "processes": {
        "original_name": "Processes",
        "value": "Industrial Processes with risk of exposure: Petroleum Production and Refining",
        "links": [
          {
            "text": "Petroleum Production and Refining",
            "url": "https://haz-map.com/Processes/75"
          }
        ],
        "cross_references": [
          {
            "type": "url_match",
            "text": "Petroleum Production and Refining",
            "url": "https://haz-map.com/Processes/75",
            "confidence": 1.0,
            "uuid": "e2003948-ad28-44a5-85f6-2e3391da8917",
            "name": "Petroleum Production and Refining",
            "category": "processes"
          },
          {
            "type": "name_match",
            "text": "oleum",
            "confidence": 1.0,
            "uuid": "12af84ee-bcf0-416d-9220-7c4c6dc330f1",
            "name": "Oleum",
            "url": "https://haz-map.com/Agents/2227",
            "category": "agents"
          }
        ]
      }
    }
  },
  "cross_references": [
    {
      "type": "url_match",
      "text": "Asphyxiation, chemical",
      "url": "https://haz-map.com/Diseases/351",
      "confidence": 1.0,
      "uuid": "78d8c6de-b137-4149-8098-0b7e8b092753",
      "name": "Asphyxiation, chemical",
      "category": "diseases"
    },
    {
      "type": "url_match",
      "text": "Petroleum Production and Refining",
      "url": "https://haz-map.com/Processes/75",
      "confidence": 1.0,
      "uuid": "e2003948-ad28-44a5-85f6-2e3391da8917",
      "name": "Petroleum Production and Refining",
      "category": "processes"
    },
    {
      "type": "name_match",
      "text": "pulmonary edema",
      "confidence": 1.0,
      "uuid": "ee39114e-c922-40fd-9588-a532de404962",
      "name": "pulmonary edema",
      "url": "https://haz-map.com/Findings/186",
      "category": "findings"
    },
    {
      "type": "name_match",
      "text": "1-butanethiol",
      "confidence": 1.0,
      "uuid": "4180a497-6f8d-4987-8a7f-3d24cadac0f9",
      "name": "1-Butanethiol",
      "url": "https://haz-map.com/Agents/184",
      "category": "agents"
    },
    {
      "type": "name_match",
      "text": "1-propanethiol",
      "confidence": 1.0,
      "uuid": "c44ac60e-64bf-43ba-b8ca-60602032a24f",
      "name": "1-Propanethiol",
      "url": "https://haz-map.com/Agents/196",
      "category": "agents"
    },
    {
      "type": "name_match",
      "text": "captan",
      "confidence": 1.0,
      "uuid": "19bf918c-9caa-4481-999a-002bb3395f5a",
      "name": "Captan",
      "url": "https://haz-map.com/Agents/341",
      "category": "agents"
    },
    {
      "type": "name_match",
      "text": "propane",
      "confidence": 1.0,
      "uuid": "563a611b-46ea-4bdc-b77b-17d8f7646283",
      "name": "Propane",
      "url": "https://haz-map.com/Agents/607",
      "category": "agents"
    },
    {
      "type": "name_match",
      "text": "mica",
      "confidence": 1.0,
      "uuid": "433f26f1-c399-4596-b179-ce3843cfd465",
      "name": "Mica",
      "url": "https://haz-map.com/Agents/621",
      "category": "agents"
    },
    {
      "type": "name_match",
      "text": "thiols",
      "confidence": 1.0,
      "uuid": "c2e8a59b-9094-4832-9851-2c3cfd1fa8f9",
      "name": "THIOLS",
      "url": "https://haz-map.com/Agents/709",
      "category": "agents"
    },
    {
      "type": "name_match",
      "text": "oleum",
      "confidence": 1.0,
      "uuid": "12af84ee-bcf0-416d-9220-7c4c6dc330f1",
      "name": "Oleum",
      "url": "https://haz-map.com/Agents/2227",
      "category": "agents"
    },
    {
      "type": "name_match",
      "text": "cadusafos",
      "confidence": 1.0,
      "uuid": "82a89e5d-e9a3-49ae-81f3-0a905feacfbd",
      "name": "Cadusafos",
      "url": "https://haz-map.com/Agents/5080",
      "category": "agents"
    },
    {
      "type": "name_match",
      "text": "sec-butyl mercaptan",
      "confidence": 1.0,
      "uuid": "58e70b1a-5e9b-4be5-8cbf-0bb7e191d4b3",
      "name": "sec-Butyl mercaptan",
      "url": "https://haz-map.com/Agents/5953",
      "category": "agents"
    }
  ],
  "all_links": [
    {
      "text": "Search PubMed",
      "url": "https://www.ncbi.nlm.nih.gov/pubmed?term=sec-Butyl+mercaptan%20AND%20human%5Bmh%5D%20AND%20%28Occupational%20Diseases%20%5Bmh%5D%20OR%20Occupational%20Exposure%20%5Bmh%5D%29%20%20AND%20%28tox%5Bsb%5D%29&cmd=search"
    },
    {
      "text": "Asphyxiation, chemical",
      "url": "https://haz-map.com/Diseases/351"
    },
    {
      "text": "Petroleum Production and Refining",
      "url": "https://haz-map.com/Processes/75"
    }
  ]
}