{
  "metadata": {
    "scraped_from": "https://haz-map.com/Agents/19926",
    "entity_name": "3-Methyl-3-buten-1-ol",
    "category": "agents",
    "uuid": "58ea53f8-05d8-4f16-a6db-e395141a0237",
    "scraped_at": "2025-07-23T22:15:30.537836"
  },
  "parsed_at": "2025-07-24T00:50:36.644578",
  "title": "3-Methyl-3-buten-1-ol",
  "sections": {
    "general": {
      "agent_name": {
        "original_name": "Agent Name",
        "value": "3-Methyl-3-buten-1-ol",
        "links": [],
        "cross_references": [
          {
            "type": "name_match",
            "text": "3-buten-1-ol",
            "confidence": 1.0,
            "uuid": "123444b5-b757-45a9-b4c6-5f2fee2a4048",
            "name": "3-Buten-1-ol",
            "url": "https://haz-map.com/Agents/11024",
            "category": "agents"
          },
          {
            "type": "name_match",
            "text": "3-methyl-3-buten-1-ol",
            "confidence": 1.0,
            "uuid": "58ea53f8-05d8-4f16-a6db-e395141a0237",
            "name": "3-Methyl-3-buten-1-ol",
            "url": "https://haz-map.com/Agents/19926",
            "category": "agents"
          }
        ]
      },
      "cas_number": {
        "original_name": "CAS Number",
        "value": "763-32-6",
        "links": [],
        "cross_references": []
      },
      "formula": {
        "original_name": "Formula",
        "value": "C5-H10-O",
        "links": [],
        "cross_references": []
      },
      "major_category": {
        "original_name": "Major Category",
        "value": "Other Classes",
        "links": [],
        "cross_references": []
      },
      "synonyms": {
        "original_name": "Synonyms",
        "value": "2-Methyl-1-buten-4-ol; 3-Isopentenyl alcohol; Isobutenylcarbinol; Isoprenol; Isopropenylethyl alcohol; Methallylcarbinol; 3-Buten-1-ol, 3-methyl-; 3-Methylbut-3-en-1-ol; [ChemIDplus] 2-Methyl-4-hydroxy-1-butene; 3-Methyl-3-butenol; 3-Methylbuten-3-ol-1; 3-Methylenebutan-1-ol; [IUCLID] UN1987",
        "links": [],
        "cross_references": [
          {
            "type": "name_match",
            "text": "ethyl alcohol",
            "confidence": 1.0,
            "uuid": "9e039165-5b7c-44a7-afb2-dcf3c15e7a99",
            "name": "Ethyl alcohol",
            "url": "https://haz-map.com/Agents/481",
            "category": "agents"
          },
          {
            "type": "name_match",
            "text": "ethylene",
            "confidence": 1.0,
            "uuid": "958eacc0-5135-4b62-bb93-6df972bf552f",
            "name": "Ethylene",
            "url": "https://haz-map.com/Agents/1076",
            "category": "agents"
          },
          {
            "type": "name_match",
            "text": "3-buten-1-ol",
            "confidence": 1.0,
            "uuid": "123444b5-b757-45a9-b4c6-5f2fee2a4048",
            "name": "3-Buten-1-ol",
            "url": "https://haz-map.com/Agents/11024",
            "category": "agents"
          }
        ]
      },
      "category": {
        "original_name": "Category",
        "value": "Alcohols and Polyols, Other",
        "links": [],
        "cross_references": []
      },
      "description": {
        "original_name": "Description",
        "value": "Colorless liquid; [Acros Organics MSDS]",
        "links": [],
        "cross_references": []
      },
      "sourcesuses": {
        "original_name": "Sources/Uses",
        "value": "Naturally occurs in the volatiles of pineapple essence; Used to make fragrance ingredients; [IUCLID] A flavoring agent that naturally occurs in roasted chicken and wine; [EFSA] Used in fuel formulation, as a monomer in polymer production, and to make large scale and fine chemicals; [ECHA REACH Registrations]",
        "links": [],
        "cross_references": [
          {
            "type": "name_match",
            "text": "mica",
            "confidence": 1.0,
            "uuid": "433f26f1-c399-4596-b179-ce3843cfd465",
            "name": "Mica",
            "url": "https://haz-map.com/Agents/621",
            "category": "agents"
          }
        ]
      },
      "comments": {
        "original_name": "Comments",
        "value": "No mortalities observed in rats exposed to saturated atmosphere at 20 degrees C for 8 hours; Causes eye but no skin irritation in rabbits; [IUCLID] Causes changes in urine composition and decreased immune response in 90-day intermittent inhalation studies of rats; [RTECS] Safe when used as a flavoring agent in food; [EFSA] May cause serious eye injury; [ECHA REACH Registrations] A eye irritant; [Acros Organics MSDS]",
        "links": [],
        "cross_references": [
          {
            "type": "name_match",
            "text": "tali",
            "confidence": 1.0,
            "uuid": "8c3a0f99-2143-4122-b539-ec5cc49596b0",
            "name": "Tali",
            "url": "https://haz-map.com/Agents/1128",
            "category": "agents"
          }
        ]
      },
      "biomedical_references": {
        "original_name": "Biomedical References",
        "value": "Search PubMed",
        "links": [
          {
            "text": "Search PubMed",
            "url": "https://www.ncbi.nlm.nih.gov/pubmed?term=3-Methyl-3-buten-1-ol%20AND%20human%5Bmh%5D%20AND%20%28Occupational%20Diseases%20%5Bmh%5D%20OR%20Occupational%20Exposure%20%5Bmh%5D%29%20%20AND%20%28tox%5Bsb%5D%29&cmd=search"
          }
        ],
        "cross_references": []
      }
    },
    "exposure_assessment": {
      "vapor_pressure": {
        "original_name": "Vapor Pressure",
        "value": "20 mm Hg",
        "links": [],
        "cross_references": []
      },
      "explanatory_notes": {
        "original_name": "Explanatory Notes",
        "value": "The Guide in the Emergency Response Guidebook is for \"Alcohols, n.o.s.\"",
        "links": [],
        "cross_references": []
      }
    },
    "diseases_processes_and_activities_linked_to_this_agent": {
      "other_information": {
        "original_name": "Other Information",
        "value": "No other related information on this agent was found.",
        "links": [],
        "cross_references": []
      }
    }
  },
  "cross_references": [
    {
      "type": "name_match",
      "text": "ethyl alcohol",
      "confidence": 1.0,
      "uuid": "9e039165-5b7c-44a7-afb2-dcf3c15e7a99",
      "name": "Ethyl alcohol",
      "url": "https://haz-map.com/Agents/481",
      "category": "agents"
    },
    {
      "type": "name_match",
      "text": "mica",
      "confidence": 1.0,
      "uuid": "433f26f1-c399-4596-b179-ce3843cfd465",
      "name": "Mica",
      "url": "https://haz-map.com/Agents/621",
      "category": "agents"
    },
    {
      "type": "name_match",
      "text": "ethylene",
      "confidence": 1.0,
      "uuid": "958eacc0-5135-4b62-bb93-6df972bf552f",
      "name": "Ethylene",
      "url": "https://haz-map.com/Agents/1076",
      "category": "agents"
    },
    {
      "type": "name_match",
      "text": "tali",
      "confidence": 1.0,
      "uuid": "8c3a0f99-2143-4122-b539-ec5cc49596b0",
      "name": "Tali",
      "url": "https://haz-map.com/Agents/1128",
      "category": "agents"
    },
    {
      "type": "name_match",
      "text": "3-buten-1-ol",
      "confidence": 1.0,
      "uuid": "123444b5-b757-45a9-b4c6-5f2fee2a4048",
      "name": "3-Buten-1-ol",
      "url": "https://haz-map.com/Agents/11024",
      "category": "agents"
    },
    {
      "type": "name_match",
      "text": "3-methyl-3-buten-1-ol",
      "confidence": 1.0,
      "uuid": "58ea53f8-05d8-4f16-a6db-e395141a0237",
      "name": "3-Methyl-3-buten-1-ol",
      "url": "https://haz-map.com/Agents/19926",
      "category": "agents"
    }
  ],
  "all_links": [
    {
      "text": "Search PubMed",
      "url": "https://www.ncbi.nlm.nih.gov/pubmed?term=3-Methyl-3-buten-1-ol%20AND%20human%5Bmh%5D%20AND%20%28Occupational%20Diseases%20%5Bmh%5D%20OR%20Occupational%20Exposure%20%5Bmh%5D%29%20%20AND%20%28tox%5Bsb%5D%29&cmd=search"
    }
  ]
}