{
  "metadata": {
    "scraped_from": "https://haz-map.com/Agents/6420",
    "entity_name": "o-Toluenesulfonamide",
    "category": "agents",
    "uuid": "5925e8b9-b62b-484b-9ab0-5ed349087d0f",
    "scraped_at": "2025-07-23T20:01:43.209937"
  },
  "parsed_at": "2025-07-24T00:53:51.451896",
  "title": "o-Toluenesulfonamide",
  "sections": {
    "general": {
      "agent_name": {
        "original_name": "Agent Name",
        "value": "o-Toluenesulfonamide",
        "links": [],
        "cross_references": [
          {
            "type": "name_match",
            "text": "toluene",
            "confidence": 1.0,
            "uuid": "0a34d5de-e924-4c47-aff5-7ae8e48c6772",
            "name": "Toluene",
            "url": "https://haz-map.com/Agents/83",
            "category": "agents"
          },
          {
            "type": "name_match",
            "text": "o-toluenesulfonamide",
            "confidence": 1.0,
            "uuid": "5925e8b9-b62b-484b-9ab0-5ed349087d0f",
            "name": "o-Toluenesulfonamide",
            "url": "https://haz-map.com/Agents/6420",
            "category": "agents"
          },
          {
            "type": "name_match",
            "text": "toluenesulfonamide",
            "confidence": 1.0,
            "uuid": "bf0cba41-3611-4558-8902-0bc6be119c60",
            "name": "Toluenesulfonamide",
            "url": "https://haz-map.com/Agents/7465",
            "category": "agents"
          }
        ]
      },
      "cas_number": {
        "original_name": "CAS Number",
        "value": "88-19-7",
        "links": [],
        "cross_references": []
      },
      "formula": {
        "original_name": "Formula",
        "value": "C7-H9-N-O2-S",
        "links": [],
        "cross_references": []
      },
      "major_category": {
        "original_name": "Major Category",
        "value": "Nitrogen Compounds",
        "links": [],
        "cross_references": [
          {
            "type": "name_match",
            "text": "nitrogen",
            "confidence": 1.0,
            "uuid": "db5e90a9-06d2-45b9-8b81-f345a89b0bc0",
            "name": "Nitrogen",
            "url": "https://haz-map.com/Agents/1072",
            "category": "agents"
          }
        ]
      },
      "synonyms": {
        "original_name": "Synonyms",
        "value": "2-Toluenesulfonamide; 2-Methylbenzenesulfonamide; 2-Tolylsulfonamide; Benzenesulfonamide, 2-methyl-; Toluene-2-sulfonamide; o-Methylbenzenesulfonamide; ortho-Toluenesulfonamide; ortho-Toluol-sulfonamid [German]; [ChemIDplus]",
        "links": [],
        "cross_references": [
          {
            "type": "name_match",
            "text": "benzene",
            "confidence": 1.0,
            "uuid": "b05124de-5f34-4c14-8f04-ccb20c3780d9",
            "name": "Benzene",
            "url": "https://haz-map.com/Agents/5",
            "category": "agents"
          },
          {
            "type": "name_match",
            "text": "toluene",
            "confidence": 1.0,
            "uuid": "0a34d5de-e924-4c47-aff5-7ae8e48c6772",
            "name": "Toluene",
            "url": "https://haz-map.com/Agents/83",
            "category": "agents"
          },
          {
            "type": "name_match",
            "text": "o-toluenesulfonamide",
            "confidence": 1.0,
            "uuid": "5925e8b9-b62b-484b-9ab0-5ed349087d0f",
            "name": "o-Toluenesulfonamide",
            "url": "https://haz-map.com/Agents/6420",
            "category": "agents"
          },
          {
            "type": "name_match",
            "text": "toluenesulfonamide",
            "confidence": 1.0,
            "uuid": "bf0cba41-3611-4558-8902-0bc6be119c60",
            "name": "Toluenesulfonamide",
            "url": "https://haz-map.com/Agents/7465",
            "category": "agents"
          },
          {
            "type": "name_match",
            "text": "benzenesulfonamide",
            "confidence": 1.0,
            "uuid": "66d8b92e-3d51-4461-ac5b-4ff3501d45e5",
            "name": "Benzenesulfonamide",
            "url": "https://haz-map.com/Agents/20287",
            "category": "agents"
          }
        ]
      },
      "category": {
        "original_name": "Category",
        "value": "Sulfonamides",
        "links": [],
        "cross_references": []
      },
      "description": {
        "original_name": "Description",
        "value": "Colorless solid; [Hawley] White powder; [MSDSonline]",
        "links": [],
        "cross_references": []
      },
      "sourcesuses": {
        "original_name": "Sources/Uses",
        "value": "Used in mixtures with p-toluenesulfonamide as reactive plasticizer; Also used as a plasticizer for hot-melt adhesives and a chemical intermediate for fluorescent pigments and plasticizer resins; [HSDB] Used to make saccharin; [eChemPortal: SIDSUNEP] A contaminant of saccharin; [IARC]",
        "links": [],
        "cross_references": [
          {
            "type": "name_match",
            "text": "toluene",
            "confidence": 1.0,
            "uuid": "0a34d5de-e924-4c47-aff5-7ae8e48c6772",
            "name": "Toluene",
            "url": "https://haz-map.com/Agents/83",
            "category": "agents"
          },
          {
            "type": "name_match",
            "text": "mica",
            "confidence": 1.0,
            "uuid": "433f26f1-c399-4596-b179-ce3843cfd465",
            "name": "Mica",
            "url": "https://haz-map.com/Agents/621",
            "category": "agents"
          },
          {
            "type": "name_match",
            "text": "p-toluenesulfonamide",
            "confidence": 1.0,
            "uuid": "16e0440c-0427-4f47-af29-507771d3eecd",
            "name": "p-Toluenesulfonamide",
            "url": "https://haz-map.com/Agents/6512",
            "category": "agents"
          },
          {
            "type": "name_match",
            "text": "toluenesulfonamide",
            "confidence": 1.0,
            "uuid": "bf0cba41-3611-4558-8902-0bc6be119c60",
            "name": "Toluenesulfonamide",
            "url": "https://haz-map.com/Agents/7465",
            "category": "agents"
          },
          {
            "type": "name_match",
            "text": "saccharin",
            "confidence": 1.0,
            "uuid": "2e1ecce9-5aa0-4aba-b829-95b9f18e3dca",
            "name": "Saccharin",
            "url": "https://haz-map.com/Agents/17165",
            "category": "agents"
          }
        ]
      },
      "comments": {
        "original_name": "Comments",
        "value": "A mutagen, tumorigen, reproductive effector, and moderate eye irritant; [RTECS] Used therapeutically, sulfonamides can cause a range of hypersensitivity reactions including rashes and injury to the liver and kidneys; Methemoglobinemia has been reported after overdose; [HSDB] An eye irritant; [ICSC] An irritant; [MSDSonline] See \"p-Toluenesulfonamide\" and \"Toluenesulfonamide.\"",
        "links": [],
        "cross_references": [
          {
            "type": "name_match",
            "text": "toluene",
            "confidence": 1.0,
            "uuid": "0a34d5de-e924-4c47-aff5-7ae8e48c6772",
            "name": "Toluene",
            "url": "https://haz-map.com/Agents/83",
            "category": "agents"
          },
          {
            "type": "name_match",
            "text": "ash",
            "confidence": 1.0,
            "uuid": "68b360f1-5ad0-4337-bea0-d7adca2961b5",
            "name": "Ash",
            "url": "https://haz-map.com/Agents/965",
            "category": "agents"
          },
          {
            "type": "name_match",
            "text": "p-toluenesulfonamide",
            "confidence": 1.0,
            "uuid": "16e0440c-0427-4f47-af29-507771d3eecd",
            "name": "p-Toluenesulfonamide",
            "url": "https://haz-map.com/Agents/6512",
            "category": "agents"
          },
          {
            "type": "name_match",
            "text": "toluenesulfonamide",
            "confidence": 1.0,
            "uuid": "bf0cba41-3611-4558-8902-0bc6be119c60",
            "name": "Toluenesulfonamide",
            "url": "https://haz-map.com/Agents/7465",
            "category": "agents"
          },
          {
            "type": "name_match",
            "text": "methemoglobin",
            "confidence": 1.0,
            "uuid": "afb7ebf5-d2a3-4e60-8d2e-3a19456344ee",
            "name": "Methemoglobin",
            "url": "https://haz-map.com/Agents/15467",
            "category": "agents"
          },
          {
            "type": "fuzzy_match",
            "text": "methemoglobinemia",
            "matched_name": "Methemoglobinemia, acute",
            "confidence": 0.7208333333333333,
            "uuid": "473a44bd-cf11-4710-a769-e8e2b25ba317",
            "category": "diseases",
            "url": "https://haz-map.com/Diseases/210"
          }
        ]
      },
      "biomedical_references": {
        "original_name": "Biomedical References",
        "value": "Search PubMed",
        "links": [
          {
            "text": "Search PubMed",
            "url": "https://www.ncbi.nlm.nih.gov/pubmed?term=o-Toluenesulfonamide%20AND%20human%5Bmh%5D%20AND%20%28Occupational%20Diseases%20%5Bmh%5D%20OR%20Occupational%20Exposure%20%5Bmh%5D%29%20%20AND%20%28tox%5Bsb%5D%29&cmd=search"
          }
        ],
        "cross_references": []
      }
    },
    "exposure_assessment": {
      "vapor_pressure": {
        "original_name": "Vapor Pressure",
        "value": "6E-05 mm Hg",
        "links": [],
        "cross_references": []
      }
    },
    "adverse_effects": {
      "methemoglobinemia": {
        "original_name": "Methemoglobinemia",
        "value": "MetHgb is secondary toxic effect",
        "links": [],
        "cross_references": []
      },
      "hepatotoxin": {
        "original_name": "Hepatotoxin",
        "value": "Hepatoxic (a) from occupational exposure (secondary effect) or (b) in animal studies or in humans after ingestion",
        "links": [],
        "cross_references": []
      }
    },
    "diseases_processes_and_activities_linked_to_this_agent": {
      "other_information": {
        "original_name": "Other Information",
        "value": "No other related information on this agent was found.",
        "links": [],
        "cross_references": []
      }
    }
  },
  "cross_references": [
    {
      "type": "name_match",
      "text": "benzene",
      "confidence": 1.0,
      "uuid": "b05124de-5f34-4c14-8f04-ccb20c3780d9",
      "name": "Benzene",
      "url": "https://haz-map.com/Agents/5",
      "category": "agents"
    },
    {
      "type": "name_match",
      "text": "toluene",
      "confidence": 1.0,
      "uuid": "0a34d5de-e924-4c47-aff5-7ae8e48c6772",
      "name": "Toluene",
      "url": "https://haz-map.com/Agents/83",
      "category": "agents"
    },
    {
      "type": "name_match",
      "text": "mica",
      "confidence": 1.0,
      "uuid": "433f26f1-c399-4596-b179-ce3843cfd465",
      "name": "Mica",
      "url": "https://haz-map.com/Agents/621",
      "category": "agents"
    },
    {
      "type": "name_match",
      "text": "ash",
      "confidence": 1.0,
      "uuid": "68b360f1-5ad0-4337-bea0-d7adca2961b5",
      "name": "Ash",
      "url": "https://haz-map.com/Agents/965",
      "category": "agents"
    },
    {
      "type": "name_match",
      "text": "nitrogen",
      "confidence": 1.0,
      "uuid": "db5e90a9-06d2-45b9-8b81-f345a89b0bc0",
      "name": "Nitrogen",
      "url": "https://haz-map.com/Agents/1072",
      "category": "agents"
    },
    {
      "type": "name_match",
      "text": "o-toluenesulfonamide",
      "confidence": 1.0,
      "uuid": "5925e8b9-b62b-484b-9ab0-5ed349087d0f",
      "name": "o-Toluenesulfonamide",
      "url": "https://haz-map.com/Agents/6420",
      "category": "agents"
    },
    {
      "type": "name_match",
      "text": "p-toluenesulfonamide",
      "confidence": 1.0,
      "uuid": "16e0440c-0427-4f47-af29-507771d3eecd",
      "name": "p-Toluenesulfonamide",
      "url": "https://haz-map.com/Agents/6512",
      "category": "agents"
    },
    {
      "type": "name_match",
      "text": "toluenesulfonamide",
      "confidence": 1.0,
      "uuid": "bf0cba41-3611-4558-8902-0bc6be119c60",
      "name": "Toluenesulfonamide",
      "url": "https://haz-map.com/Agents/7465",
      "category": "agents"
    },
    {
      "type": "name_match",
      "text": "methemoglobin",
      "confidence": 1.0,
      "uuid": "afb7ebf5-d2a3-4e60-8d2e-3a19456344ee",
      "name": "Methemoglobin",
      "url": "https://haz-map.com/Agents/15467",
      "category": "agents"
    },
    {
      "type": "name_match",
      "text": "saccharin",
      "confidence": 1.0,
      "uuid": "2e1ecce9-5aa0-4aba-b829-95b9f18e3dca",
      "name": "Saccharin",
      "url": "https://haz-map.com/Agents/17165",
      "category": "agents"
    },
    {
      "type": "name_match",
      "text": "benzenesulfonamide",
      "confidence": 1.0,
      "uuid": "66d8b92e-3d51-4461-ac5b-4ff3501d45e5",
      "name": "Benzenesulfonamide",
      "url": "https://haz-map.com/Agents/20287",
      "category": "agents"
    },
    {
      "type": "fuzzy_match",
      "text": "methemoglobinemia",
      "matched_name": "Methemoglobinemia, acute",
      "confidence": 0.7208333333333333,
      "uuid": "473a44bd-cf11-4710-a769-e8e2b25ba317",
      "category": "diseases",
      "url": "https://haz-map.com/Diseases/210"
    }
  ],
  "all_links": [
    {
      "text": "Search PubMed",
      "url": "https://www.ncbi.nlm.nih.gov/pubmed?term=o-Toluenesulfonamide%20AND%20human%5Bmh%5D%20AND%20%28Occupational%20Diseases%20%5Bmh%5D%20OR%20Occupational%20Exposure%20%5Bmh%5D%29%20%20AND%20%28tox%5Bsb%5D%29&cmd=search"
    }
  ]
}