{
  "metadata": {
    "scraped_from": "https://haz-map.com/Agents/1177",
    "entity_name": "N-Methyl-2-pyrrolidone",
    "category": "agents",
    "uuid": "594ab743-d03e-41c0-941f-ac6cb6d7c406",
    "scraped_at": "2025-07-23T18:53:53.396014"
  },
  "parsed_at": "2025-07-24T00:54:52.373008",
  "title": "N-Methyl-2-pyrrolidone",
  "sections": {
    "general": {
      "agent_name": {
        "original_name": "Agent Name",
        "value": "N-Methyl-2-pyrrolidone",
        "links": [],
        "cross_references": [
          {
            "type": "name_match",
            "text": "n-methyl-2-pyrrolidone",
            "confidence": 1.0,
            "uuid": "594ab743-d03e-41c0-941f-ac6cb6d7c406",
            "name": "N-Methyl-2-pyrrolidone",
            "url": "https://haz-map.com/Agents/1177",
            "category": "agents"
          },
          {
            "type": "name_match",
            "text": "2-pyrrolidone",
            "confidence": 1.0,
            "uuid": "ab75cab5-f15f-40b0-a980-1e25509d9727",
            "name": "2-Pyrrolidone",
            "url": "https://haz-map.com/Agents/3166",
            "category": "agents"
          }
        ]
      },
      "cas_number": {
        "original_name": "CAS Number",
        "value": "872-50-4",
        "links": [],
        "cross_references": []
      },
      "formula": {
        "original_name": "Formula",
        "value": "C5-H9-N-O",
        "links": [],
        "cross_references": []
      },
      "major_category": {
        "original_name": "Major Category",
        "value": "Solvents",
        "links": [],
        "cross_references": []
      },
      "synonyms": {
        "original_name": "Synonyms",
        "value": "1-Methyl-2-pyrrolidinone; 1-Methyl-2-pyrrolidone; 1-Methyl-5-pyrrolidinone; 1-Methylazacyclopentan-2-one; 1-Methylpyrrolidinone; 1-Methylpyrrolidone; 2-Pyrrolidinone, 1-methyl-; M-Pyrol; Methylpyrrolidone; N-Methyl-2-pyrrolidinone; N-Methyl-2-pyrrolidone; N-Methyl-gamma-butyrolactam; N-Methylpyrrolidinone; N-Methylpyrrolidone; NMP; Norleucine, 5-oxo-, DL; [ChemIDplus] UN1993",
        "links": [],
        "cross_references": [
          {
            "type": "name_match",
            "text": "n-methyl-2-pyrrolidone",
            "confidence": 1.0,
            "uuid": "594ab743-d03e-41c0-941f-ac6cb6d7c406",
            "name": "N-Methyl-2-pyrrolidone",
            "url": "https://haz-map.com/Agents/1177",
            "category": "agents"
          },
          {
            "type": "name_match",
            "text": "2-pyrrolidone",
            "confidence": 1.0,
            "uuid": "ab75cab5-f15f-40b0-a980-1e25509d9727",
            "name": "2-Pyrrolidone",
            "url": "https://haz-map.com/Agents/3166",
            "category": "agents"
          },
          {
            "type": "name_match",
            "text": "leucine",
            "confidence": 1.0,
            "uuid": "ba733437-a503-4dd6-9f58-9ce7cb505d48",
            "name": "Leucine",
            "url": "https://haz-map.com/Agents/15162",
            "category": "agents"
          }
        ]
      },
      "category": {
        "original_name": "Category",
        "value": "Other Solvents",
        "links": [],
        "cross_references": []
      },
      "description": {
        "original_name": "Description",
        "value": "A clear colorless liquid with a fish-like odor; [CAMEO] Almost colorless liquid with an amine odor; [AIHA]",
        "links": [],
        "cross_references": []
      },
      "sourcesuses": {
        "original_name": "Sources/Uses",
        "value": "Used as a solvent for chemicals and resins in the microelectronics and pharmaceutical industries; [HSDB] Widely used to replace other solvents, e.g., for paint stripping and lube oil extraction; it is used as a solvent for pesticides, coatings, adhesives, dyes, pigments, polymers, and polyurethane foam cleanup. [ACGIH]",
        "links": [],
        "cross_references": [
          {
            "type": "name_match",
            "text": "mica",
            "confidence": 1.0,
            "uuid": "433f26f1-c399-4596-b179-ce3843cfd465",
            "name": "Mica",
            "url": "https://haz-map.com/Agents/621",
            "category": "agents"
          },
          {
            "type": "name_match",
            "text": "ethane",
            "confidence": 1.0,
            "uuid": "5162cc8c-dfb9-4060-81ac-38a8cec7f9dd",
            "name": "Ethane",
            "url": "https://haz-map.com/Agents/1075",
            "category": "agents"
          },
          {
            "type": "name_match",
            "text": "urethane",
            "confidence": 1.0,
            "uuid": "6405f173-6b8a-4d9b-a282-a1a6bf6901fd",
            "name": "Urethane",
            "url": "https://haz-map.com/Agents/2032",
            "category": "agents"
          },
          {
            "type": "name_match",
            "text": "polyurethane foam",
            "confidence": 1.0,
            "uuid": "5d629a09-0181-43c6-82f5-3148ea4948aa",
            "name": "Polyurethane foam",
            "url": "https://haz-map.com/Agents/16757",
            "category": "agents"
          }
        ]
      },
      "comments": {
        "original_name": "Comments",
        "value": "It is absorbed through the skin; a severe eye irritant; [CSH, p. 291] \"It is mainly an irritant, but it can cause severe contact dermatitis due to prolonged contact.\" [Kanerva, p. 1816] Experimental animals experience lethargy and respiratory difficulty after inhalation. [HSDB] Some animal studies found fetal loss and birth defects after high doses during early pregnancy. [Frazier, p. 345] NMP is a cyclic amide used as a solvent, catalyst, formulating agent, and graffiti remover. Significant absorption occurs through the skin. 2-HMSI can be used for biological monitoring of workers. [Akesson B, Carnerup MA, Jonsson BAG. Evaluation of exposure biomarkers from percutaneous absorption of N-methyl-2-pyrrolidone. Scand J Work Environ 2004;30(4):306-312] In high-dose animal studies, adverse effects include CNS depression and changes to the liver, kidneys, and blood cells. [ACGIH] A skin and eye irritant; [ICSC] Danger of cutaneous absorption; [AIHA]",
        "links": [],
        "cross_references": [
          {
            "type": "name_match",
            "text": "lethargy",
            "confidence": 1.0,
            "uuid": "f3e97992-f086-4114-b2b3-9e38808450cd",
            "name": "lethargy",
            "url": "https://haz-map.com/Findings/46",
            "category": "findings"
          },
          {
            "type": "name_match",
            "text": "dermatitis",
            "confidence": 1.0,
            "uuid": "fe9c05f2-b19f-4ceb-ac7a-ffb7d7a0cae0",
            "name": "dermatitis",
            "url": "https://haz-map.com/Findings/59",
            "category": "findings"
          },
          {
            "type": "name_match",
            "text": "n-methyl-2-pyrrolidone",
            "confidence": 1.0,
            "uuid": "594ab743-d03e-41c0-941f-ac6cb6d7c406",
            "name": "N-Methyl-2-pyrrolidone",
            "url": "https://haz-map.com/Agents/1177",
            "category": "agents"
          },
          {
            "type": "name_match",
            "text": "iron",
            "confidence": 1.0,
            "uuid": "a6101f16-ec31-4d6c-af41-cbdbda5b1c7c",
            "name": "Iron",
            "url": "https://haz-map.com/Agents/1993",
            "category": "agents"
          },
          {
            "type": "name_match",
            "text": "2-pyrrolidone",
            "confidence": 1.0,
            "uuid": "ab75cab5-f15f-40b0-a980-1e25509d9727",
            "name": "2-Pyrrolidone",
            "url": "https://haz-map.com/Agents/3166",
            "category": "agents"
          },
          {
            "type": "fuzzy_match",
            "text": "contact dermatitis",
            "matched_name": "Contact dermatitis, allergic",
            "confidence": 0.7214285714285715,
            "uuid": "c9499de0-9aa1-41bf-8753-cd5b28a63e29",
            "category": "diseases",
            "url": "https://haz-map.com/Diseases/18"
          }
        ]
      },
      "reference_link_1": {
        "original_name": "Reference Link #1",
        "value": "Irritant cutaneous reactions to N-methyl-2-pyrrolidone (NMP)",
        "links": [
          {
            "text": "Irritant cutaneous reactions to N-methyl-2-pyrrolidone (NMP)",
            "url": "http://www.ncbi.nlm.nih.gov/entrez/query.fcgi?cmd=Retrieve&db=PubMed&list_uids=1451458&dopt=Abstract"
          }
        ],
        "cross_references": [
          {
            "type": "name_match",
            "text": "n-methyl-2-pyrrolidone",
            "confidence": 1.0,
            "uuid": "594ab743-d03e-41c0-941f-ac6cb6d7c406",
            "name": "N-Methyl-2-pyrrolidone",
            "url": "https://haz-map.com/Agents/1177",
            "category": "agents"
          },
          {
            "type": "name_match",
            "text": "2-pyrrolidone",
            "confidence": 1.0,
            "uuid": "ab75cab5-f15f-40b0-a980-1e25509d9727",
            "name": "2-Pyrrolidone",
            "url": "https://haz-map.com/Agents/3166",
            "category": "agents"
          }
        ]
      },
      "biomedical_references": {
        "original_name": "Biomedical References",
        "value": "Search PubMed",
        "links": [
          {
            "text": "Search PubMed",
            "url": "https://www.ncbi.nlm.nih.gov/pubmed?term=N-Methyl-2-pyrrolidone%20AND%20human%5Bmh%5D%20AND%20%28Occupational%20Diseases%20%5Bmh%5D%20OR%20Occupational%20Exposure%20%5Bmh%5D%29%20%20AND%20%28tox%5Bsb%5D%29&cmd=search"
          }
        ],
        "cross_references": []
      }
    },
    "exposure_assessment": {
      "bei": {
        "original_name": "BEI",
        "value": "5-Hydroxy-N-methyl-2-pyrrolidone in urine = 100 mg/L at end of shift;",
        "links": [],
        "cross_references": [
          {
            "type": "name_match",
            "text": "n-methyl-2-pyrrolidone",
            "confidence": 1.0,
            "uuid": "594ab743-d03e-41c0-941f-ac6cb6d7c406",
            "name": "N-Methyl-2-pyrrolidone",
            "url": "https://haz-map.com/Agents/1177",
            "category": "agents"
          },
          {
            "type": "name_match",
            "text": "2-pyrrolidone",
            "confidence": 1.0,
            "uuid": "ab75cab5-f15f-40b0-a980-1e25509d9727",
            "name": "2-Pyrrolidone",
            "url": "https://haz-map.com/Agents/3166",
            "category": "agents"
          }
        ]
      },
      "mak": {
        "original_name": "MAK",
        "value": "20 ppm, (can also occur as vapor and aerosol)",
        "links": [],
        "cross_references": []
      },
      "vapor_pressure": {
        "original_name": "Vapor Pressure",
        "value": "0.345 mm Hg",
        "links": [],
        "cross_references": []
      },
      "odor_threshold_low": {
        "original_name": "Odor Threshold Low",
        "value": "4 ppm",
        "links": [],
        "cross_references": []
      },
      "odor_threshold_high": {
        "original_name": "Odor Threshold High",
        "value": "10 ppm",
        "links": [],
        "cross_references": []
      },
      "lethal_concentration": {
        "original_name": "Lethal Concentration",
        "value": "LCLo (rat) = 1,000 mg/m3",
        "links": [],
        "cross_references": []
      },
      "explanatory_notes": {
        "original_name": "Explanatory Notes",
        "value": "Flash point = 96 deg C; Odor thresholds from CSH; VP from HSDB;",
        "links": [],
        "cross_references": [
          {
            "type": "name_match",
            "text": "ash",
            "confidence": 1.0,
            "uuid": "68b360f1-5ad0-4337-bea0-d7adca2961b5",
            "name": "Ash",
            "url": "https://haz-map.com/Agents/965",
            "category": "agents"
          }
        ]
      },
      "reference_link_2": {
        "original_name": "Reference Link #2",
        "value": "ICSC: N-Methyl-2-pyrrolidone",
        "links": [
          {
            "text": "ICSC: N-Methyl-2-pyrrolidone",
            "url": "https://www.ilo.org/dyn/icsc/showcard.home"
          }
        ],
        "cross_references": [
          {
            "type": "name_match",
            "text": "n-methyl-2-pyrrolidone",
            "confidence": 1.0,
            "uuid": "594ab743-d03e-41c0-941f-ac6cb6d7c406",
            "name": "N-Methyl-2-pyrrolidone",
            "url": "https://haz-map.com/Agents/1177",
            "category": "agents"
          },
          {
            "type": "name_match",
            "text": "2-pyrrolidone",
            "confidence": 1.0,
            "uuid": "ab75cab5-f15f-40b0-a980-1e25509d9727",
            "name": "2-Pyrrolidone",
            "url": "https://haz-map.com/Agents/3166",
            "category": "agents"
          }
        ]
      },
      "nfpa": {
        "original_name": "NFPA",
        "value": "high ambient temp required",
        "links": [],
        "cross_references": []
      },
      "weel": {
        "original_name": "WEEL",
        "value": "10 ppm",
        "links": [],
        "cross_references": []
      }
    },
    "adverse_effects": {
      "neurotoxin": {
        "original_name": "Neurotoxin",
        "value": "Acute solvent syndrome",
        "links": [],
        "cross_references": []
      },
      "hepatotoxin": {
        "original_name": "Hepatotoxin",
        "value": "Hepatoxic (a) from occupational exposure (secondary effect) or (b) in animal studies or in humans after ingestion",
        "links": [],
        "cross_references": []
      },
      "reproductive_toxin": {
        "original_name": "Reproductive Toxin",
        "value": "Yes",
        "links": [],
        "cross_references": []
      }
    },
    "diseases_processes_and_activities_linked_to_this_agent": {
      "diseases": {
        "original_name": "Diseases",
        "value": "Occupational diseases associated with exposure to this agent: Encephalopathy, chronic solvent Solvents, acute toxic effect",
        "links": [
          {
            "text": "Encephalopathy, chronic solvent",
            "url": "https://haz-map.com/Diseases/325"
          },
          {
            "text": "Solvents, acute toxic effect",
            "url": "https://haz-map.com/Diseases/326"
          }
        ],
        "cross_references": [
          {
            "type": "url_match",
            "text": "Encephalopathy, chronic solvent",
            "url": "https://haz-map.com/Diseases/325",
            "confidence": 1.0,
            "uuid": "589ad578-4636-444e-8823-bf2dd0c7aeab",
            "name": "Encephalopathy, chronic solvent",
            "category": "diseases"
          },
          {
            "type": "url_match",
            "text": "Solvents, acute toxic effect",
            "url": "https://haz-map.com/Diseases/326",
            "confidence": 1.0,
            "uuid": "581e90e3-9d0c-45f0-aa6c-3468c28da129",
            "name": "Solvents, acute toxic effect",
            "category": "diseases"
          }
        ]
      },
      "processes": {
        "original_name": "Processes",
        "value": "Industrial Processes with risk of exposure: Metal Degreasing Painting (Solvents) Semiconductor Manufacturing Silk-Screen Printing Working with Glues and Adhesives",
        "links": [
          {
            "text": "Metal Degreasing",
            "url": "https://haz-map.com/Processes/9"
          },
          {
            "text": "Painting (Solvents)",
            "url": "https://haz-map.com/Processes/142"
          },
          {
            "text": "Semiconductor Manufacturing",
            "url": "https://haz-map.com/Processes/97"
          },
          {
            "text": "Silk-Screen Printing",
            "url": "https://haz-map.com/Processes/257"
          },
          {
            "text": "Working with Glues and Adhesives",
            "url": "https://haz-map.com/Processes/155"
          }
        ],
        "cross_references": [
          {
            "type": "url_match",
            "text": "Metal Degreasing",
            "url": "https://haz-map.com/Processes/9",
            "confidence": 1.0,
            "uuid": "7f7d1988-b456-403f-a356-245ce5458f96",
            "name": "Metal Degreasing",
            "category": "processes"
          },
          {
            "type": "url_match",
            "text": "Painting (Solvents)",
            "url": "https://haz-map.com/Processes/142",
            "confidence": 1.0,
            "uuid": "ca747481-4da1-4550-a546-f0d43a41b46c",
            "name": "Painting (Solvents)",
            "category": "processes"
          },
          {
            "type": "url_match",
            "text": "Semiconductor Manufacturing",
            "url": "https://haz-map.com/Processes/97",
            "confidence": 1.0,
            "uuid": "a1adedb7-a724-4539-9aff-c43b42706b89",
            "name": "Semiconductor Manufacturing",
            "category": "processes"
          },
          {
            "type": "url_match",
            "text": "Working with Glues and Adhesives",
            "url": "https://haz-map.com/Processes/155",
            "confidence": 1.0,
            "uuid": "acb9084f-52e8-4687-bd6a-bced94bda834",
            "name": "Working with Glues and Adhesives",
            "category": "processes"
          },
          {
            "type": "name_match",
            "text": "painting",
            "confidence": 1.0,
            "uuid": "19816ce9-9edf-4a86-8e64-b0cbf7dcf520",
            "name": "Painting",
            "url": "https://haz-map.com/Activities/9",
            "category": "activities"
          }
        ]
      }
    }
  },
  "cross_references": [
    {
      "type": "url_match",
      "text": "Encephalopathy, chronic solvent",
      "url": "https://haz-map.com/Diseases/325",
      "confidence": 1.0,
      "uuid": "589ad578-4636-444e-8823-bf2dd0c7aeab",
      "name": "Encephalopathy, chronic solvent",
      "category": "diseases"
    },
    {
      "type": "url_match",
      "text": "Solvents, acute toxic effect",
      "url": "https://haz-map.com/Diseases/326",
      "confidence": 1.0,
      "uuid": "581e90e3-9d0c-45f0-aa6c-3468c28da129",
      "name": "Solvents, acute toxic effect",
      "category": "diseases"
    },
    {
      "type": "url_match",
      "text": "Metal Degreasing",
      "url": "https://haz-map.com/Processes/9",
      "confidence": 1.0,
      "uuid": "7f7d1988-b456-403f-a356-245ce5458f96",
      "name": "Metal Degreasing",
      "category": "processes"
    },
    {
      "type": "url_match",
      "text": "Painting (Solvents)",
      "url": "https://haz-map.com/Processes/142",
      "confidence": 1.0,
      "uuid": "ca747481-4da1-4550-a546-f0d43a41b46c",
      "name": "Painting (Solvents)",
      "category": "processes"
    },
    {
      "type": "url_match",
      "text": "Semiconductor Manufacturing",
      "url": "https://haz-map.com/Processes/97",
      "confidence": 1.0,
      "uuid": "a1adedb7-a724-4539-9aff-c43b42706b89",
      "name": "Semiconductor Manufacturing",
      "category": "processes"
    },
    {
      "type": "url_match",
      "text": "Working with Glues and Adhesives",
      "url": "https://haz-map.com/Processes/155",
      "confidence": 1.0,
      "uuid": "acb9084f-52e8-4687-bd6a-bced94bda834",
      "name": "Working with Glues and Adhesives",
      "category": "processes"
    },
    {
      "type": "name_match",
      "text": "painting",
      "confidence": 1.0,
      "uuid": "19816ce9-9edf-4a86-8e64-b0cbf7dcf520",
      "name": "Painting",
      "url": "https://haz-map.com/Activities/9",
      "category": "activities"
    },
    {
      "type": "name_match",
      "text": "lethargy",
      "confidence": 1.0,
      "uuid": "f3e97992-f086-4114-b2b3-9e38808450cd",
      "name": "lethargy",
      "url": "https://haz-map.com/Findings/46",
      "category": "findings"
    },
    {
      "type": "name_match",
      "text": "dermatitis",
      "confidence": 1.0,
      "uuid": "fe9c05f2-b19f-4ceb-ac7a-ffb7d7a0cae0",
      "name": "dermatitis",
      "url": "https://haz-map.com/Findings/59",
      "category": "findings"
    },
    {
      "type": "name_match",
      "text": "mica",
      "confidence": 1.0,
      "uuid": "433f26f1-c399-4596-b179-ce3843cfd465",
      "name": "Mica",
      "url": "https://haz-map.com/Agents/621",
      "category": "agents"
    },
    {
      "type": "name_match",
      "text": "ash",
      "confidence": 1.0,
      "uuid": "68b360f1-5ad0-4337-bea0-d7adca2961b5",
      "name": "Ash",
      "url": "https://haz-map.com/Agents/965",
      "category": "agents"
    },
    {
      "type": "name_match",
      "text": "ethane",
      "confidence": 1.0,
      "uuid": "5162cc8c-dfb9-4060-81ac-38a8cec7f9dd",
      "name": "Ethane",
      "url": "https://haz-map.com/Agents/1075",
      "category": "agents"
    },
    {
      "type": "name_match",
      "text": "n-methyl-2-pyrrolidone",
      "confidence": 1.0,
      "uuid": "594ab743-d03e-41c0-941f-ac6cb6d7c406",
      "name": "N-Methyl-2-pyrrolidone",
      "url": "https://haz-map.com/Agents/1177",
      "category": "agents"
    },
    {
      "type": "name_match",
      "text": "iron",
      "confidence": 1.0,
      "uuid": "a6101f16-ec31-4d6c-af41-cbdbda5b1c7c",
      "name": "Iron",
      "url": "https://haz-map.com/Agents/1993",
      "category": "agents"
    },
    {
      "type": "name_match",
      "text": "urethane",
      "confidence": 1.0,
      "uuid": "6405f173-6b8a-4d9b-a282-a1a6bf6901fd",
      "name": "Urethane",
      "url": "https://haz-map.com/Agents/2032",
      "category": "agents"
    },
    {
      "type": "name_match",
      "text": "2-pyrrolidone",
      "confidence": 1.0,
      "uuid": "ab75cab5-f15f-40b0-a980-1e25509d9727",
      "name": "2-Pyrrolidone",
      "url": "https://haz-map.com/Agents/3166",
      "category": "agents"
    },
    {
      "type": "name_match",
      "text": "leucine",
      "confidence": 1.0,
      "uuid": "ba733437-a503-4dd6-9f58-9ce7cb505d48",
      "name": "Leucine",
      "url": "https://haz-map.com/Agents/15162",
      "category": "agents"
    },
    {
      "type": "name_match",
      "text": "polyurethane foam",
      "confidence": 1.0,
      "uuid": "5d629a09-0181-43c6-82f5-3148ea4948aa",
      "name": "Polyurethane foam",
      "url": "https://haz-map.com/Agents/16757",
      "category": "agents"
    },
    {
      "type": "fuzzy_match",
      "text": "contact dermatitis",
      "matched_name": "Contact dermatitis, allergic",
      "confidence": 0.7214285714285715,
      "uuid": "c9499de0-9aa1-41bf-8753-cd5b28a63e29",
      "category": "diseases",
      "url": "https://haz-map.com/Diseases/18"
    }
  ],
  "all_links": [
    {
      "text": "Irritant cutaneous reactions to N-methyl-2-pyrrolidone (NMP)",
      "url": "http://www.ncbi.nlm.nih.gov/entrez/query.fcgi?cmd=Retrieve&db=PubMed&list_uids=1451458&dopt=Abstract"
    },
    {
      "text": "Search PubMed",
      "url": "https://www.ncbi.nlm.nih.gov/pubmed?term=N-Methyl-2-pyrrolidone%20AND%20human%5Bmh%5D%20AND%20%28Occupational%20Diseases%20%5Bmh%5D%20OR%20Occupational%20Exposure%20%5Bmh%5D%29%20%20AND%20%28tox%5Bsb%5D%29&cmd=search"
    },
    {
      "text": "ICSC: N-Methyl-2-pyrrolidone",
      "url": "https://www.ilo.org/dyn/icsc/showcard.home"
    },
    {
      "text": "Encephalopathy, chronic solvent",
      "url": "https://haz-map.com/Diseases/325"
    },
    {
      "text": "Solvents, acute toxic effect",
      "url": "https://haz-map.com/Diseases/326"
    },
    {
      "text": "Metal Degreasing",
      "url": "https://haz-map.com/Processes/9"
    },
    {
      "text": "Painting (Solvents)",
      "url": "https://haz-map.com/Processes/142"
    },
    {
      "text": "Semiconductor Manufacturing",
      "url": "https://haz-map.com/Processes/97"
    },
    {
      "text": "Silk-Screen Printing",
      "url": "https://haz-map.com/Processes/257"
    },
    {
      "text": "Working with Glues and Adhesives",
      "url": "https://haz-map.com/Processes/155"
    }
  ]
}