{
  "metadata": {
    "scraped_from": "https://haz-map.com/Agents/2200",
    "entity_name": "MPTP",
    "category": "agents",
    "uuid": "595038d6-d25c-4ba2-bb92-6bf3246cc822",
    "scraped_at": "2025-07-23T19:12:05.020864"
  },
  "parsed_at": "2025-07-24T01:13:32.877072",
  "title": "MPTP",
  "sections": {
    "general": {
      "agent_name": {
        "original_name": "Agent Name",
        "value": "MPTP",
        "links": [],
        "cross_references": [
          {
            "type": "name_match",
            "text": "mptp",
            "confidence": 1.0,
            "uuid": "595038d6-d25c-4ba2-bb92-6bf3246cc822",
            "name": "MPTP",
            "url": "https://haz-map.com/Agents/2200",
            "category": "agents"
          }
        ]
      },
      "cas_number": {
        "original_name": "CAS Number",
        "value": "28289-54-5",
        "links": [],
        "cross_references": []
      },
      "formula": {
        "original_name": "Formula",
        "value": "C12-H15-N",
        "links": [],
        "cross_references": []
      },
      "major_category": {
        "original_name": "Major Category",
        "value": "Nitrogen Compounds",
        "links": [],
        "cross_references": [
          {
            "type": "name_match",
            "text": "nitrogen",
            "confidence": 1.0,
            "uuid": "db5e90a9-06d2-45b9-8b81-f345a89b0bc0",
            "name": "Nitrogen",
            "url": "https://haz-map.com/Agents/1072",
            "category": "agents"
          }
        ]
      },
      "synonyms": {
        "original_name": "Synonyms",
        "value": "1,2,3,6-Tetrahydro-1-methyl-4-phenylpyridine; 1-Methyl-4-phenyl-1,2,3,6-tetrahydropyridine; MPTP; N-Methyl-4-phenyl-1,2,3,6-tetrahydropyridine; [ChemIDplus]",
        "links": [],
        "cross_references": [
          {
            "type": "name_match",
            "text": "pyridine",
            "confidence": 1.0,
            "uuid": "a2d916a4-844b-4df6-9be5-868b2b364d71",
            "name": "Pyridine",
            "url": "https://haz-map.com/Agents/616",
            "category": "agents"
          },
          {
            "type": "name_match",
            "text": "mptp",
            "confidence": 1.0,
            "uuid": "595038d6-d25c-4ba2-bb92-6bf3246cc822",
            "name": "MPTP",
            "url": "https://haz-map.com/Agents/2200",
            "category": "agents"
          },
          {
            "type": "name_match",
            "text": "1,2,3,6-tetrahydropyridine",
            "confidence": 1.0,
            "uuid": "7f96b610-5998-458e-b36e-e372c4ea8b73",
            "name": "1,2,3,6-Tetrahydropyridine",
            "url": "https://haz-map.com/Agents/7882",
            "category": "agents"
          },
          {
            "type": "name_match",
            "text": "4-phenylpyridine",
            "confidence": 1.0,
            "uuid": "56006909-8010-4a1f-8472-a7427dfb8831",
            "name": "4-Phenylpyridine",
            "url": "https://haz-map.com/Agents/11221",
            "category": "agents"
          }
        ]
      },
      "category": {
        "original_name": "Category",
        "value": "Pyridines",
        "links": [],
        "cross_references": [
          {
            "type": "name_match",
            "text": "pyridine",
            "confidence": 1.0,
            "uuid": "a2d916a4-844b-4df6-9be5-868b2b364d71",
            "name": "Pyridine",
            "url": "https://haz-map.com/Agents/616",
            "category": "agents"
          }
        ]
      },
      "description": {
        "original_name": "Description",
        "value": "Crystals; [HSDB]",
        "links": [],
        "cross_references": []
      },
      "sourcesuses": {
        "original_name": "Sources/Uses",
        "value": "A contaminant produced during the synthesis of MPPP, a synthetic heroin; it causes irreversible parkinsonism in primates and is used in research laboratories; MPTP is converted to the toxic metabolite MPP+ in the brain where it selectively destroys cells in the substantia nigra. [Merck Index #6294]",
        "links": [],
        "cross_references": [
          {
            "type": "name_match",
            "text": "mptp",
            "confidence": 1.0,
            "uuid": "595038d6-d25c-4ba2-bb92-6bf3246cc822",
            "name": "MPTP",
            "url": "https://haz-map.com/Agents/2200",
            "category": "agents"
          }
        ]
      },
      "comments": {
        "original_name": "Comments",
        "value": "The toxic effects of MPTP were discovered in 1982 when several injection drug users in San Jose, California developed \"frozen addict\" syndrome within a week of using MPPP contaminated with MPTP. The syndrome resembled idiopathic Parkinson disease, and patients showed some improvement after treatment with L-dopa. [Ford, p. 634-5] MPTP does not cause occupational parkinsonism, but it causes acute parkinsonism in humans and experimental animals after injection. The cumulative doses in animals are in the range of 1.5 to 410 mg/kg depending on the species. [See Reference #1}",
        "links": [],
        "cross_references": [
          {
            "type": "name_match",
            "text": "mptp",
            "confidence": 1.0,
            "uuid": "595038d6-d25c-4ba2-bb92-6bf3246cc822",
            "name": "MPTP",
            "url": "https://haz-map.com/Agents/2200",
            "category": "agents"
          }
        ]
      },
      "reference_link_1": {
        "original_name": "Reference Link #1",
        "value": "Animal models of Parkinson's disease: an empirical...[J Neural Transm. 1996] - PubMed Result",
        "links": [
          {
            "text": "Animal models of Parkinson's disease: an empirical...[J Neural Transm. 1996] - PubMed Result",
            "url": "http://www.ncbi.nlm.nih.gov/pubmed/9013391?ordinalpos=101&itool=EntrezSystem2.PEntrez.Pubmed.Pubmed_ResultsPanel.Pubmed_RVDocSum"
          }
        ],
        "cross_references": []
      },
      "biomedical_references": {
        "original_name": "Biomedical References",
        "value": "Search PubMed",
        "links": [
          {
            "text": "Search PubMed",
            "url": "https://www.ncbi.nlm.nih.gov/pubmed?term=MPTP%20AND%20human%5Bmh%5D%20AND%20%28Occupational%20Diseases%20%5Bmh%5D%20OR%20Occupational%20Exposure%20%5Bmh%5D%29%20%20AND%20%28tox%5Bsb%5D%29&cmd=search"
          }
        ],
        "cross_references": []
      }
    },
    "exposure_assessment": {
      "vapor_pressure": {
        "original_name": "Vapor Pressure",
        "value": "0.00945 mm Hg",
        "links": [],
        "cross_references": []
      },
      "explanatory_notes": {
        "original_name": "Explanatory Notes",
        "value": "VP from ChemIDplus;",
        "links": [],
        "cross_references": []
      }
    },
    "adverse_effects": {
      "neurotoxin": {
        "original_name": "Neurotoxin",
        "value": "Parkinsonism",
        "links": [],
        "cross_references": []
      }
    },
    "diseases_processes_and_activities_linked_to_this_agent": {
      "other_information": {
        "original_name": "Other Information",
        "value": "No other related information on this agent was found.",
        "links": [],
        "cross_references": []
      }
    }
  },
  "cross_references": [
    {
      "type": "name_match",
      "text": "pyridine",
      "confidence": 1.0,
      "uuid": "a2d916a4-844b-4df6-9be5-868b2b364d71",
      "name": "Pyridine",
      "url": "https://haz-map.com/Agents/616",
      "category": "agents"
    },
    {
      "type": "name_match",
      "text": "nitrogen",
      "confidence": 1.0,
      "uuid": "db5e90a9-06d2-45b9-8b81-f345a89b0bc0",
      "name": "Nitrogen",
      "url": "https://haz-map.com/Agents/1072",
      "category": "agents"
    },
    {
      "type": "name_match",
      "text": "mptp",
      "confidence": 1.0,
      "uuid": "595038d6-d25c-4ba2-bb92-6bf3246cc822",
      "name": "MPTP",
      "url": "https://haz-map.com/Agents/2200",
      "category": "agents"
    },
    {
      "type": "name_match",
      "text": "1,2,3,6-tetrahydropyridine",
      "confidence": 1.0,
      "uuid": "7f96b610-5998-458e-b36e-e372c4ea8b73",
      "name": "1,2,3,6-Tetrahydropyridine",
      "url": "https://haz-map.com/Agents/7882",
      "category": "agents"
    },
    {
      "type": "name_match",
      "text": "4-phenylpyridine",
      "confidence": 1.0,
      "uuid": "56006909-8010-4a1f-8472-a7427dfb8831",
      "name": "4-Phenylpyridine",
      "url": "https://haz-map.com/Agents/11221",
      "category": "agents"
    }
  ],
  "all_links": [
    {
      "text": "Animal models of Parkinson's disease: an empirical...[J Neural Transm. 1996] - PubMed Result",
      "url": "http://www.ncbi.nlm.nih.gov/pubmed/9013391?ordinalpos=101&itool=EntrezSystem2.PEntrez.Pubmed.Pubmed_ResultsPanel.Pubmed_RVDocSum"
    },
    {
      "text": "Search PubMed",
      "url": "https://www.ncbi.nlm.nih.gov/pubmed?term=MPTP%20AND%20human%5Bmh%5D%20AND%20%28Occupational%20Diseases%20%5Bmh%5D%20OR%20Occupational%20Exposure%20%5Bmh%5D%29%20%20AND%20%28tox%5Bsb%5D%29&cmd=search"
    }
  ]
}