{
  "metadata": {
    "scraped_from": "https://haz-map.com/Agents/4999",
    "entity_name": "Diphenyl carbonate",
    "category": "agents",
    "uuid": "596f4057-cce8-4b27-abb1-9a3deff6333b",
    "scraped_at": "2025-07-23T19:47:47.853817"
  },
  "parsed_at": "2025-07-24T01:02:02.232968",
  "title": "Diphenyl carbonate",
  "sections": {
    "general": {
      "agent_name": {
        "original_name": "Agent Name",
        "value": "Diphenyl carbonate",
        "links": [],
        "cross_references": [
          {
            "type": "name_match",
            "text": "carbon",
            "confidence": 1.0,
            "uuid": "b53f8815-ee80-40ef-b4aa-3b000e17dab5",
            "name": "Carbon",
            "url": "https://haz-map.com/Agents/1891",
            "category": "agents"
          },
          {
            "type": "name_match",
            "text": "diphenyl carbonate",
            "confidence": 1.0,
            "uuid": "596f4057-cce8-4b27-abb1-9a3deff6333b",
            "name": "Diphenyl carbonate",
            "url": "https://haz-map.com/Agents/4999",
            "category": "agents"
          }
        ]
      },
      "cas_number": {
        "original_name": "CAS Number",
        "value": "102-09-0",
        "links": [],
        "cross_references": []
      },
      "formula": {
        "original_name": "Formula",
        "value": "C13-H10-O3",
        "links": [],
        "cross_references": []
      },
      "major_category": {
        "original_name": "Major Category",
        "value": "Other Classes",
        "links": [],
        "cross_references": []
      },
      "synonyms": {
        "original_name": "Synonyms",
        "value": "Carbonic acid, diphenyl ester; Phenyl carbonate; Phenyl carbonate ((PhO)2CO); [ChemIDplus]",
        "links": [],
        "cross_references": [
          {
            "type": "name_match",
            "text": "carbon",
            "confidence": 1.0,
            "uuid": "b53f8815-ee80-40ef-b4aa-3b000e17dab5",
            "name": "Carbon",
            "url": "https://haz-map.com/Agents/1891",
            "category": "agents"
          },
          {
            "type": "name_match",
            "text": "carbonic acid",
            "confidence": 1.0,
            "uuid": "3ab00515-332f-4177-a200-79dd593298a4",
            "name": "Carbonic acid",
            "url": "https://haz-map.com/Agents/12760",
            "category": "agents"
          }
        ]
      },
      "category": {
        "original_name": "Category",
        "value": "Other Aromatic Compounds",
        "links": [],
        "cross_references": []
      },
      "description": {
        "original_name": "Description",
        "value": "White solid; [Hawley] White powder; [MSDSonline]",
        "links": [],
        "cross_references": []
      },
      "sourcesuses": {
        "original_name": "Sources/Uses",
        "value": "Used in the synthesis of polycarbonate resins; as a reagent for the conversion of amines into isocyanates; as a plasticizer and solvent; as a solvent for nitrocellulose (in molten state); [HSDB]",
        "links": [],
        "cross_references": [
          {
            "type": "name_match",
            "text": "cellulose",
            "confidence": 1.0,
            "uuid": "b9b1b190-806c-4622-8201-8f09b0a87eca",
            "name": "Cellulose",
            "url": "https://haz-map.com/Agents/347",
            "category": "agents"
          },
          {
            "type": "name_match",
            "text": "carbon",
            "confidence": 1.0,
            "uuid": "b53f8815-ee80-40ef-b4aa-3b000e17dab5",
            "name": "Carbon",
            "url": "https://haz-map.com/Agents/1891",
            "category": "agents"
          },
          {
            "type": "name_match",
            "text": "polycarbonate",
            "confidence": 1.0,
            "uuid": "08897d6d-7a56-4db5-be25-1bc64c6ce8b2",
            "name": "Polycarbonate",
            "url": "https://haz-map.com/Agents/16696",
            "category": "agents"
          }
        ]
      },
      "comments": {
        "original_name": "Comments",
        "value": "A tumorigen; Causes convulsions in lethal-dose feeding studies of rats; [RTECS] An irritant; Effects in high-dose animal studies include convulsions; [MSDSonline]",
        "links": [],
        "cross_references": [
          {
            "type": "name_match",
            "text": "convulsion",
            "confidence": 1.0,
            "uuid": "af2c36f8-707a-48e3-a62b-1aa07adc9b72",
            "name": "convulsion",
            "url": "https://haz-map.com/Findings/14",
            "category": "findings"
          }
        ]
      },
      "biomedical_references": {
        "original_name": "Biomedical References",
        "value": "Search PubMed",
        "links": [
          {
            "text": "Search PubMed",
            "url": "https://www.ncbi.nlm.nih.gov/pubmed?term=Diphenyl+carbonate%20AND%20human%5Bmh%5D%20AND%20%28Occupational%20Diseases%20%5Bmh%5D%20OR%20Occupational%20Exposure%20%5Bmh%5D%29%20%20AND%20%28tox%5Bsb%5D%29&cmd=search"
          }
        ],
        "cross_references": []
      }
    },
    "exposure_assessment": {
      "vapor_pressure": {
        "original_name": "Vapor Pressure",
        "value": "0.0001 mm Hg",
        "links": [],
        "cross_references": []
      }
    },
    "adverse_effects": {
      "neurotoxin": {
        "original_name": "Neurotoxin",
        "value": "Other CNS neurotoxin",
        "links": [],
        "cross_references": []
      }
    },
    "diseases_processes_and_activities_linked_to_this_agent": {
      "other_information": {
        "original_name": "Other Information",
        "value": "No other related information on this agent was found.",
        "links": [],
        "cross_references": []
      }
    }
  },
  "cross_references": [
    {
      "type": "name_match",
      "text": "convulsion",
      "confidence": 1.0,
      "uuid": "af2c36f8-707a-48e3-a62b-1aa07adc9b72",
      "name": "convulsion",
      "url": "https://haz-map.com/Findings/14",
      "category": "findings"
    },
    {
      "type": "name_match",
      "text": "cellulose",
      "confidence": 1.0,
      "uuid": "b9b1b190-806c-4622-8201-8f09b0a87eca",
      "name": "Cellulose",
      "url": "https://haz-map.com/Agents/347",
      "category": "agents"
    },
    {
      "type": "name_match",
      "text": "carbon",
      "confidence": 1.0,
      "uuid": "b53f8815-ee80-40ef-b4aa-3b000e17dab5",
      "name": "Carbon",
      "url": "https://haz-map.com/Agents/1891",
      "category": "agents"
    },
    {
      "type": "name_match",
      "text": "diphenyl carbonate",
      "confidence": 1.0,
      "uuid": "596f4057-cce8-4b27-abb1-9a3deff6333b",
      "name": "Diphenyl carbonate",
      "url": "https://haz-map.com/Agents/4999",
      "category": "agents"
    },
    {
      "type": "name_match",
      "text": "carbonic acid",
      "confidence": 1.0,
      "uuid": "3ab00515-332f-4177-a200-79dd593298a4",
      "name": "Carbonic acid",
      "url": "https://haz-map.com/Agents/12760",
      "category": "agents"
    },
    {
      "type": "name_match",
      "text": "polycarbonate",
      "confidence": 1.0,
      "uuid": "08897d6d-7a56-4db5-be25-1bc64c6ce8b2",
      "name": "Polycarbonate",
      "url": "https://haz-map.com/Agents/16696",
      "category": "agents"
    }
  ],
  "all_links": [
    {
      "text": "Search PubMed",
      "url": "https://www.ncbi.nlm.nih.gov/pubmed?term=Diphenyl+carbonate%20AND%20human%5Bmh%5D%20AND%20%28Occupational%20Diseases%20%5Bmh%5D%20OR%20Occupational%20Exposure%20%5Bmh%5D%29%20%20AND%20%28tox%5Bsb%5D%29&cmd=search"
    }
  ]
}