{
  "metadata": {
    "scraped_from": "https://haz-map.com/Agents/5582",
    "entity_name": "Hydroxyethyl carbamate",
    "category": "agents",
    "uuid": "5c20cecd-5689-4fb3-8fd8-820ed00d7c8e",
    "scraped_at": "2025-07-23T19:53:57.054633"
  },
  "parsed_at": "2025-07-24T01:16:10.026545",
  "title": "Hydroxyethyl carbamate",
  "sections": {
    "general": {
      "agent_name": {
        "original_name": "Agent Name",
        "value": "Hydroxyethyl carbamate",
        "links": [],
        "cross_references": [
          {
            "type": "name_match",
            "text": "hydroxyethyl carbamate",
            "confidence": 1.0,
            "uuid": "5c20cecd-5689-4fb3-8fd8-820ed00d7c8e",
            "name": "Hydroxyethyl carbamate",
            "url": "https://haz-map.com/Agents/5582",
            "category": "agents"
          }
        ]
      },
      "cas_number": {
        "original_name": "CAS Number",
        "value": "5395-01-7",
        "links": [],
        "cross_references": []
      },
      "formula": {
        "original_name": "Formula",
        "value": "C3-H7-N-O3",
        "links": [],
        "cross_references": []
      },
      "major_category": {
        "original_name": "Major Category",
        "value": "Other Classes",
        "links": [],
        "cross_references": []
      },
      "synonyms": {
        "original_name": "Synonyms",
        "value": "1,2-Ethanediol, monocarbamate; 2-Hydroxyethyl carbamate; 2-Hydroxyethylcarbamate; Carbamic acid, 2-hydroxyethyl ester; Ethylene glycol monocarbamate; beta-Hydroxyethylcarbamate; beta-Hydroxyethyl carbamate; [ChemIDplus]",
        "links": [],
        "cross_references": [
          {
            "type": "name_match",
            "text": "ethylene glycol",
            "confidence": 1.0,
            "uuid": "99589035-d71c-415a-914c-81c7a166be11",
            "name": "Ethylene glycol",
            "url": "https://haz-map.com/Agents/488",
            "category": "agents"
          },
          {
            "type": "name_match",
            "text": "ethane",
            "confidence": 1.0,
            "uuid": "5162cc8c-dfb9-4060-81ac-38a8cec7f9dd",
            "name": "Ethane",
            "url": "https://haz-map.com/Agents/1075",
            "category": "agents"
          },
          {
            "type": "name_match",
            "text": "ethylene",
            "confidence": 1.0,
            "uuid": "958eacc0-5135-4b62-bb93-6df972bf552f",
            "name": "Ethylene",
            "url": "https://haz-map.com/Agents/1076",
            "category": "agents"
          },
          {
            "type": "name_match",
            "text": "hydroxyethyl carbamate",
            "confidence": 1.0,
            "uuid": "5c20cecd-5689-4fb3-8fd8-820ed00d7c8e",
            "name": "Hydroxyethyl carbamate",
            "url": "https://haz-map.com/Agents/5582",
            "category": "agents"
          }
        ]
      },
      "category": {
        "original_name": "Category",
        "value": "Carbamic Acid Esters",
        "links": [],
        "cross_references": []
      },
      "description": {
        "original_name": "Description",
        "value": "Solid or pale yellow liquid; Deliquescent; May solidify below 30 deg C; mp = 43 deg C; [HSDB]",
        "links": [],
        "cross_references": []
      },
      "sourcesuses": {
        "original_name": "Sources/Uses",
        "value": "Used as a reactive intermediate in the manufacture of automotive coatings; formerly to make textile permanent press finishes; [HSDB]",
        "links": [],
        "cross_references": []
      },
      "comments": {
        "original_name": "Comments",
        "value": "A mutagen and reproductive effector; Lethal dose intraperitoneally (mouse) >500 mg/kg; [RTECS]",
        "links": [],
        "cross_references": []
      },
      "biomedical_references": {
        "original_name": "Biomedical References",
        "value": "Search PubMed",
        "links": [
          {
            "text": "Search PubMed",
            "url": "https://www.ncbi.nlm.nih.gov/pubmed?term=Hydroxyethyl+carbamate%20AND%20human%5Bmh%5D%20AND%20%28Occupational%20Diseases%20%5Bmh%5D%20OR%20Occupational%20Exposure%20%5Bmh%5D%29%20%20AND%20%28tox%5Bsb%5D%29&cmd=search"
          }
        ],
        "cross_references": []
      }
    },
    "exposure_assessment": {
      "vapor_pressure": {
        "original_name": "Vapor Pressure",
        "value": "2.55 mm Hg",
        "links": [],
        "cross_references": []
      }
    },
    "diseases_processes_and_activities_linked_to_this_agent": {
      "processes": {
        "original_name": "Processes",
        "value": "Industrial Processes with risk of exposure: Textiles (Printing, Dyeing, or Finishing)",
        "links": [
          {
            "text": "Textiles (Printing, Dyeing, or Finishing)",
            "url": "https://haz-map.com/Processes/235"
          }
        ],
        "cross_references": []
      }
    }
  },
  "cross_references": [
    {
      "type": "name_match",
      "text": "ethylene glycol",
      "confidence": 1.0,
      "uuid": "99589035-d71c-415a-914c-81c7a166be11",
      "name": "Ethylene glycol",
      "url": "https://haz-map.com/Agents/488",
      "category": "agents"
    },
    {
      "type": "name_match",
      "text": "ethane",
      "confidence": 1.0,
      "uuid": "5162cc8c-dfb9-4060-81ac-38a8cec7f9dd",
      "name": "Ethane",
      "url": "https://haz-map.com/Agents/1075",
      "category": "agents"
    },
    {
      "type": "name_match",
      "text": "ethylene",
      "confidence": 1.0,
      "uuid": "958eacc0-5135-4b62-bb93-6df972bf552f",
      "name": "Ethylene",
      "url": "https://haz-map.com/Agents/1076",
      "category": "agents"
    },
    {
      "type": "name_match",
      "text": "hydroxyethyl carbamate",
      "confidence": 1.0,
      "uuid": "5c20cecd-5689-4fb3-8fd8-820ed00d7c8e",
      "name": "Hydroxyethyl carbamate",
      "url": "https://haz-map.com/Agents/5582",
      "category": "agents"
    }
  ],
  "all_links": [
    {
      "text": "Search PubMed",
      "url": "https://www.ncbi.nlm.nih.gov/pubmed?term=Hydroxyethyl+carbamate%20AND%20human%5Bmh%5D%20AND%20%28Occupational%20Diseases%20%5Bmh%5D%20OR%20Occupational%20Exposure%20%5Bmh%5D%29%20%20AND%20%28tox%5Bsb%5D%29&cmd=search"
    },
    {
      "text": "Textiles (Printing, Dyeing, or Finishing)",
      "url": "https://haz-map.com/Processes/235"
    }
  ]
}