{
  "metadata": {
    "scraped_from": "https://haz-map.com/Agents/4009",
    "entity_name": "Bromopropylate",
    "category": "agents",
    "uuid": "5c473c00-d89e-4cda-bea9-e647ad4f0928",
    "scraped_at": "2025-07-23T19:35:43.057355"
  },
  "parsed_at": "2025-07-24T00:55:24.922695",
  "title": "Bromopropylate",
  "sections": {
    "general": {
      "agent_name": {
        "original_name": "Agent Name",
        "value": "Bromopropylate",
        "links": [],
        "cross_references": [
          {
            "type": "name_match",
            "text": "bromopropylate",
            "confidence": 1.0,
            "uuid": "5c473c00-d89e-4cda-bea9-e647ad4f0928",
            "name": "Bromopropylate",
            "url": "https://haz-map.com/Agents/4009",
            "category": "agents"
          }
        ]
      },
      "cas_number": {
        "original_name": "CAS Number",
        "value": "18181-80-1",
        "links": [],
        "cross_references": []
      },
      "formula": {
        "original_name": "Formula",
        "value": "C17-H16-Br2-O3",
        "links": [],
        "cross_references": []
      },
      "major_category": {
        "original_name": "Major Category",
        "value": "Pesticides",
        "links": [],
        "cross_references": []
      },
      "synonyms": {
        "original_name": "Synonyms",
        "value": "1-Methylethyl 4-bromo-alpha-(4-bromophenyl)-alpha-hydroxybenzeneacetate; 4,4'-Dibromobenzilic acid isopropyl ester; 4-Bromo-alpha-(4-bromophenyl)-alpha-hydroxybenzeneacetic acid 1-methyl ethyl ester; Acarol; Ascarol 2E; Benzeneacetic acid, 4-bromo-alpha-(4-bromophenyl)-alpha-hydroxy-, 1-methylethyl ester; Benzeneacetic acid, 4-bromo-alpha-(4-bromophenyl)-alpha-hydroxy-1-methylethyl ester (9CI); Benzilic acid, 4,4'-dibromo-, isopropyl ester (8CI); Ciba-Geigy GS 19851; ENT 27552; Folbex VA; GS-19851; Geigy 19851; Geigy GS-19851; Isopropyl 4,4'-dibromobenzilate; Isopropyl bromobenzilate; Isopropyl dibromobenzilate; Nanogen Index Code BST (1-012); Neoron; Phenisobromolate; [ChemIDplus]",
        "links": [],
        "cross_references": [
          {
            "type": "name_match",
            "text": "benzene",
            "confidence": 1.0,
            "uuid": "b05124de-5f34-4c14-8f04-ccb20c3780d9",
            "name": "Benzene",
            "url": "https://haz-map.com/Agents/5",
            "category": "agents"
          },
          {
            "type": "name_match",
            "text": "acetic acid",
            "confidence": 1.0,
            "uuid": "0905c6e4-df84-4895-a92d-658819239bbd",
            "name": "Acetic acid",
            "url": "https://haz-map.com/Agents/207",
            "category": "agents"
          },
          {
            "type": "name_match",
            "text": "benzil",
            "confidence": 1.0,
            "uuid": "09aecf89-f193-4e35-b1cb-48004196e00d",
            "name": "Benzil",
            "url": "https://haz-map.com/Agents/12189",
            "category": "agents"
          },
          {
            "type": "name_match",
            "text": "benzilic acid",
            "confidence": 1.0,
            "uuid": "3757aa8c-8465-4c0b-a163-305432412096",
            "name": "Benzilic acid",
            "url": "https://haz-map.com/Agents/20294",
            "category": "agents"
          }
        ]
      },
      "category": {
        "original_name": "Category",
        "value": "Other Insecticides",
        "links": [],
        "cross_references": []
      },
      "description": {
        "original_name": "Description",
        "value": "Solid; [Merck Index] White solid; [HSDB] Colorless solid; [MSDSonline]",
        "links": [],
        "cross_references": []
      },
      "sourcesuses": {
        "original_name": "Sources/Uses",
        "value": "Used as an acaricide for control of a wide variety of mites on citrus and deciduous fruit; Not currently registered with the EPA for use in the US; [HSDB]",
        "links": [],
        "cross_references": []
      },
      "comments": {
        "original_name": "Comments",
        "value": "In high-dose animal studies, causes muscle weakness, ataxia, and respiratory depression; [RTECS]",
        "links": [],
        "cross_references": [
          {
            "type": "name_match",
            "text": "weakness",
            "confidence": 1.0,
            "uuid": "44bfccd5-0f7a-48f7-b4eb-de9a6ef23064",
            "name": "weakness",
            "url": "https://haz-map.com/Findings/83",
            "category": "findings"
          }
        ]
      },
      "reference_link_1": {
        "original_name": "Reference Link #1",
        "value": "INCHEM JMPR: Bromopropylate",
        "links": [
          {
            "text": "INCHEM JMPR: Bromopropylate",
            "url": "http://www.inchem.org/documents/jmpr/jmpmono/v93pr03.htm"
          }
        ],
        "cross_references": [
          {
            "type": "name_match",
            "text": "bromopropylate",
            "confidence": 1.0,
            "uuid": "5c473c00-d89e-4cda-bea9-e647ad4f0928",
            "name": "Bromopropylate",
            "url": "https://haz-map.com/Agents/4009",
            "category": "agents"
          }
        ]
      },
      "biomedical_references": {
        "original_name": "Biomedical References",
        "value": "Search PubMed",
        "links": [
          {
            "text": "Search PubMed",
            "url": "https://www.ncbi.nlm.nih.gov/pubmed?term=Bromopropylate%20AND%20human%5Bmh%5D%20AND%20%28Occupational%20Diseases%20%5Bmh%5D%20OR%20Occupational%20Exposure%20%5Bmh%5D%29%20%20AND%20%28tox%5Bsb%5D%29&cmd=search"
          }
        ],
        "cross_references": []
      }
    },
    "exposure_assessment": {
      "vapor_pressure": {
        "original_name": "Vapor Pressure",
        "value": "5.1E-08 mm Hg",
        "links": [],
        "cross_references": []
      }
    },
    "adverse_effects": {
      "hepatotoxin": {
        "original_name": "Hepatotoxin",
        "value": "Hepatoxic (a) from occupational exposure (secondary effect) or (b) in animal studies or in humans after ingestion",
        "links": [],
        "cross_references": []
      }
    },
    "diseases_processes_and_activities_linked_to_this_agent": {
      "processes": {
        "original_name": "Processes",
        "value": "Industrial Processes with risk of exposure: Farming (Pesticides)",
        "links": [
          {
            "text": "Farming (Pesticides)",
            "url": "https://haz-map.com/Processes/218"
          }
        ],
        "cross_references": [
          {
            "type": "url_match",
            "text": "Farming (Pesticides)",
            "url": "https://haz-map.com/Processes/218",
            "confidence": 1.0,
            "uuid": "cf1e5815-c9bb-4917-82a5-391848170b7e",
            "name": "Farming (Pesticides)",
            "category": "processes"
          }
        ]
      }
    }
  },
  "cross_references": [
    {
      "type": "url_match",
      "text": "Farming (Pesticides)",
      "url": "https://haz-map.com/Processes/218",
      "confidence": 1.0,
      "uuid": "cf1e5815-c9bb-4917-82a5-391848170b7e",
      "name": "Farming (Pesticides)",
      "category": "processes"
    },
    {
      "type": "name_match",
      "text": "weakness",
      "confidence": 1.0,
      "uuid": "44bfccd5-0f7a-48f7-b4eb-de9a6ef23064",
      "name": "weakness",
      "url": "https://haz-map.com/Findings/83",
      "category": "findings"
    },
    {
      "type": "name_match",
      "text": "benzene",
      "confidence": 1.0,
      "uuid": "b05124de-5f34-4c14-8f04-ccb20c3780d9",
      "name": "Benzene",
      "url": "https://haz-map.com/Agents/5",
      "category": "agents"
    },
    {
      "type": "name_match",
      "text": "acetic acid",
      "confidence": 1.0,
      "uuid": "0905c6e4-df84-4895-a92d-658819239bbd",
      "name": "Acetic acid",
      "url": "https://haz-map.com/Agents/207",
      "category": "agents"
    },
    {
      "type": "name_match",
      "text": "bromopropylate",
      "confidence": 1.0,
      "uuid": "5c473c00-d89e-4cda-bea9-e647ad4f0928",
      "name": "Bromopropylate",
      "url": "https://haz-map.com/Agents/4009",
      "category": "agents"
    },
    {
      "type": "name_match",
      "text": "benzil",
      "confidence": 1.0,
      "uuid": "09aecf89-f193-4e35-b1cb-48004196e00d",
      "name": "Benzil",
      "url": "https://haz-map.com/Agents/12189",
      "category": "agents"
    },
    {
      "type": "name_match",
      "text": "benzilic acid",
      "confidence": 1.0,
      "uuid": "3757aa8c-8465-4c0b-a163-305432412096",
      "name": "Benzilic acid",
      "url": "https://haz-map.com/Agents/20294",
      "category": "agents"
    }
  ],
  "all_links": [
    {
      "text": "INCHEM JMPR: Bromopropylate",
      "url": "http://www.inchem.org/documents/jmpr/jmpmono/v93pr03.htm"
    },
    {
      "text": "Search PubMed",
      "url": "https://www.ncbi.nlm.nih.gov/pubmed?term=Bromopropylate%20AND%20human%5Bmh%5D%20AND%20%28Occupational%20Diseases%20%5Bmh%5D%20OR%20Occupational%20Exposure%20%5Bmh%5D%29%20%20AND%20%28tox%5Bsb%5D%29&cmd=search"
    },
    {
      "text": "Farming (Pesticides)",
      "url": "https://haz-map.com/Processes/218"
    }
  ]
}