{
  "metadata": {
    "scraped_from": "https://haz-map.com/Agents/5480",
    "entity_name": "Halowax 1031",
    "category": "agents",
    "uuid": "5cbf23f4-c085-4443-9ac1-5666580c7daf",
    "scraped_at": "2025-07-23T19:52:48.263878"
  },
  "parsed_at": "2025-07-24T01:07:57.507578",
  "title": "Halowax 1031",
  "sections": {
    "general": {
      "agent_name": {
        "original_name": "Agent Name",
        "value": "Halowax 1031",
        "links": [],
        "cross_references": [
          {
            "type": "name_match",
            "text": "halowax 1031",
            "confidence": 1.0,
            "uuid": "5cbf23f4-c085-4443-9ac1-5666580c7daf",
            "name": "Halowax 1031",
            "url": "https://haz-map.com/Agents/5480",
            "category": "agents"
          }
        ]
      },
      "cas_number": {
        "original_name": "CAS Number",
        "value": "25586-43-0",
        "links": [],
        "cross_references": []
      },
      "formula": {
        "original_name": "Formula",
        "value": "C10-H7-Cl",
        "links": [],
        "cross_references": []
      },
      "major_category": {
        "original_name": "Major Category",
        "value": "Other Classes",
        "links": [],
        "cross_references": []
      },
      "synonyms": {
        "original_name": "Synonyms",
        "value": "Chloronaphthalene; Monochloronaphthalene; Naphthalene, chloro-; [ChemIDplus]",
        "links": [],
        "cross_references": [
          {
            "type": "name_match",
            "text": "naphthalene",
            "confidence": 1.0,
            "uuid": "433cf489-5423-4297-a38e-6e755a9d458e",
            "name": "Naphthalene",
            "url": "https://haz-map.com/Agents/46",
            "category": "agents"
          },
          {
            "type": "name_match",
            "text": "ht",
            "confidence": 1.0,
            "uuid": "764df367-8d53-4a11-81a2-31ccfe122a8d",
            "name": "HT",
            "url": "https://haz-map.com/Agents/2168",
            "category": "agents"
          }
        ]
      },
      "category": {
        "original_name": "Category",
        "value": "Halowaxes",
        "links": [],
        "cross_references": []
      },
      "description": {
        "original_name": "Description",
        "value": "Liquid; [HSDB]",
        "links": [],
        "cross_references": []
      },
      "sourcesuses": {
        "original_name": "Sources/Uses",
        "value": "Used as oil additive (clean sludge and deposits); with Halowax 1000 in textile dyeing; [HSDB] See \"CHLORINATED NAPHTHALENES.\"",
        "links": [],
        "cross_references": [
          {
            "type": "name_match",
            "text": "naphthalene",
            "confidence": 1.0,
            "uuid": "433cf489-5423-4297-a38e-6e755a9d458e",
            "name": "Naphthalene",
            "url": "https://haz-map.com/Agents/46",
            "category": "agents"
          },
          {
            "type": "name_match",
            "text": "ht",
            "confidence": 1.0,
            "uuid": "764df367-8d53-4a11-81a2-31ccfe122a8d",
            "name": "HT",
            "url": "https://haz-map.com/Agents/2168",
            "category": "agents"
          },
          {
            "type": "name_match",
            "text": "halowax 1000",
            "confidence": 1.0,
            "uuid": "8b43ac7f-646f-453a-88ea-178707694d80",
            "name": "Halowax 1000",
            "url": "https://haz-map.com/Agents/5476",
            "category": "agents"
          },
          {
            "type": "name_match",
            "text": "chlorinated naphthalenes",
            "confidence": 1.0,
            "uuid": "1a8161f5-f44d-4447-b55a-ee85b9c75148",
            "name": "CHLORINATED NAPHTHALENES",
            "url": "https://haz-map.com/Agents/9425",
            "category": "agents"
          },
          {
            "type": "name_match",
            "text": "chlorin",
            "confidence": 1.0,
            "uuid": "4a566fec-ec7e-42b0-9f14-ec586335e694",
            "name": "Chlorin",
            "url": "https://haz-map.com/Agents/20422",
            "category": "agents"
          }
        ]
      },
      "comments": {
        "original_name": "Comments",
        "value": "Composed of 95% monochlorinated naphthalenes and 5% dichloronaphthalenes; Total of 22% chlorine content; [HSDB] See \"CHLORINATED NAPHTHALENES.\"",
        "links": [],
        "cross_references": [
          {
            "type": "name_match",
            "text": "naphthalene",
            "confidence": 1.0,
            "uuid": "433cf489-5423-4297-a38e-6e755a9d458e",
            "name": "Naphthalene",
            "url": "https://haz-map.com/Agents/46",
            "category": "agents"
          },
          {
            "type": "name_match",
            "text": "chlorine",
            "confidence": 1.0,
            "uuid": "8a67a545-61fb-4d71-865e-ff2725a0b999",
            "name": "Chlorine",
            "url": "https://haz-map.com/Agents/89",
            "category": "agents"
          },
          {
            "type": "name_match",
            "text": "ht",
            "confidence": 1.0,
            "uuid": "764df367-8d53-4a11-81a2-31ccfe122a8d",
            "name": "HT",
            "url": "https://haz-map.com/Agents/2168",
            "category": "agents"
          },
          {
            "type": "name_match",
            "text": "chlorinated naphthalenes",
            "confidence": 1.0,
            "uuid": "1a8161f5-f44d-4447-b55a-ee85b9c75148",
            "name": "CHLORINATED NAPHTHALENES",
            "url": "https://haz-map.com/Agents/9425",
            "category": "agents"
          },
          {
            "type": "name_match",
            "text": "chlorin",
            "confidence": 1.0,
            "uuid": "4a566fec-ec7e-42b0-9f14-ec586335e694",
            "name": "Chlorin",
            "url": "https://haz-map.com/Agents/20422",
            "category": "agents"
          }
        ]
      },
      "reference_link_1": {
        "original_name": "Reference Link #1",
        "value": "INCHEM: CHLORINATED NAPHTHALENES (CICAD 34 - 2001)",
        "links": [
          {
            "text": "INCHEM: CHLORINATED NAPHTHALENES (CICAD 34 - 2001)",
            "url": "http://www.inchem.org/documents/cicads/cicads/cicad34.htm"
          }
        ],
        "cross_references": [
          {
            "type": "name_match",
            "text": "naphthalene",
            "confidence": 1.0,
            "uuid": "433cf489-5423-4297-a38e-6e755a9d458e",
            "name": "Naphthalene",
            "url": "https://haz-map.com/Agents/46",
            "category": "agents"
          },
          {
            "type": "name_match",
            "text": "ht",
            "confidence": 1.0,
            "uuid": "764df367-8d53-4a11-81a2-31ccfe122a8d",
            "name": "HT",
            "url": "https://haz-map.com/Agents/2168",
            "category": "agents"
          },
          {
            "type": "name_match",
            "text": "chlorinated naphthalenes",
            "confidence": 1.0,
            "uuid": "1a8161f5-f44d-4447-b55a-ee85b9c75148",
            "name": "CHLORINATED NAPHTHALENES",
            "url": "https://haz-map.com/Agents/9425",
            "category": "agents"
          },
          {
            "type": "name_match",
            "text": "chlorin",
            "confidence": 1.0,
            "uuid": "4a566fec-ec7e-42b0-9f14-ec586335e694",
            "name": "Chlorin",
            "url": "https://haz-map.com/Agents/20422",
            "category": "agents"
          }
        ]
      },
      "biomedical_references": {
        "original_name": "Biomedical References",
        "value": "Search PubMed",
        "links": [
          {
            "text": "Search PubMed",
            "url": "https://www.ncbi.nlm.nih.gov/pubmed?term=Halowax+1031%20AND%20human%5Bmh%5D%20AND%20%28Occupational%20Diseases%20%5Bmh%5D%20OR%20Occupational%20Exposure%20%5Bmh%5D%29%20%20AND%20%28tox%5Bsb%5D%29&cmd=search"
          }
        ],
        "cross_references": []
      }
    },
    "exposure_assessment": {
      "bioaccumulates": {
        "original_name": "Bioaccumulates",
        "value": "Yes",
        "links": [],
        "cross_references": []
      },
      "vapor_pressure": {
        "original_name": "Vapor Pressure",
        "value": "0.014 mm Hg",
        "links": [],
        "cross_references": []
      }
    },
    "adverse_effects": {
      "hepatotoxin": {
        "original_name": "Hepatotoxin",
        "value": "Hepatoxic (a) from occupational exposure (secondary effect) or (b) in animal studies or in humans after ingestion",
        "links": [],
        "cross_references": []
      }
    },
    "diseases_processes_and_activities_linked_to_this_agent": {
      "other_information": {
        "original_name": "Other Information",
        "value": "No other related information on this agent was found.",
        "links": [],
        "cross_references": []
      }
    }
  },
  "cross_references": [
    {
      "type": "name_match",
      "text": "naphthalene",
      "confidence": 1.0,
      "uuid": "433cf489-5423-4297-a38e-6e755a9d458e",
      "name": "Naphthalene",
      "url": "https://haz-map.com/Agents/46",
      "category": "agents"
    },
    {
      "type": "name_match",
      "text": "chlorine",
      "confidence": 1.0,
      "uuid": "8a67a545-61fb-4d71-865e-ff2725a0b999",
      "name": "Chlorine",
      "url": "https://haz-map.com/Agents/89",
      "category": "agents"
    },
    {
      "type": "name_match",
      "text": "ht",
      "confidence": 1.0,
      "uuid": "764df367-8d53-4a11-81a2-31ccfe122a8d",
      "name": "HT",
      "url": "https://haz-map.com/Agents/2168",
      "category": "agents"
    },
    {
      "type": "name_match",
      "text": "halowax 1000",
      "confidence": 1.0,
      "uuid": "8b43ac7f-646f-453a-88ea-178707694d80",
      "name": "Halowax 1000",
      "url": "https://haz-map.com/Agents/5476",
      "category": "agents"
    },
    {
      "type": "name_match",
      "text": "halowax 1031",
      "confidence": 1.0,
      "uuid": "5cbf23f4-c085-4443-9ac1-5666580c7daf",
      "name": "Halowax 1031",
      "url": "https://haz-map.com/Agents/5480",
      "category": "agents"
    },
    {
      "type": "name_match",
      "text": "chlorinated naphthalenes",
      "confidence": 1.0,
      "uuid": "1a8161f5-f44d-4447-b55a-ee85b9c75148",
      "name": "CHLORINATED NAPHTHALENES",
      "url": "https://haz-map.com/Agents/9425",
      "category": "agents"
    },
    {
      "type": "name_match",
      "text": "chlorin",
      "confidence": 1.0,
      "uuid": "4a566fec-ec7e-42b0-9f14-ec586335e694",
      "name": "Chlorin",
      "url": "https://haz-map.com/Agents/20422",
      "category": "agents"
    }
  ],
  "all_links": [
    {
      "text": "INCHEM: CHLORINATED NAPHTHALENES (CICAD 34 - 2001)",
      "url": "http://www.inchem.org/documents/cicads/cicads/cicad34.htm"
    },
    {
      "text": "Search PubMed",
      "url": "https://www.ncbi.nlm.nih.gov/pubmed?term=Halowax+1031%20AND%20human%5Bmh%5D%20AND%20%28Occupational%20Diseases%20%5Bmh%5D%20OR%20Occupational%20Exposure%20%5Bmh%5D%29%20%20AND%20%28tox%5Bsb%5D%29&cmd=search"
    }
  ]
}