{
  "metadata": {
    "scraped_from": "https://haz-map.com/Agents/2977",
    "entity_name": "2,4,4-Trimethyl-2-pentene",
    "category": "agents",
    "uuid": "5ccf3e12-4774-40ac-8ee0-41953d66fa96",
    "scraped_at": "2025-07-23T19:22:01.914927"
  },
  "parsed_at": "2025-07-24T01:08:48.673402",
  "title": "2,4,4-Trimethyl-2-pentene",
  "sections": {
    "general": {
      "agent_name": {
        "original_name": "Agent Name",
        "value": "2,4,4-Trimethyl-2-pentene",
        "links": [],
        "cross_references": [
          {
            "type": "name_match",
            "text": "2,4,4-trimethyl-2-pentene",
            "confidence": 1.0,
            "uuid": "5ccf3e12-4774-40ac-8ee0-41953d66fa96",
            "name": "2,4,4-Trimethyl-2-pentene",
            "url": "https://haz-map.com/Agents/2977",
            "category": "agents"
          },
          {
            "type": "name_match",
            "text": "pentene",
            "confidence": 1.0,
            "uuid": "8a79e71e-e90a-4993-a702-7b2bacae6310",
            "name": "Pentene",
            "url": "https://haz-map.com/Agents/6584",
            "category": "agents"
          },
          {
            "type": "fuzzy_match",
            "text": "4-trimethyl-2-pentene",
            "matched_name": "3,4,4-Trimethyl-2-pentene",
            "confidence": 0.8533333333333333,
            "uuid": "184f22fe-ac6d-4a80-a411-83009f8f342c",
            "category": "agents",
            "url": "https://haz-map.com/Agents/3189"
          }
        ]
      },
      "cas_number": {
        "original_name": "CAS Number",
        "value": "107-40-4",
        "links": [],
        "cross_references": []
      },
      "formula": {
        "original_name": "Formula",
        "value": "C8-H16",
        "links": [],
        "cross_references": []
      },
      "major_category": {
        "original_name": "Major Category",
        "value": "Other Classes",
        "links": [],
        "cross_references": []
      },
      "synonyms": {
        "original_name": "Synonyms",
        "value": "2,2,4-Trimethyl-3-pentene; 2,4,4-Trimethylpentene-2; 2-Pentene, 2,4,4-trimethyl-; Propene, 1-tert-butyl-2-methyl-; [ChemIDplus] Diisobutene; Diisobutylene; [ICSC] UN2050",
        "links": [],
        "cross_references": [
          {
            "type": "name_match",
            "text": "diisobutylene",
            "confidence": 1.0,
            "uuid": "35268f21-00a2-4642-bda5-a7e3a9392af3",
            "name": "Diisobutylene",
            "url": "https://haz-map.com/Agents/2976",
            "category": "agents"
          },
          {
            "type": "name_match",
            "text": "isobutylene",
            "confidence": 1.0,
            "uuid": "6a2033c7-081c-4035-b361-f4b2f5e0d7fb",
            "name": "Isobutylene",
            "url": "https://haz-map.com/Agents/5678",
            "category": "agents"
          },
          {
            "type": "name_match",
            "text": "pentene",
            "confidence": 1.0,
            "uuid": "8a79e71e-e90a-4993-a702-7b2bacae6310",
            "name": "Pentene",
            "url": "https://haz-map.com/Agents/6584",
            "category": "agents"
          }
        ]
      },
      "category": {
        "original_name": "Category",
        "value": "Aliphatics, Unsaturated",
        "links": [],
        "cross_references": []
      },
      "description": {
        "original_name": "Description",
        "value": "Colorless liquid; [ICSC]",
        "links": [],
        "cross_references": []
      },
      "sourcesuses": {
        "original_name": "Sources/Uses",
        "value": "Used for organic synthesis; A constituent of gasoline; [HSDB]",
        "links": [],
        "cross_references": [
          {
            "type": "name_match",
            "text": "gasoline",
            "confidence": 1.0,
            "uuid": "af15c833-3eae-46c5-9af4-2214858d7282",
            "name": "Gasoline",
            "url": "https://haz-map.com/Agents/410",
            "category": "agents"
          }
        ]
      },
      "comments": {
        "original_name": "Comments",
        "value": "A skin irritant; May cause CNS effects; [ICSC] An irritant; [MSDSonline]",
        "links": [],
        "cross_references": []
      },
      "biomedical_references": {
        "original_name": "Biomedical References",
        "value": "Search PubMed",
        "links": [
          {
            "text": "Search PubMed",
            "url": "https://www.ncbi.nlm.nih.gov/pubmed?term=2%2c4%2c4-Trimethyl-2-pentene%20AND%20human%5Bmh%5D%20AND%20%28Occupational%20Diseases%20%5Bmh%5D%20OR%20Occupational%20Exposure%20%5Bmh%5D%29%20%20AND%20%28tox%5Bsb%5D%29&cmd=search"
          }
        ],
        "cross_references": []
      }
    },
    "exposure_assessment": {
      "vapor_pressure": {
        "original_name": "Vapor Pressure",
        "value": "35.9 mm Hg",
        "links": [],
        "cross_references": []
      },
      "explanatory_notes": {
        "original_name": "Explanatory Notes",
        "value": "Flash point = 1.7 deg C; [ICSC] VP from ChemIDplus;",
        "links": [],
        "cross_references": [
          {
            "type": "name_match",
            "text": "ash",
            "confidence": 1.0,
            "uuid": "68b360f1-5ad0-4337-bea0-d7adca2961b5",
            "name": "Ash",
            "url": "https://haz-map.com/Agents/965",
            "category": "agents"
          }
        ]
      },
      "nfpa": {
        "original_name": "NFPA",
        "value": "may ignite at ambient temp",
        "links": [],
        "cross_references": []
      }
    },
    "adverse_effects": {
      "neurotoxin": {
        "original_name": "Neurotoxin",
        "value": "Acute solvent syndrome",
        "links": [],
        "cross_references": []
      }
    },
    "diseases_processes_and_activities_linked_to_this_agent": {
      "diseases": {
        "original_name": "Diseases",
        "value": "Occupational diseases associated with exposure to this agent: Solvents, acute toxic effect",
        "links": [
          {
            "text": "Solvents, acute toxic effect",
            "url": "https://haz-map.com/Diseases/326"
          }
        ],
        "cross_references": [
          {
            "type": "url_match",
            "text": "Solvents, acute toxic effect",
            "url": "https://haz-map.com/Diseases/326",
            "confidence": 1.0,
            "uuid": "581e90e3-9d0c-45f0-aa6c-3468c28da129",
            "name": "Solvents, acute toxic effect",
            "category": "diseases"
          }
        ]
      },
      "processes": {
        "original_name": "Processes",
        "value": "Industrial Processes with risk of exposure: Petroleum Production and Refining",
        "links": [
          {
            "text": "Petroleum Production and Refining",
            "url": "https://haz-map.com/Processes/75"
          }
        ],
        "cross_references": [
          {
            "type": "url_match",
            "text": "Petroleum Production and Refining",
            "url": "https://haz-map.com/Processes/75",
            "confidence": 1.0,
            "uuid": "e2003948-ad28-44a5-85f6-2e3391da8917",
            "name": "Petroleum Production and Refining",
            "category": "processes"
          },
          {
            "type": "name_match",
            "text": "oleum",
            "confidence": 1.0,
            "uuid": "12af84ee-bcf0-416d-9220-7c4c6dc330f1",
            "name": "Oleum",
            "url": "https://haz-map.com/Agents/2227",
            "category": "agents"
          }
        ]
      }
    }
  },
  "cross_references": [
    {
      "type": "url_match",
      "text": "Solvents, acute toxic effect",
      "url": "https://haz-map.com/Diseases/326",
      "confidence": 1.0,
      "uuid": "581e90e3-9d0c-45f0-aa6c-3468c28da129",
      "name": "Solvents, acute toxic effect",
      "category": "diseases"
    },
    {
      "type": "url_match",
      "text": "Petroleum Production and Refining",
      "url": "https://haz-map.com/Processes/75",
      "confidence": 1.0,
      "uuid": "e2003948-ad28-44a5-85f6-2e3391da8917",
      "name": "Petroleum Production and Refining",
      "category": "processes"
    },
    {
      "type": "name_match",
      "text": "gasoline",
      "confidence": 1.0,
      "uuid": "af15c833-3eae-46c5-9af4-2214858d7282",
      "name": "Gasoline",
      "url": "https://haz-map.com/Agents/410",
      "category": "agents"
    },
    {
      "type": "name_match",
      "text": "ash",
      "confidence": 1.0,
      "uuid": "68b360f1-5ad0-4337-bea0-d7adca2961b5",
      "name": "Ash",
      "url": "https://haz-map.com/Agents/965",
      "category": "agents"
    },
    {
      "type": "name_match",
      "text": "oleum",
      "confidence": 1.0,
      "uuid": "12af84ee-bcf0-416d-9220-7c4c6dc330f1",
      "name": "Oleum",
      "url": "https://haz-map.com/Agents/2227",
      "category": "agents"
    },
    {
      "type": "name_match",
      "text": "diisobutylene",
      "confidence": 1.0,
      "uuid": "35268f21-00a2-4642-bda5-a7e3a9392af3",
      "name": "Diisobutylene",
      "url": "https://haz-map.com/Agents/2976",
      "category": "agents"
    },
    {
      "type": "name_match",
      "text": "2,4,4-trimethyl-2-pentene",
      "confidence": 1.0,
      "uuid": "5ccf3e12-4774-40ac-8ee0-41953d66fa96",
      "name": "2,4,4-Trimethyl-2-pentene",
      "url": "https://haz-map.com/Agents/2977",
      "category": "agents"
    },
    {
      "type": "name_match",
      "text": "isobutylene",
      "confidence": 1.0,
      "uuid": "6a2033c7-081c-4035-b361-f4b2f5e0d7fb",
      "name": "Isobutylene",
      "url": "https://haz-map.com/Agents/5678",
      "category": "agents"
    },
    {
      "type": "name_match",
      "text": "pentene",
      "confidence": 1.0,
      "uuid": "8a79e71e-e90a-4993-a702-7b2bacae6310",
      "name": "Pentene",
      "url": "https://haz-map.com/Agents/6584",
      "category": "agents"
    },
    {
      "type": "fuzzy_match",
      "text": "4-trimethyl-2-pentene",
      "matched_name": "3,4,4-Trimethyl-2-pentene",
      "confidence": 0.8533333333333333,
      "uuid": "184f22fe-ac6d-4a80-a411-83009f8f342c",
      "category": "agents",
      "url": "https://haz-map.com/Agents/3189"
    }
  ],
  "all_links": [
    {
      "text": "Search PubMed",
      "url": "https://www.ncbi.nlm.nih.gov/pubmed?term=2%2c4%2c4-Trimethyl-2-pentene%20AND%20human%5Bmh%5D%20AND%20%28Occupational%20Diseases%20%5Bmh%5D%20OR%20Occupational%20Exposure%20%5Bmh%5D%29%20%20AND%20%28tox%5Bsb%5D%29&cmd=search"
    },
    {
      "text": "Solvents, acute toxic effect",
      "url": "https://haz-map.com/Diseases/326"
    },
    {
      "text": "Petroleum Production and Refining",
      "url": "https://haz-map.com/Processes/75"
    }
  ]
}