{
  "metadata": {
    "scraped_from": "https://haz-map.com/Agents/18621",
    "entity_name": "Vanillic acid",
    "category": "agents",
    "uuid": "5d78c8d8-b0e7-475c-9771-af9fa8c6e14e",
    "scraped_at": "2025-07-23T21:56:47.423870"
  },
  "parsed_at": "2025-07-24T01:06:38.390937",
  "title": "Vanillic acid",
  "sections": {
    "general": {
      "agent_name": {
        "original_name": "Agent Name",
        "value": "Vanillic acid",
        "links": [],
        "cross_references": [
          {
            "type": "name_match",
            "text": "vanillic acid",
            "confidence": 1.0,
            "uuid": "5d78c8d8-b0e7-475c-9771-af9fa8c6e14e",
            "name": "Vanillic acid",
            "url": "https://haz-map.com/Agents/18621",
            "category": "agents"
          }
        ]
      },
      "cas_number": {
        "original_name": "CAS Number",
        "value": "121-34-6",
        "links": [],
        "cross_references": []
      },
      "formula": {
        "original_name": "Formula",
        "value": "C8-H8-O4",
        "links": [],
        "cross_references": []
      },
      "major_category": {
        "original_name": "Major Category",
        "value": "Biological Agents",
        "links": [],
        "cross_references": []
      },
      "synonyms": {
        "original_name": "Synonyms",
        "value": "3-Methoxy-4-hydroxybenzoic acid; 4-Hydroxy-3-methoxybenzoic acid; Acide vanillique; Benzoic acid, 4-hydroxy-3-methoxy-; Protocatechuic acid, 3-methyl ester; VA; VA (VAN); m-Anisic acid, 4-hydroxy-; p-Vanillic acid; [ChemIDplus] 4-Hydroxy-m-anisic acid; [JECFA]",
        "links": [],
        "cross_references": [
          {
            "type": "name_match",
            "text": "benzoic acid",
            "confidence": 1.0,
            "uuid": "d2c5d3be-d826-4f55-bc32-7b16821aef40",
            "name": "Benzoic acid",
            "url": "https://haz-map.com/Agents/1883",
            "category": "agents"
          },
          {
            "type": "name_match",
            "text": "4-hydroxybenzoic acid",
            "confidence": 1.0,
            "uuid": "3fcbee71-1f51-40c2-84f9-1b67dcff5878",
            "name": "4-Hydroxybenzoic acid",
            "url": "https://haz-map.com/Agents/3479",
            "category": "agents"
          },
          {
            "type": "name_match",
            "text": "protocatechuic acid",
            "confidence": 1.0,
            "uuid": "54929822-8415-4fb5-a5b5-2a0b2aaaa9ce",
            "name": "Protocatechuic acid",
            "url": "https://haz-map.com/Agents/10998",
            "category": "agents"
          },
          {
            "type": "name_match",
            "text": "hydroxybenzoic acid",
            "confidence": 1.0,
            "uuid": "c0fe1112-f757-4a77-a4ed-4b5a9997c734",
            "name": "Hydroxybenzoic acid",
            "url": "https://haz-map.com/Agents/14820",
            "category": "agents"
          },
          {
            "type": "name_match",
            "text": "vanillic acid",
            "confidence": 1.0,
            "uuid": "5d78c8d8-b0e7-475c-9771-af9fa8c6e14e",
            "name": "Vanillic acid",
            "url": "https://haz-map.com/Agents/18621",
            "category": "agents"
          },
          {
            "type": "name_match",
            "text": "3-methoxybenzoic acid",
            "confidence": 1.0,
            "uuid": "bee52266-6664-4b82-84b7-f618c212c5be",
            "name": "3-Methoxybenzoic acid",
            "url": "https://haz-map.com/Agents/19916",
            "category": "agents"
          }
        ]
      },
      "category": {
        "original_name": "Category",
        "value": "Plant Oils and Extracts",
        "links": [],
        "cross_references": []
      },
      "description": {
        "original_name": "Description",
        "value": "White odorless solid; [Merck Index] White to beige powder; [Acros Organics MSDS]",
        "links": [],
        "cross_references": []
      },
      "sourcesuses": {
        "original_name": "Sources/Uses",
        "value": "Used as flavoring agent or adjuvant; [FDA]",
        "links": [],
        "cross_references": []
      },
      "comments": {
        "original_name": "Comments",
        "value": "Causes other liver changes, effects on other transferases, and inflammatory effects in acute intraperitoneal studies of mice; [RTECS] Safe when used as a flavoring agent in food; [JECFA] An irritant; [Acros Organics MSDS] See \"Vanillin.\"",
        "links": [],
        "cross_references": [
          {
            "type": "name_match",
            "text": "vanillin",
            "confidence": 1.0,
            "uuid": "b18209ef-a08d-4dca-8b00-7907c33bb340",
            "name": "Vanillin",
            "url": "https://haz-map.com/Agents/18622",
            "category": "agents"
          }
        ]
      },
      "biomedical_references": {
        "original_name": "Biomedical References",
        "value": "Search PubMed",
        "links": [
          {
            "text": "Search PubMed",
            "url": "https://www.ncbi.nlm.nih.gov/pubmed?term=Vanillic+acid%20AND%20human%5Bmh%5D%20AND%20%28Occupational%20Diseases%20%5Bmh%5D%20OR%20Occupational%20Exposure%20%5Bmh%5D%29%20%20AND%20%28tox%5Bsb%5D%29&cmd=search"
          }
        ],
        "cross_references": []
      }
    },
    "exposure_assessment": {
      "vapor_pressure": {
        "original_name": "Vapor Pressure",
        "value": "1.71E-05 mm Hg",
        "links": [],
        "cross_references": []
      }
    },
    "diseases_processes_and_activities_linked_to_this_agent": {
      "other_information": {
        "original_name": "Other Information",
        "value": "No other related information on this agent was found.",
        "links": [],
        "cross_references": []
      }
    }
  },
  "cross_references": [
    {
      "type": "name_match",
      "text": "benzoic acid",
      "confidence": 1.0,
      "uuid": "d2c5d3be-d826-4f55-bc32-7b16821aef40",
      "name": "Benzoic acid",
      "url": "https://haz-map.com/Agents/1883",
      "category": "agents"
    },
    {
      "type": "name_match",
      "text": "4-hydroxybenzoic acid",
      "confidence": 1.0,
      "uuid": "3fcbee71-1f51-40c2-84f9-1b67dcff5878",
      "name": "4-Hydroxybenzoic acid",
      "url": "https://haz-map.com/Agents/3479",
      "category": "agents"
    },
    {
      "type": "name_match",
      "text": "protocatechuic acid",
      "confidence": 1.0,
      "uuid": "54929822-8415-4fb5-a5b5-2a0b2aaaa9ce",
      "name": "Protocatechuic acid",
      "url": "https://haz-map.com/Agents/10998",
      "category": "agents"
    },
    {
      "type": "name_match",
      "text": "hydroxybenzoic acid",
      "confidence": 1.0,
      "uuid": "c0fe1112-f757-4a77-a4ed-4b5a9997c734",
      "name": "Hydroxybenzoic acid",
      "url": "https://haz-map.com/Agents/14820",
      "category": "agents"
    },
    {
      "type": "name_match",
      "text": "vanillic acid",
      "confidence": 1.0,
      "uuid": "5d78c8d8-b0e7-475c-9771-af9fa8c6e14e",
      "name": "Vanillic acid",
      "url": "https://haz-map.com/Agents/18621",
      "category": "agents"
    },
    {
      "type": "name_match",
      "text": "vanillin",
      "confidence": 1.0,
      "uuid": "b18209ef-a08d-4dca-8b00-7907c33bb340",
      "name": "Vanillin",
      "url": "https://haz-map.com/Agents/18622",
      "category": "agents"
    },
    {
      "type": "name_match",
      "text": "3-methoxybenzoic acid",
      "confidence": 1.0,
      "uuid": "bee52266-6664-4b82-84b7-f618c212c5be",
      "name": "3-Methoxybenzoic acid",
      "url": "https://haz-map.com/Agents/19916",
      "category": "agents"
    }
  ],
  "all_links": [
    {
      "text": "Search PubMed",
      "url": "https://www.ncbi.nlm.nih.gov/pubmed?term=Vanillic+acid%20AND%20human%5Bmh%5D%20AND%20%28Occupational%20Diseases%20%5Bmh%5D%20OR%20Occupational%20Exposure%20%5Bmh%5D%29%20%20AND%20%28tox%5Bsb%5D%29&cmd=search"
    }
  ]
}