{
  "metadata": {
    "scraped_from": "https://haz-map.com/Agents/14444",
    "entity_name": "Glycocholic acid",
    "category": "agents",
    "uuid": "5d8939cc-1ca1-4201-997e-6763001f6254",
    "scraped_at": "2025-07-23T21:22:57.233606"
  },
  "parsed_at": "2025-07-24T01:00:13.061702",
  "title": "Glycocholic acid",
  "sections": {
    "general": {
      "agent_name": {
        "original_name": "Agent Name",
        "value": "Glycocholic acid",
        "links": [],
        "cross_references": [
          {
            "type": "name_match",
            "text": "cholic acid",
            "confidence": 1.0,
            "uuid": "b6e13d68-45c6-44dd-90b2-fff7c986afdd",
            "name": "Cholic acid",
            "url": "https://haz-map.com/Agents/4391",
            "category": "agents"
          },
          {
            "type": "name_match",
            "text": "glycocholic acid",
            "confidence": 1.0,
            "uuid": "5d8939cc-1ca1-4201-997e-6763001f6254",
            "name": "Glycocholic acid",
            "url": "https://haz-map.com/Agents/14444",
            "category": "agents"
          }
        ]
      },
      "cas_number": {
        "original_name": "CAS Number",
        "value": "475-31-0",
        "links": [],
        "cross_references": []
      },
      "formula": {
        "original_name": "Formula",
        "value": "C26-H43-N-O6",
        "links": [],
        "cross_references": []
      },
      "major_category": {
        "original_name": "Major Category",
        "value": "Biological Agents",
        "links": [],
        "cross_references": []
      },
      "synonyms": {
        "original_name": "Synonyms",
        "value": "Glycine, N-((3alpha,5beta,7alpha,12alpha)-3,7,12-trihydroxy-24-oxocholan-24-yl)-; Glycine, N-choloyl-; N-((3alpha,5beta,7alpha,12alpha)-3,7,12-Trihydroxy-24-oxocholan-24-yl)glycine; N-(Carboxymethyl)-3alpha,7alpha,12alpha-trihydroxyglycine cholate; N-Choloylglycine; N-(3-alpha,7-alpha,12-alpha-Trihydroxycholan-24-oyl)glycine; [ChemIDplus] N-Cholylglycine; [Merck Index]",
        "links": [],
        "cross_references": [
          {
            "type": "name_match",
            "text": "glycine",
            "confidence": 1.0,
            "uuid": "820f614c-594c-4165-b9ef-dbbd5cd636a8",
            "name": "Glycine",
            "url": "https://haz-map.com/Agents/14439",
            "category": "agents"
          }
        ]
      },
      "category": {
        "original_name": "Category",
        "value": "Other Biomolecules",
        "links": [],
        "cross_references": []
      },
      "description": {
        "original_name": "Description",
        "value": "Dihydrate: Solid; [Sigma-Aldrich MSDS]",
        "links": [],
        "cross_references": []
      },
      "sourcesuses": {
        "original_name": "Sources/Uses",
        "value": "Main constituent of the bile of herbivorous animals; [Merck Index] Functions as a detergent to solubilize fats for absorption and is absorbed itself; [ChemIDplus] Used as a Ph control agent for foods; [FDA] \"Glycocholic acid, or cholylglycine, is a crystalline bile acid involved in the emulsification of fats. It occurs as a sodium salt in the bile of mammals. It is a conjugate of cholic acid with glycine.\" [Wikipedia]",
        "links": [],
        "cross_references": [
          {
            "type": "name_match",
            "text": "sodium",
            "confidence": 1.0,
            "uuid": "1adffc42-a4d8-44d5-81d6-7dbd96ef8a6f",
            "name": "Sodium",
            "url": "https://haz-map.com/Agents/1527",
            "category": "agents"
          },
          {
            "type": "name_match",
            "text": "cholic acid",
            "confidence": 1.0,
            "uuid": "b6e13d68-45c6-44dd-90b2-fff7c986afdd",
            "name": "Cholic acid",
            "url": "https://haz-map.com/Agents/4391",
            "category": "agents"
          },
          {
            "type": "name_match",
            "text": "glycine",
            "confidence": 1.0,
            "uuid": "820f614c-594c-4165-b9ef-dbbd5cd636a8",
            "name": "Glycine",
            "url": "https://haz-map.com/Agents/14439",
            "category": "agents"
          },
          {
            "type": "name_match",
            "text": "glycocholic acid",
            "confidence": 1.0,
            "uuid": "5d8939cc-1ca1-4201-997e-6763001f6254",
            "name": "Glycocholic acid",
            "url": "https://haz-map.com/Agents/14444",
            "category": "agents"
          },
          {
            "type": "fuzzy_match",
            "text": "crystalline",
            "matched_name": "Silica, crystalline",
            "confidence": 0.7061403508771931,
            "uuid": "f920e8a2-46df-41b7-af8d-0368a777251e",
            "category": "agents",
            "url": "https://haz-map.com/Agents/427"
          }
        ]
      },
      "comments": {
        "original_name": "Comments",
        "value": "May cause irritation; [Sigma-Aldrich MSDS]",
        "links": [],
        "cross_references": []
      },
      "biomedical_references": {
        "original_name": "Biomedical References",
        "value": "Search PubMed",
        "links": [
          {
            "text": "Search PubMed",
            "url": "https://www.ncbi.nlm.nih.gov/pubmed?term=Glycocholic+acid%20AND%20human%5Bmh%5D%20AND%20%28Occupational%20Diseases%20%5Bmh%5D%20OR%20Occupational%20Exposure%20%5Bmh%5D%29%20%20AND%20%28tox%5Bsb%5D%29&cmd=search"
          }
        ],
        "cross_references": []
      }
    },
    "exposure_assessment": {
      "vapor_pressure": {
        "original_name": "Vapor Pressure",
        "value": "6.48E-20 mm Hg",
        "links": [],
        "cross_references": []
      }
    },
    "diseases_processes_and_activities_linked_to_this_agent": {
      "other_information": {
        "original_name": "Other Information",
        "value": "No other related information on this agent was found.",
        "links": [],
        "cross_references": []
      }
    }
  },
  "cross_references": [
    {
      "type": "name_match",
      "text": "sodium",
      "confidence": 1.0,
      "uuid": "1adffc42-a4d8-44d5-81d6-7dbd96ef8a6f",
      "name": "Sodium",
      "url": "https://haz-map.com/Agents/1527",
      "category": "agents"
    },
    {
      "type": "name_match",
      "text": "cholic acid",
      "confidence": 1.0,
      "uuid": "b6e13d68-45c6-44dd-90b2-fff7c986afdd",
      "name": "Cholic acid",
      "url": "https://haz-map.com/Agents/4391",
      "category": "agents"
    },
    {
      "type": "name_match",
      "text": "glycine",
      "confidence": 1.0,
      "uuid": "820f614c-594c-4165-b9ef-dbbd5cd636a8",
      "name": "Glycine",
      "url": "https://haz-map.com/Agents/14439",
      "category": "agents"
    },
    {
      "type": "name_match",
      "text": "glycocholic acid",
      "confidence": 1.0,
      "uuid": "5d8939cc-1ca1-4201-997e-6763001f6254",
      "name": "Glycocholic acid",
      "url": "https://haz-map.com/Agents/14444",
      "category": "agents"
    },
    {
      "type": "fuzzy_match",
      "text": "crystalline",
      "matched_name": "Silica, crystalline",
      "confidence": 0.7061403508771931,
      "uuid": "f920e8a2-46df-41b7-af8d-0368a777251e",
      "category": "agents",
      "url": "https://haz-map.com/Agents/427"
    }
  ],
  "all_links": [
    {
      "text": "Search PubMed",
      "url": "https://www.ncbi.nlm.nih.gov/pubmed?term=Glycocholic+acid%20AND%20human%5Bmh%5D%20AND%20%28Occupational%20Diseases%20%5Bmh%5D%20OR%20Occupational%20Exposure%20%5Bmh%5D%29%20%20AND%20%28tox%5Bsb%5D%29&cmd=search"
    }
  ]
}