{
  "metadata": {
    "scraped_from": "https://haz-map.com/Agents/7265",
    "entity_name": "4,4'-Dichlorodiphenyl sulfone",
    "category": "agents",
    "uuid": "5d9ad3fc-967e-4d40-8af6-f5a757de8c89",
    "scraped_at": "2025-07-23T20:11:05.174498"
  },
  "parsed_at": "2025-07-24T01:01:27.554433",
  "title": "4,4'-Dichlorodiphenyl sulfone",
  "sections": {
    "general": {
      "agent_name": {
        "original_name": "Agent Name",
        "value": "4,4'-Dichlorodiphenyl sulfone",
        "links": [],
        "cross_references": [
          {
            "type": "name_match",
            "text": "4,4'-dichlorodiphenyl sulfone",
            "confidence": 1.0,
            "uuid": "5d9ad3fc-967e-4d40-8af6-f5a757de8c89",
            "name": "4,4'-Dichlorodiphenyl sulfone",
            "url": "https://haz-map.com/Agents/7265",
            "category": "agents"
          },
          {
            "type": "name_match",
            "text": "diphenyl sulfone",
            "confidence": 1.0,
            "uuid": "b3ab3720-75bd-49a6-9346-c348c73d5e79",
            "name": "Diphenyl sulfone",
            "url": "https://haz-map.com/Agents/8351",
            "category": "agents"
          }
        ]
      },
      "cas_number": {
        "original_name": "CAS Number",
        "value": "80-07-9",
        "links": [],
        "cross_references": []
      },
      "formula": {
        "original_name": "Formula",
        "value": "C12-H8-Cl2-O2-S",
        "links": [],
        "cross_references": []
      },
      "major_category": {
        "original_name": "Major Category",
        "value": "Other Classes",
        "links": [],
        "cross_references": []
      },
      "synonyms": {
        "original_name": "Synonyms",
        "value": "1,1'-Sulfonylbis(4-chlorobenzene); 4,4'-Dichlorodiphenyl sulphone; 4-Chloro-1-(4-chlorophenylsulfonyl)benzene; 4-Chlorophenyl sulfone; Benzene, 1,1'-sulfonylbis(4-chloro-; Bis(4-chlorophenyl) sulfone; Bis(p-chlorophenyl) sulfone; Di-p-chlorophenyl sulfone; Sulfone, bis(p-chlorophenyl); p,p'-Dichlorodiphenyl sulfone; p-Chlorophenyl sulfone; [ChemIDplus]",
        "links": [],
        "cross_references": [
          {
            "type": "name_match",
            "text": "benzene",
            "confidence": 1.0,
            "uuid": "b05124de-5f34-4c14-8f04-ccb20c3780d9",
            "name": "Benzene",
            "url": "https://haz-map.com/Agents/5",
            "category": "agents"
          },
          {
            "type": "name_match",
            "text": "chlorobenzene",
            "confidence": 1.0,
            "uuid": "7e598eca-f35d-493c-aa78-93bb67744c4c",
            "name": "Chlorobenzene",
            "url": "https://haz-map.com/Agents/85",
            "category": "agents"
          },
          {
            "type": "name_match",
            "text": "diphenyl sulfone",
            "confidence": 1.0,
            "uuid": "b3ab3720-75bd-49a6-9346-c348c73d5e79",
            "name": "Diphenyl sulfone",
            "url": "https://haz-map.com/Agents/8351",
            "category": "agents"
          }
        ]
      },
      "category": {
        "original_name": "Category",
        "value": "Halogenated Polyaromatics",
        "links": [],
        "cross_references": []
      },
      "description": {
        "original_name": "Description",
        "value": "White or off-white solid; [HSDB] Off-white or tan powder; [MSDSonline]",
        "links": [],
        "cross_references": []
      },
      "sourcesuses": {
        "original_name": "Sources/Uses",
        "value": "Used in high temperature plastics and as intermediate for Dapsone (an anti-leprotic drug and epoxy hardener); [HSDB]",
        "links": [],
        "cross_references": [
          {
            "type": "name_match",
            "text": "dapsone",
            "confidence": 1.0,
            "uuid": "8adee5c9-9faf-411c-aad3-c4e5d169ac38",
            "name": "Dapsone",
            "url": "https://haz-map.com/Agents/1170",
            "category": "agents"
          }
        ]
      },
      "comments": {
        "original_name": "Comments",
        "value": "Caused diarrhea and abnormal liver function tests in feeding studies of rats; [RTECS] Also affects CNS and kidneys in rat feeding studies; [HSDB] May cause irritation; [CAMEO] An irritant; Effects in high-dose animal studies include abnormal liver function tests; [MSDSonline] See \"Sulphenone\" and \"Tetradifon.\"",
        "links": [],
        "cross_references": [
          {
            "type": "name_match",
            "text": "diarrhea",
            "confidence": 1.0,
            "uuid": "001ae7b5-5f3c-42c2-bc33-81e7581abd53",
            "name": "diarrhea",
            "url": "https://haz-map.com/Findings/15",
            "category": "findings"
          },
          {
            "type": "name_match",
            "text": "sulphenone",
            "confidence": 1.0,
            "uuid": "84806408-ca46-4550-8764-d83f70c71e98",
            "name": "Sulphenone",
            "url": "https://haz-map.com/Agents/7279",
            "category": "agents"
          },
          {
            "type": "name_match",
            "text": "tetradifon",
            "confidence": 1.0,
            "uuid": "4cec8398-ef47-4e0a-9d38-c0dab3d4ac42",
            "name": "Tetradifon",
            "url": "https://haz-map.com/Agents/7347",
            "category": "agents"
          },
          {
            "type": "fuzzy_match",
            "text": "liver function test",
            "matched_name": "liver function test, abnormal",
            "confidence": 0.7099391480730223,
            "uuid": "914c0118-6d54-441d-ad3a-44c52b3d4e41",
            "category": "findings",
            "url": "https://haz-map.com/Findings/202"
          }
        ]
      },
      "biomedical_references": {
        "original_name": "Biomedical References",
        "value": "Search PubMed",
        "links": [
          {
            "text": "Search PubMed",
            "url": "https://www.ncbi.nlm.nih.gov/pubmed?term=4%2c4%26%2339%3b-Dichlorodiphenyl+sulfone%20AND%20human%5Bmh%5D%20AND%20%28Occupational%20Diseases%20%5Bmh%5D%20OR%20Occupational%20Exposure%20%5Bmh%5D%29%20%20AND%20%28tox%5Bsb%5D%29&cmd=search"
          }
        ],
        "cross_references": []
      }
    },
    "exposure_assessment": {
      "vapor_pressure": {
        "original_name": "Vapor Pressure",
        "value": "8.1E-07 mm Hg",
        "links": [],
        "cross_references": []
      }
    },
    "adverse_effects": {
      "hepatotoxin": {
        "original_name": "Hepatotoxin",
        "value": "Hepatoxic (a) from occupational exposure (secondary effect) or (b) in animal studies or in humans after ingestion",
        "links": [],
        "cross_references": []
      }
    },
    "diseases_processes_and_activities_linked_to_this_agent": {
      "other_information": {
        "original_name": "Other Information",
        "value": "No other related information on this agent was found.",
        "links": [],
        "cross_references": []
      }
    }
  },
  "cross_references": [
    {
      "type": "name_match",
      "text": "diarrhea",
      "confidence": 1.0,
      "uuid": "001ae7b5-5f3c-42c2-bc33-81e7581abd53",
      "name": "diarrhea",
      "url": "https://haz-map.com/Findings/15",
      "category": "findings"
    },
    {
      "type": "name_match",
      "text": "benzene",
      "confidence": 1.0,
      "uuid": "b05124de-5f34-4c14-8f04-ccb20c3780d9",
      "name": "Benzene",
      "url": "https://haz-map.com/Agents/5",
      "category": "agents"
    },
    {
      "type": "name_match",
      "text": "chlorobenzene",
      "confidence": 1.0,
      "uuid": "7e598eca-f35d-493c-aa78-93bb67744c4c",
      "name": "Chlorobenzene",
      "url": "https://haz-map.com/Agents/85",
      "category": "agents"
    },
    {
      "type": "name_match",
      "text": "dapsone",
      "confidence": 1.0,
      "uuid": "8adee5c9-9faf-411c-aad3-c4e5d169ac38",
      "name": "Dapsone",
      "url": "https://haz-map.com/Agents/1170",
      "category": "agents"
    },
    {
      "type": "name_match",
      "text": "4,4'-dichlorodiphenyl sulfone",
      "confidence": 1.0,
      "uuid": "5d9ad3fc-967e-4d40-8af6-f5a757de8c89",
      "name": "4,4'-Dichlorodiphenyl sulfone",
      "url": "https://haz-map.com/Agents/7265",
      "category": "agents"
    },
    {
      "type": "name_match",
      "text": "sulphenone",
      "confidence": 1.0,
      "uuid": "84806408-ca46-4550-8764-d83f70c71e98",
      "name": "Sulphenone",
      "url": "https://haz-map.com/Agents/7279",
      "category": "agents"
    },
    {
      "type": "name_match",
      "text": "tetradifon",
      "confidence": 1.0,
      "uuid": "4cec8398-ef47-4e0a-9d38-c0dab3d4ac42",
      "name": "Tetradifon",
      "url": "https://haz-map.com/Agents/7347",
      "category": "agents"
    },
    {
      "type": "name_match",
      "text": "diphenyl sulfone",
      "confidence": 1.0,
      "uuid": "b3ab3720-75bd-49a6-9346-c348c73d5e79",
      "name": "Diphenyl sulfone",
      "url": "https://haz-map.com/Agents/8351",
      "category": "agents"
    },
    {
      "type": "fuzzy_match",
      "text": "liver function test",
      "matched_name": "liver function test, abnormal",
      "confidence": 0.7099391480730223,
      "uuid": "914c0118-6d54-441d-ad3a-44c52b3d4e41",
      "category": "findings",
      "url": "https://haz-map.com/Findings/202"
    }
  ],
  "all_links": [
    {
      "text": "Search PubMed",
      "url": "https://www.ncbi.nlm.nih.gov/pubmed?term=4%2c4%26%2339%3b-Dichlorodiphenyl+sulfone%20AND%20human%5Bmh%5D%20AND%20%28Occupational%20Diseases%20%5Bmh%5D%20OR%20Occupational%20Exposure%20%5Bmh%5D%29%20%20AND%20%28tox%5Bsb%5D%29&cmd=search"
    }
  ]
}