{
  "metadata": {
    "scraped_from": "https://haz-map.com/Agents/20512",
    "entity_name": "Cyclopropyl methyl ketone",
    "category": "agents",
    "uuid": "5de4fd5b-ce02-43aa-9532-16081b675773",
    "scraped_at": "2025-07-23T22:26:34.204425"
  },
  "parsed_at": "2025-07-24T01:13:42.230091",
  "title": "Cyclopropyl methyl ketone",
  "sections": {
    "general": {
      "agent_name": {
        "original_name": "Agent Name",
        "value": "Cyclopropyl methyl ketone",
        "links": [],
        "cross_references": [
          {
            "type": "name_match",
            "text": "cyclopropyl methyl ketone",
            "confidence": 1.0,
            "uuid": "5de4fd5b-ce02-43aa-9532-16081b675773",
            "name": "Cyclopropyl methyl ketone",
            "url": "https://haz-map.com/Agents/20512",
            "category": "agents"
          }
        ]
      },
      "cas_number": {
        "original_name": "CAS Number",
        "value": "765-43-5",
        "links": [],
        "cross_references": []
      },
      "formula": {
        "original_name": "Formula",
        "value": "C5-H8-O",
        "links": [],
        "cross_references": []
      },
      "major_category": {
        "original_name": "Major Category",
        "value": "Other Classes",
        "links": [],
        "cross_references": []
      },
      "synonyms": {
        "original_name": "Synonyms",
        "value": "Acetylcyclopropane; Methyl cyclopropyl ketone; Ethanone, 1-cyclopropyl-; Ethanone, 1-cyclopropyl- (9CI); Ketone, cyclopropyl methyl (8CI); [ChemIDplus] 1-Cyclopropylethanone; CPMK; [ECHA REACH Registrations] UN1992",
        "links": [],
        "cross_references": [
          {
            "type": "name_match",
            "text": "propane",
            "confidence": 1.0,
            "uuid": "563a611b-46ea-4bdc-b77b-17d8f7646283",
            "name": "Propane",
            "url": "https://haz-map.com/Agents/607",
            "category": "agents"
          },
          {
            "type": "name_match",
            "text": "cyclopropane",
            "confidence": 1.0,
            "uuid": "eff680c8-2b85-4f0d-9c04-449434d56b54",
            "name": "Cyclopropane",
            "url": "https://haz-map.com/Agents/4611",
            "category": "agents"
          }
        ]
      },
      "category": {
        "original_name": "Category",
        "value": "Other Organic Compounds",
        "links": [],
        "cross_references": [
          {
            "type": "fuzzy_match",
            "text": "organic compounds",
            "matched_name": "Tin, organic compounds",
            "confidence": 0.8196969696969697,
            "uuid": "e027d413-8869-4308-9eb2-27d768b011ea",
            "category": "agents",
            "url": "https://haz-map.com/Agents/656"
          }
        ]
      },
      "description": {
        "original_name": "Description",
        "value": "Colorless liquid; [Alfa Aesar MSDS]",
        "links": [],
        "cross_references": []
      },
      "sourcesuses": {
        "original_name": "Sources/Uses",
        "value": "Used to make agricultural and fine chemicals; [ECHA REACH Registrations]",
        "links": [],
        "cross_references": [
          {
            "type": "name_match",
            "text": "mica",
            "confidence": 1.0,
            "uuid": "433f26f1-c399-4596-b179-ce3843cfd465",
            "name": "Mica",
            "url": "https://haz-map.com/Agents/621",
            "category": "agents"
          }
        ]
      },
      "comments": {
        "original_name": "Comments",
        "value": "A mild skin irritant; Dermal lethal-dose (rat) > 2,000 mg/kg; [RTECS] Causes burns; [ECHA REACH Registrations] A skin and strong eye irritant; Toxic by ingestion; [Alfa Aesar MSDS] See \"Ethylcyclopropane.\" See \"Acetone.\"",
        "links": [],
        "cross_references": [
          {
            "type": "name_match",
            "text": "burn",
            "confidence": 1.0,
            "uuid": "63665de5-6376-4918-8dbf-4c10c4d63837",
            "name": "burn",
            "url": "https://haz-map.com/Findings/204",
            "category": "findings"
          },
          {
            "type": "name_match",
            "text": "acetone",
            "confidence": 1.0,
            "uuid": "31b7bdae-eb37-44cc-9c56-b6dfc1908d64",
            "name": "Acetone",
            "url": "https://haz-map.com/Agents/138",
            "category": "agents"
          },
          {
            "type": "name_match",
            "text": "propane",
            "confidence": 1.0,
            "uuid": "563a611b-46ea-4bdc-b77b-17d8f7646283",
            "name": "Propane",
            "url": "https://haz-map.com/Agents/607",
            "category": "agents"
          },
          {
            "type": "name_match",
            "text": "cyclopropane",
            "confidence": 1.0,
            "uuid": "eff680c8-2b85-4f0d-9c04-449434d56b54",
            "name": "Cyclopropane",
            "url": "https://haz-map.com/Agents/4611",
            "category": "agents"
          },
          {
            "type": "name_match",
            "text": "ethylcyclopropane",
            "confidence": 1.0,
            "uuid": "3829e96b-c048-428e-a2ff-537a69ad5f8f",
            "name": "Ethylcyclopropane",
            "url": "https://haz-map.com/Agents/13535",
            "category": "agents"
          }
        ]
      },
      "biomedical_references": {
        "original_name": "Biomedical References",
        "value": "Search PubMed",
        "links": [
          {
            "text": "Search PubMed",
            "url": "https://www.ncbi.nlm.nih.gov/pubmed?term=Cyclopropyl+methyl+ketone%20AND%20human%5Bmh%5D%20AND%20%28Occupational%20Diseases%20%5Bmh%5D%20OR%20Occupational%20Exposure%20%5Bmh%5D%29%20%20AND%20%28tox%5Bsb%5D%29&cmd=search"
          }
        ],
        "cross_references": []
      }
    },
    "exposure_assessment": {
      "vapor_pressure": {
        "original_name": "Vapor Pressure",
        "value": "44.7 mm Hg",
        "links": [],
        "cross_references": []
      },
      "explanatory_notes": {
        "original_name": "Explanatory Notes",
        "value": "The Guide in the Emergency Response Guidebook is for \"Flammable liquid, toxic, n.o.s.\"",
        "links": [],
        "cross_references": []
      }
    },
    "adverse_effects": {
      "dermatotoxin": {
        "original_name": "Dermatotoxin",
        "value": "Skin burns",
        "links": [],
        "cross_references": [
          {
            "type": "name_match",
            "text": "burn",
            "confidence": 1.0,
            "uuid": "63665de5-6376-4918-8dbf-4c10c4d63837",
            "name": "burn",
            "url": "https://haz-map.com/Findings/204",
            "category": "findings"
          }
        ]
      }
    },
    "diseases_processes_and_activities_linked_to_this_agent": {
      "other_information": {
        "original_name": "Other Information",
        "value": "No other related information on this agent was found.",
        "links": [],
        "cross_references": []
      }
    }
  },
  "cross_references": [
    {
      "type": "name_match",
      "text": "burn",
      "confidence": 1.0,
      "uuid": "63665de5-6376-4918-8dbf-4c10c4d63837",
      "name": "burn",
      "url": "https://haz-map.com/Findings/204",
      "category": "findings"
    },
    {
      "type": "name_match",
      "text": "acetone",
      "confidence": 1.0,
      "uuid": "31b7bdae-eb37-44cc-9c56-b6dfc1908d64",
      "name": "Acetone",
      "url": "https://haz-map.com/Agents/138",
      "category": "agents"
    },
    {
      "type": "name_match",
      "text": "propane",
      "confidence": 1.0,
      "uuid": "563a611b-46ea-4bdc-b77b-17d8f7646283",
      "name": "Propane",
      "url": "https://haz-map.com/Agents/607",
      "category": "agents"
    },
    {
      "type": "name_match",
      "text": "mica",
      "confidence": 1.0,
      "uuid": "433f26f1-c399-4596-b179-ce3843cfd465",
      "name": "Mica",
      "url": "https://haz-map.com/Agents/621",
      "category": "agents"
    },
    {
      "type": "name_match",
      "text": "cyclopropane",
      "confidence": 1.0,
      "uuid": "eff680c8-2b85-4f0d-9c04-449434d56b54",
      "name": "Cyclopropane",
      "url": "https://haz-map.com/Agents/4611",
      "category": "agents"
    },
    {
      "type": "name_match",
      "text": "ethylcyclopropane",
      "confidence": 1.0,
      "uuid": "3829e96b-c048-428e-a2ff-537a69ad5f8f",
      "name": "Ethylcyclopropane",
      "url": "https://haz-map.com/Agents/13535",
      "category": "agents"
    },
    {
      "type": "name_match",
      "text": "cyclopropyl methyl ketone",
      "confidence": 1.0,
      "uuid": "5de4fd5b-ce02-43aa-9532-16081b675773",
      "name": "Cyclopropyl methyl ketone",
      "url": "https://haz-map.com/Agents/20512",
      "category": "agents"
    },
    {
      "type": "fuzzy_match",
      "text": "organic compounds",
      "matched_name": "Tin, organic compounds",
      "confidence": 0.8196969696969697,
      "uuid": "e027d413-8869-4308-9eb2-27d768b011ea",
      "category": "agents",
      "url": "https://haz-map.com/Agents/656"
    }
  ],
  "all_links": [
    {
      "text": "Search PubMed",
      "url": "https://www.ncbi.nlm.nih.gov/pubmed?term=Cyclopropyl+methyl+ketone%20AND%20human%5Bmh%5D%20AND%20%28Occupational%20Diseases%20%5Bmh%5D%20OR%20Occupational%20Exposure%20%5Bmh%5D%29%20%20AND%20%28tox%5Bsb%5D%29&cmd=search"
    }
  ]
}