{
  "metadata": {
    "scraped_from": "https://haz-map.com/Agents/6088",
    "entity_name": "Methyl decanoate",
    "category": "agents",
    "uuid": "5ee029ff-c29a-4b71-977b-3b206c20f056",
    "scraped_at": "2025-07-23T19:58:27.131545"
  },
  "parsed_at": "2025-07-24T01:14:59.103759",
  "title": "Methyl decanoate",
  "sections": {
    "general": {
      "agent_name": {
        "original_name": "Agent Name",
        "value": "Methyl decanoate",
        "links": [],
        "cross_references": [
          {
            "type": "name_match",
            "text": "methyl decanoate",
            "confidence": 1.0,
            "uuid": "5ee029ff-c29a-4b71-977b-3b206c20f056",
            "name": "Methyl decanoate",
            "url": "https://haz-map.com/Agents/6088",
            "category": "agents"
          }
        ]
      },
      "cas_number": {
        "original_name": "CAS Number",
        "value": "110-42-9",
        "links": [],
        "cross_references": []
      },
      "formula": {
        "original_name": "Formula",
        "value": "C11-H22-O2",
        "links": [],
        "cross_references": []
      },
      "major_category": {
        "original_name": "Major Category",
        "value": "Other Classes",
        "links": [],
        "cross_references": []
      },
      "synonyms": {
        "original_name": "Synonyms",
        "value": "Capric acid methyl ester; Decanoic acid, methyl ester; Metholene 2095; Methyl caprate; Methyl caprinate; Methyl decanoate (natural); Methyl n-caprate; Methyl n-decanoate; Methyl-n-caprate; Uniphat A30; [ChemIDplus]",
        "links": [],
        "cross_references": [
          {
            "type": "name_match",
            "text": "capric acid",
            "confidence": 1.0,
            "uuid": "96eb96e2-85f6-4d9d-8ac7-e7f72580e035",
            "name": "Capric acid",
            "url": "https://haz-map.com/Agents/4193",
            "category": "agents"
          },
          {
            "type": "name_match",
            "text": "methyl decanoate",
            "confidence": 1.0,
            "uuid": "5ee029ff-c29a-4b71-977b-3b206c20f056",
            "name": "Methyl decanoate",
            "url": "https://haz-map.com/Agents/6088",
            "category": "agents"
          }
        ]
      },
      "category": {
        "original_name": "Category",
        "value": "Esters, Other",
        "links": [],
        "cross_references": []
      },
      "description": {
        "original_name": "Description",
        "value": "Liquid; [IUCLID] Colorless liquid; [MSDSonline]",
        "links": [],
        "cross_references": []
      },
      "sourcesuses": {
        "original_name": "Sources/Uses",
        "value": "Found in cassava, farine, and blue and Beaufort cheeses; Used as flavoring agent, insect attractant, pesticide stabilizer, and plant growth regulator; Also used to make caproic acid, detergents, emulsifiers, wetting agents, stabilizers, resins, lubricants, plasticizers, alkanolamides, and fatty alcohols and acids; [HSDB]",
        "links": [],
        "cross_references": [
          {
            "type": "name_match",
            "text": "caproic acid",
            "confidence": 1.0,
            "uuid": "a68f84aa-0e47-4c25-9c1f-566b2ee47c7e",
            "name": "Caproic acid",
            "url": "https://haz-map.com/Agents/5532",
            "category": "agents"
          }
        ]
      },
      "comments": {
        "original_name": "Comments",
        "value": "Fatty acid C6-C10 methylester: Irritating to rabbit and human skin and mildly irritating to rabbit eyes; [IUCLID]",
        "links": [],
        "cross_references": []
      },
      "biomedical_references": {
        "original_name": "Biomedical References",
        "value": "Search PubMed",
        "links": [
          {
            "text": "Search PubMed",
            "url": "https://www.ncbi.nlm.nih.gov/pubmed?term=Methyl+decanoate%20AND%20human%5Bmh%5D%20AND%20%28Occupational%20Diseases%20%5Bmh%5D%20OR%20Occupational%20Exposure%20%5Bmh%5D%29%20%20AND%20%28tox%5Bsb%5D%29&cmd=search"
          }
        ],
        "cross_references": []
      }
    },
    "exposure_assessment": {
      "vapor_pressure": {
        "original_name": "Vapor Pressure",
        "value": "0.037 mm Hg",
        "links": [],
        "cross_references": []
      },
      "explanatory_notes": {
        "original_name": "Explanatory Notes",
        "value": "VP from ChemIDplus;",
        "links": [],
        "cross_references": []
      }
    },
    "diseases_processes_and_activities_linked_to_this_agent": {
      "processes": {
        "original_name": "Processes",
        "value": "Industrial Processes with risk of exposure: Farming (Pesticides)",
        "links": [
          {
            "text": "Farming (Pesticides)",
            "url": "https://haz-map.com/Processes/218"
          }
        ],
        "cross_references": [
          {
            "type": "url_match",
            "text": "Farming (Pesticides)",
            "url": "https://haz-map.com/Processes/218",
            "confidence": 1.0,
            "uuid": "cf1e5815-c9bb-4917-82a5-391848170b7e",
            "name": "Farming (Pesticides)",
            "category": "processes"
          }
        ]
      }
    }
  },
  "cross_references": [
    {
      "type": "url_match",
      "text": "Farming (Pesticides)",
      "url": "https://haz-map.com/Processes/218",
      "confidence": 1.0,
      "uuid": "cf1e5815-c9bb-4917-82a5-391848170b7e",
      "name": "Farming (Pesticides)",
      "category": "processes"
    },
    {
      "type": "name_match",
      "text": "capric acid",
      "confidence": 1.0,
      "uuid": "96eb96e2-85f6-4d9d-8ac7-e7f72580e035",
      "name": "Capric acid",
      "url": "https://haz-map.com/Agents/4193",
      "category": "agents"
    },
    {
      "type": "name_match",
      "text": "caproic acid",
      "confidence": 1.0,
      "uuid": "a68f84aa-0e47-4c25-9c1f-566b2ee47c7e",
      "name": "Caproic acid",
      "url": "https://haz-map.com/Agents/5532",
      "category": "agents"
    },
    {
      "type": "name_match",
      "text": "methyl decanoate",
      "confidence": 1.0,
      "uuid": "5ee029ff-c29a-4b71-977b-3b206c20f056",
      "name": "Methyl decanoate",
      "url": "https://haz-map.com/Agents/6088",
      "category": "agents"
    }
  ],
  "all_links": [
    {
      "text": "Search PubMed",
      "url": "https://www.ncbi.nlm.nih.gov/pubmed?term=Methyl+decanoate%20AND%20human%5Bmh%5D%20AND%20%28Occupational%20Diseases%20%5Bmh%5D%20OR%20Occupational%20Exposure%20%5Bmh%5D%29%20%20AND%20%28tox%5Bsb%5D%29&cmd=search"
    },
    {
      "text": "Farming (Pesticides)",
      "url": "https://haz-map.com/Processes/218"
    }
  ]
}