{
  "metadata": {
    "scraped_from": "https://haz-map.com/Agents/20004",
    "entity_name": "4-Bromochlorobenzene",
    "category": "agents",
    "uuid": "5f2773f5-b25b-4b79-8f4f-6032629f1a0b",
    "scraped_at": "2025-07-23T22:17:04.261294"
  },
  "parsed_at": "2025-07-24T01:00:37.567680",
  "title": "4-Bromochlorobenzene",
  "sections": {
    "general": {
      "agent_name": {
        "original_name": "Agent Name",
        "value": "4-Bromochlorobenzene",
        "links": [],
        "cross_references": [
          {
            "type": "name_match",
            "text": "benzene",
            "confidence": 1.0,
            "uuid": "b05124de-5f34-4c14-8f04-ccb20c3780d9",
            "name": "Benzene",
            "url": "https://haz-map.com/Agents/5",
            "category": "agents"
          },
          {
            "type": "name_match",
            "text": "chlorobenzene",
            "confidence": 1.0,
            "uuid": "7e598eca-f35d-493c-aa78-93bb67744c4c",
            "name": "Chlorobenzene",
            "url": "https://haz-map.com/Agents/85",
            "category": "agents"
          },
          {
            "type": "name_match",
            "text": "4-bromochlorobenzene",
            "confidence": 1.0,
            "uuid": "5f2773f5-b25b-4b79-8f4f-6032629f1a0b",
            "name": "4-Bromochlorobenzene",
            "url": "https://haz-map.com/Agents/20004",
            "category": "agents"
          }
        ]
      },
      "cas_number": {
        "original_name": "CAS Number",
        "value": "106-39-8",
        "links": [],
        "cross_references": []
      },
      "formula": {
        "original_name": "Formula",
        "value": "C6-H4-Br-Cl",
        "links": [],
        "cross_references": []
      },
      "major_category": {
        "original_name": "Major Category",
        "value": "Other Classes",
        "links": [],
        "cross_references": []
      },
      "synonyms": {
        "original_name": "Synonyms",
        "value": "1-Bromo-4-chlorobenzene; 1-Chloro-4-bromobenzene; 4-Chloro-1-bromobenzene; 4-Chlorobromobenzene; 4-Chlorophenyl bromide; p-Bromochlorobenzene; p-Bromoclorobenzene; p-Bromophenyl chloride; p-Chlorobromobenzene; p-Chlorophenyl bromide; Benzene, 1-bromo-4-chloro-; [ChemIDplus]",
        "links": [],
        "cross_references": [
          {
            "type": "name_match",
            "text": "benzene",
            "confidence": 1.0,
            "uuid": "b05124de-5f34-4c14-8f04-ccb20c3780d9",
            "name": "Benzene",
            "url": "https://haz-map.com/Agents/5",
            "category": "agents"
          },
          {
            "type": "name_match",
            "text": "chlorobenzene",
            "confidence": 1.0,
            "uuid": "7e598eca-f35d-493c-aa78-93bb67744c4c",
            "name": "Chlorobenzene",
            "url": "https://haz-map.com/Agents/85",
            "category": "agents"
          },
          {
            "type": "name_match",
            "text": "bromobenzene",
            "confidence": 1.0,
            "uuid": "8d6cd7c3-5ba3-4909-b970-bc239418c7f1",
            "name": "Bromobenzene",
            "url": "https://haz-map.com/Agents/1889",
            "category": "agents"
          }
        ]
      },
      "category": {
        "original_name": "Category",
        "value": "Halogenated Monoaromatics",
        "links": [],
        "cross_references": []
      },
      "description": {
        "original_name": "Description",
        "value": "Beige crystalline solid; [Sigma-Aldrich MSDS]",
        "links": [],
        "cross_references": [
          {
            "type": "fuzzy_match",
            "text": "crystalline",
            "matched_name": "Silica, crystalline",
            "confidence": 0.7061403508771931,
            "uuid": "f920e8a2-46df-41b7-af8d-0368a777251e",
            "category": "agents",
            "url": "https://haz-map.com/Agents/427"
          }
        ]
      },
      "comments": {
        "original_name": "Comments",
        "value": "A skin and strong eye irritant; [Sigma-Aldrich MSDS] See \"p-Bromobenzyl bromide.\"",
        "links": [],
        "cross_references": [
          {
            "type": "name_match",
            "text": "benzyl bromide",
            "confidence": 1.0,
            "uuid": "23b5eb4a-392f-4063-b325-5a6b411fcd4e",
            "name": "Benzyl bromide",
            "url": "https://haz-map.com/Agents/2646",
            "category": "agents"
          },
          {
            "type": "name_match",
            "text": "p-bromobenzyl bromide",
            "confidence": 1.0,
            "uuid": "b3e0ea21-c1f1-4e5b-bc7a-b7c087355fa5",
            "name": "p-Bromobenzyl bromide",
            "url": "https://haz-map.com/Agents/21421",
            "category": "agents"
          }
        ]
      },
      "biomedical_references": {
        "original_name": "Biomedical References",
        "value": "Search PubMed",
        "links": [
          {
            "text": "Search PubMed",
            "url": "https://www.ncbi.nlm.nih.gov/pubmed?term=4-Bromochlorobenzene%20AND%20human%5Bmh%5D%20AND%20%28Occupational%20Diseases%20%5Bmh%5D%20OR%20Occupational%20Exposure%20%5Bmh%5D%29%20%20AND%20%28tox%5Bsb%5D%29&cmd=search"
          }
        ],
        "cross_references": []
      }
    },
    "exposure_assessment": {
      "vapor_pressure": {
        "original_name": "Vapor Pressure",
        "value": "0.258 mm Hg",
        "links": [],
        "cross_references": []
      }
    },
    "diseases_processes_and_activities_linked_to_this_agent": {
      "other_information": {
        "original_name": "Other Information",
        "value": "No other related information on this agent was found.",
        "links": [],
        "cross_references": []
      }
    }
  },
  "cross_references": [
    {
      "type": "name_match",
      "text": "benzene",
      "confidence": 1.0,
      "uuid": "b05124de-5f34-4c14-8f04-ccb20c3780d9",
      "name": "Benzene",
      "url": "https://haz-map.com/Agents/5",
      "category": "agents"
    },
    {
      "type": "name_match",
      "text": "chlorobenzene",
      "confidence": 1.0,
      "uuid": "7e598eca-f35d-493c-aa78-93bb67744c4c",
      "name": "Chlorobenzene",
      "url": "https://haz-map.com/Agents/85",
      "category": "agents"
    },
    {
      "type": "name_match",
      "text": "bromobenzene",
      "confidence": 1.0,
      "uuid": "8d6cd7c3-5ba3-4909-b970-bc239418c7f1",
      "name": "Bromobenzene",
      "url": "https://haz-map.com/Agents/1889",
      "category": "agents"
    },
    {
      "type": "name_match",
      "text": "benzyl bromide",
      "confidence": 1.0,
      "uuid": "23b5eb4a-392f-4063-b325-5a6b411fcd4e",
      "name": "Benzyl bromide",
      "url": "https://haz-map.com/Agents/2646",
      "category": "agents"
    },
    {
      "type": "name_match",
      "text": "4-bromochlorobenzene",
      "confidence": 1.0,
      "uuid": "5f2773f5-b25b-4b79-8f4f-6032629f1a0b",
      "name": "4-Bromochlorobenzene",
      "url": "https://haz-map.com/Agents/20004",
      "category": "agents"
    },
    {
      "type": "name_match",
      "text": "p-bromobenzyl bromide",
      "confidence": 1.0,
      "uuid": "b3e0ea21-c1f1-4e5b-bc7a-b7c087355fa5",
      "name": "p-Bromobenzyl bromide",
      "url": "https://haz-map.com/Agents/21421",
      "category": "agents"
    },
    {
      "type": "fuzzy_match",
      "text": "crystalline",
      "matched_name": "Silica, crystalline",
      "confidence": 0.7061403508771931,
      "uuid": "f920e8a2-46df-41b7-af8d-0368a777251e",
      "category": "agents",
      "url": "https://haz-map.com/Agents/427"
    }
  ],
  "all_links": [
    {
      "text": "Search PubMed",
      "url": "https://www.ncbi.nlm.nih.gov/pubmed?term=4-Bromochlorobenzene%20AND%20human%5Bmh%5D%20AND%20%28Occupational%20Diseases%20%5Bmh%5D%20OR%20Occupational%20Exposure%20%5Bmh%5D%29%20%20AND%20%28tox%5Bsb%5D%29&cmd=search"
    }
  ]
}