{
  "metadata": {
    "scraped_from": "https://haz-map.com/Agents/20706",
    "entity_name": "Ethyl 4,4,4-trifluoroacetoacetate",
    "category": "agents",
    "uuid": "5f5cdc24-adf8-4f6c-87be-5259d6ce63c9",
    "scraped_at": "2025-07-23T22:30:20.077452"
  },
  "parsed_at": "2025-07-24T00:59:55.168422",
  "title": "Ethyl 4,4,4-trifluoroacetoacetate",
  "sections": {
    "general": {
      "agent_name": {
        "original_name": "Agent Name",
        "value": "Ethyl 4,4,4-trifluoroacetoacetate",
        "links": [],
        "cross_references": [
          {
            "type": "name_match",
            "text": "ethyl 4,4,4-trifluoroacetoacetate",
            "confidence": 1.0,
            "uuid": "5f5cdc24-adf8-4f6c-87be-5259d6ce63c9",
            "name": "Ethyl 4,4,4-trifluoroacetoacetate",
            "url": "https://haz-map.com/Agents/20706",
            "category": "agents"
          }
        ]
      },
      "cas_number": {
        "original_name": "CAS Number",
        "value": "372-31-6",
        "links": [],
        "cross_references": []
      },
      "formula": {
        "original_name": "Formula",
        "value": "C6-H7-F3-O3",
        "links": [],
        "cross_references": []
      },
      "major_category": {
        "original_name": "Major Category",
        "value": "Other Classes",
        "links": [],
        "cross_references": []
      },
      "synonyms": {
        "original_name": "Synonyms",
        "value": "Acetoacetic acid, 4,4,4-trifluoro-, ethyl ester; Ethyl (trifluoroacetyl)acetate; Ethyl trifluoroacetoacetate; Butanoic acid, 4,4,4-trifluoro-3-oxo-, ethyl ester; [ChemIDplus] Ethyl 4,4,4-trifluoro-3-oxobutanoate; [ECHA REACH Registrations] UN3272",
        "links": [],
        "cross_references": [
          {
            "type": "name_match",
            "text": "acetic acid",
            "confidence": 1.0,
            "uuid": "0905c6e4-df84-4895-a92d-658819239bbd",
            "name": "Acetic acid",
            "url": "https://haz-map.com/Agents/207",
            "category": "agents"
          }
        ]
      },
      "category": {
        "original_name": "Category",
        "value": "Halogenated Esters",
        "links": [],
        "cross_references": []
      },
      "description": {
        "original_name": "Description",
        "value": "Colorless liquid; [Alfa Aesar MSDS]",
        "links": [],
        "cross_references": []
      },
      "sourcesuses": {
        "original_name": "Sources/Uses",
        "value": "Used to make fine chemicals; [ExPub: ECHA REACH Registrations]",
        "links": [],
        "cross_references": [
          {
            "type": "name_match",
            "text": "mica",
            "confidence": 1.0,
            "uuid": "433f26f1-c399-4596-b179-ce3843cfd465",
            "name": "Mica",
            "url": "https://haz-map.com/Agents/621",
            "category": "agents"
          }
        ]
      },
      "comments": {
        "original_name": "Comments",
        "value": "An irritant; Toxic by ingestion; [Alfa Aesar MSDS] See \"Ethyl trifluoroacetate.\"",
        "links": [],
        "cross_references": [
          {
            "type": "name_match",
            "text": "ethyl trifluoroacetate",
            "confidence": 1.0,
            "uuid": "6be299ea-ad7b-4560-b52a-47b410e1e6a5",
            "name": "Ethyl trifluoroacetate",
            "url": "https://haz-map.com/Agents/14212",
            "category": "agents"
          }
        ]
      },
      "biomedical_references": {
        "original_name": "Biomedical References",
        "value": "Search PubMed",
        "links": [
          {
            "text": "Search PubMed",
            "url": "https://www.ncbi.nlm.nih.gov/pubmed?term=Ethyl+4%2c4%2c4-trifluoroacetoacetate%20AND%20human%5Bmh%5D%20AND%20%28Occupational%20Diseases%20%5Bmh%5D%20OR%20Occupational%20Exposure%20%5Bmh%5D%29%20%20AND%20%28tox%5Bsb%5D%29&cmd=search"
          }
        ],
        "cross_references": []
      }
    },
    "exposure_assessment": {
      "vapor_pressure": {
        "original_name": "Vapor Pressure",
        "value": "6 mm Hg",
        "links": [],
        "cross_references": []
      },
      "explanatory_notes": {
        "original_name": "Explanatory Notes",
        "value": "The Guide in the Emergency Response Guidebook is for \"Esters, n.o.s.\"",
        "links": [],
        "cross_references": []
      }
    },
    "diseases_processes_and_activities_linked_to_this_agent": {
      "other_information": {
        "original_name": "Other Information",
        "value": "No other related information on this agent was found.",
        "links": [],
        "cross_references": []
      }
    }
  },
  "cross_references": [
    {
      "type": "name_match",
      "text": "acetic acid",
      "confidence": 1.0,
      "uuid": "0905c6e4-df84-4895-a92d-658819239bbd",
      "name": "Acetic acid",
      "url": "https://haz-map.com/Agents/207",
      "category": "agents"
    },
    {
      "type": "name_match",
      "text": "mica",
      "confidence": 1.0,
      "uuid": "433f26f1-c399-4596-b179-ce3843cfd465",
      "name": "Mica",
      "url": "https://haz-map.com/Agents/621",
      "category": "agents"
    },
    {
      "type": "name_match",
      "text": "ethyl trifluoroacetate",
      "confidence": 1.0,
      "uuid": "6be299ea-ad7b-4560-b52a-47b410e1e6a5",
      "name": "Ethyl trifluoroacetate",
      "url": "https://haz-map.com/Agents/14212",
      "category": "agents"
    },
    {
      "type": "name_match",
      "text": "ethyl 4,4,4-trifluoroacetoacetate",
      "confidence": 1.0,
      "uuid": "5f5cdc24-adf8-4f6c-87be-5259d6ce63c9",
      "name": "Ethyl 4,4,4-trifluoroacetoacetate",
      "url": "https://haz-map.com/Agents/20706",
      "category": "agents"
    }
  ],
  "all_links": [
    {
      "text": "Search PubMed",
      "url": "https://www.ncbi.nlm.nih.gov/pubmed?term=Ethyl+4%2c4%2c4-trifluoroacetoacetate%20AND%20human%5Bmh%5D%20AND%20%28Occupational%20Diseases%20%5Bmh%5D%20OR%20Occupational%20Exposure%20%5Bmh%5D%29%20%20AND%20%28tox%5Bsb%5D%29&cmd=search"
    }
  ]
}