{
  "metadata": {
    "scraped_from": "https://haz-map.com/Agents/19328",
    "entity_name": "1-Bromo-3-phenylpropane",
    "category": "agents",
    "uuid": "5f8a3f8e-16c8-4477-a6de-73da39e3249a",
    "scraped_at": "2025-07-23T22:03:52.454153"
  },
  "parsed_at": "2025-07-24T01:11:23.811804",
  "title": "1-Bromo-3-phenylpropane",
  "sections": {
    "general": {
      "agent_name": {
        "original_name": "Agent Name",
        "value": "1-Bromo-3-phenylpropane",
        "links": [],
        "cross_references": [
          {
            "type": "name_match",
            "text": "propane",
            "confidence": 1.0,
            "uuid": "563a611b-46ea-4bdc-b77b-17d8f7646283",
            "name": "Propane",
            "url": "https://haz-map.com/Agents/607",
            "category": "agents"
          },
          {
            "type": "name_match",
            "text": "1-bromo-3-phenylpropane",
            "confidence": 1.0,
            "uuid": "5f8a3f8e-16c8-4477-a6de-73da39e3249a",
            "name": "1-Bromo-3-phenylpropane",
            "url": "https://haz-map.com/Agents/19328",
            "category": "agents"
          }
        ]
      },
      "cas_number": {
        "original_name": "CAS Number",
        "value": "637-59-2",
        "links": [],
        "cross_references": []
      },
      "formula": {
        "original_name": "Formula",
        "value": "C9-H11-Br",
        "links": [],
        "cross_references": []
      },
      "major_category": {
        "original_name": "Major Category",
        "value": "Other Classes",
        "links": [],
        "cross_references": []
      },
      "synonyms": {
        "original_name": "Synonyms",
        "value": "(3-Bromopropyl)benzene; (gamma-Bromopropyl)benzene; 3-Bromo-1-phenylpropane; 3-Phenylpropyl bromide; Benzene, (3-bromopropyl)-; [ChemIDplus]",
        "links": [],
        "cross_references": [
          {
            "type": "name_match",
            "text": "benzene",
            "confidence": 1.0,
            "uuid": "b05124de-5f34-4c14-8f04-ccb20c3780d9",
            "name": "Benzene",
            "url": "https://haz-map.com/Agents/5",
            "category": "agents"
          },
          {
            "type": "name_match",
            "text": "propane",
            "confidence": 1.0,
            "uuid": "563a611b-46ea-4bdc-b77b-17d8f7646283",
            "name": "Propane",
            "url": "https://haz-map.com/Agents/607",
            "category": "agents"
          }
        ]
      },
      "category": {
        "original_name": "Category",
        "value": "Halogenated Monoaromatics",
        "links": [],
        "cross_references": []
      },
      "description": {
        "original_name": "Description",
        "value": "Clear colorless liquid; [Sigma-Aldrich MSDS]",
        "links": [],
        "cross_references": []
      },
      "comments": {
        "original_name": "Comments",
        "value": "A skin and strong eye irritant; Harmful by ingestion; May cause allergic reactions in sensitive individuals; [Sigma-Aldrich MSDS] Search for (637-59-2[EC/RN Number]) AND (dermatitis OR allergic OR sensitizer OR sensitization): no results; [PubMed] See \"(2-Bromoethyl)benzene\" and \"Benzyl bromide.\"",
        "links": [],
        "cross_references": [
          {
            "type": "name_match",
            "text": "dermatitis",
            "confidence": 1.0,
            "uuid": "fe9c05f2-b19f-4ceb-ac7a-ffb7d7a0cae0",
            "name": "dermatitis",
            "url": "https://haz-map.com/Findings/59",
            "category": "findings"
          },
          {
            "type": "name_match",
            "text": "benzene",
            "confidence": 1.0,
            "uuid": "b05124de-5f34-4c14-8f04-ccb20c3780d9",
            "name": "Benzene",
            "url": "https://haz-map.com/Agents/5",
            "category": "agents"
          },
          {
            "type": "name_match",
            "text": "benzyl bromide",
            "confidence": 1.0,
            "uuid": "23b5eb4a-392f-4063-b325-5a6b411fcd4e",
            "name": "Benzyl bromide",
            "url": "https://haz-map.com/Agents/2646",
            "category": "agents"
          },
          {
            "type": "name_match",
            "text": "(2-bromoethyl)benzene",
            "confidence": 1.0,
            "uuid": "ddf4c60f-e447-4a39-9b4c-dca1a8c8569a",
            "name": "(2-Bromoethyl)benzene",
            "url": "https://haz-map.com/Agents/3835",
            "category": "agents"
          }
        ]
      },
      "biomedical_references": {
        "original_name": "Biomedical References",
        "value": "Search PubMed",
        "links": [
          {
            "text": "Search PubMed",
            "url": "https://www.ncbi.nlm.nih.gov/pubmed?term=1-Bromo-3-phenylpropane%20AND%20human%5Bmh%5D%20AND%20%28Occupational%20Diseases%20%5Bmh%5D%20OR%20Occupational%20Exposure%20%5Bmh%5D%29%20%20AND%20%28tox%5Bsb%5D%29&cmd=search"
          }
        ],
        "cross_references": []
      }
    },
    "exposure_assessment": {
      "vapor_pressure": {
        "original_name": "Vapor Pressure",
        "value": "0.063 mm Hg",
        "links": [],
        "cross_references": []
      }
    },
    "diseases_processes_and_activities_linked_to_this_agent": {
      "other_information": {
        "original_name": "Other Information",
        "value": "No other related information on this agent was found.",
        "links": [],
        "cross_references": []
      }
    }
  },
  "cross_references": [
    {
      "type": "name_match",
      "text": "dermatitis",
      "confidence": 1.0,
      "uuid": "fe9c05f2-b19f-4ceb-ac7a-ffb7d7a0cae0",
      "name": "dermatitis",
      "url": "https://haz-map.com/Findings/59",
      "category": "findings"
    },
    {
      "type": "name_match",
      "text": "benzene",
      "confidence": 1.0,
      "uuid": "b05124de-5f34-4c14-8f04-ccb20c3780d9",
      "name": "Benzene",
      "url": "https://haz-map.com/Agents/5",
      "category": "agents"
    },
    {
      "type": "name_match",
      "text": "propane",
      "confidence": 1.0,
      "uuid": "563a611b-46ea-4bdc-b77b-17d8f7646283",
      "name": "Propane",
      "url": "https://haz-map.com/Agents/607",
      "category": "agents"
    },
    {
      "type": "name_match",
      "text": "benzyl bromide",
      "confidence": 1.0,
      "uuid": "23b5eb4a-392f-4063-b325-5a6b411fcd4e",
      "name": "Benzyl bromide",
      "url": "https://haz-map.com/Agents/2646",
      "category": "agents"
    },
    {
      "type": "name_match",
      "text": "(2-bromoethyl)benzene",
      "confidence": 1.0,
      "uuid": "ddf4c60f-e447-4a39-9b4c-dca1a8c8569a",
      "name": "(2-Bromoethyl)benzene",
      "url": "https://haz-map.com/Agents/3835",
      "category": "agents"
    },
    {
      "type": "name_match",
      "text": "1-bromo-3-phenylpropane",
      "confidence": 1.0,
      "uuid": "5f8a3f8e-16c8-4477-a6de-73da39e3249a",
      "name": "1-Bromo-3-phenylpropane",
      "url": "https://haz-map.com/Agents/19328",
      "category": "agents"
    }
  ],
  "all_links": [
    {
      "text": "Search PubMed",
      "url": "https://www.ncbi.nlm.nih.gov/pubmed?term=1-Bromo-3-phenylpropane%20AND%20human%5Bmh%5D%20AND%20%28Occupational%20Diseases%20%5Bmh%5D%20OR%20Occupational%20Exposure%20%5Bmh%5D%29%20%20AND%20%28tox%5Bsb%5D%29&cmd=search"
    }
  ]
}