{
  "metadata": {
    "scraped_from": "https://haz-map.com/Agents/5892",
    "entity_name": "Magnesium nitrate",
    "category": "agents",
    "uuid": "5f93dc7a-4562-47ff-8bc2-eff0baec441e",
    "scraped_at": "2025-07-23T19:56:50.414749"
  },
  "parsed_at": "2025-07-24T01:12:15.963927",
  "title": "Magnesium nitrate",
  "sections": {
    "general": {
      "agent_name": {
        "original_name": "Agent Name",
        "value": "Magnesium nitrate",
        "links": [],
        "cross_references": [
          {
            "type": "name_match",
            "text": "magnesium",
            "confidence": 1.0,
            "uuid": "cc686725-b850-45b5-ad9d-2a40f17936a8",
            "name": "Magnesium",
            "url": "https://haz-map.com/Agents/1549",
            "category": "agents"
          },
          {
            "type": "name_match",
            "text": "magnesium nitrate",
            "confidence": 1.0,
            "uuid": "5f93dc7a-4562-47ff-8bc2-eff0baec441e",
            "name": "Magnesium nitrate",
            "url": "https://haz-map.com/Agents/5892",
            "category": "agents"
          }
        ]
      },
      "cas_number": {
        "original_name": "CAS Number",
        "value": "10377-60-3",
        "links": [],
        "cross_references": []
      },
      "formula": {
        "original_name": "Formula",
        "value": "H-N-O3.1/2Mg",
        "links": [],
        "cross_references": []
      },
      "major_category": {
        "original_name": "Major Category",
        "value": "Metals",
        "links": [],
        "cross_references": []
      },
      "synonyms": {
        "original_name": "Synonyms",
        "value": "Magnesium dinitrate; Magnesium(II) nitrate (1:2); Magniosan; Nitric acid, magnesium salt; [ChemIDplus] UN1474",
        "links": [],
        "cross_references": [
          {
            "type": "name_match",
            "text": "nitric acid",
            "confidence": 1.0,
            "uuid": "bd7295a2-ca9d-4ffb-a0d5-faa4fb9e01e7",
            "name": "Nitric acid",
            "url": "https://haz-map.com/Agents/567",
            "category": "agents"
          },
          {
            "type": "name_match",
            "text": "magnesium",
            "confidence": 1.0,
            "uuid": "cc686725-b850-45b5-ad9d-2a40f17936a8",
            "name": "Magnesium",
            "url": "https://haz-map.com/Agents/1549",
            "category": "agents"
          }
        ]
      },
      "category": {
        "original_name": "Category",
        "value": "Metals, Inorganic Compounds",
        "links": [],
        "cross_references": [
          {
            "type": "fuzzy_match",
            "text": "organic compounds",
            "matched_name": "Tin, organic compounds",
            "confidence": 0.8196969696969697,
            "uuid": "e027d413-8869-4308-9eb2-27d768b011ea",
            "category": "agents",
            "url": "https://haz-map.com/Agents/656"
          },
          {
            "type": "fuzzy_match",
            "text": "inorganic compounds",
            "matched_name": "Tin and inorganic compounds",
            "confidence": 0.8161375661375662,
            "uuid": "f9a072ab-0fbc-477a-88a2-1389e762d773",
            "category": "agents",
            "url": "https://haz-map.com/Agents/42"
          },
          {
            "type": "fuzzy_match",
            "text": "inorganic compounds",
            "matched_name": "Mercury, inorganic compounds",
            "confidence": 0.7455357142857143,
            "uuid": "4b03e512-ea73-428b-aa40-cfb4b29e3cd6",
            "category": "agents",
            "url": "https://haz-map.com/Agents/1954"
          }
        ]
      },
      "description": {
        "original_name": "Description",
        "value": "Colorless or white hygroscopic solid; [ICSC] White odorless crystals; Deliquescent; [MSDSonline]",
        "links": [],
        "cross_references": []
      },
      "sourcesuses": {
        "original_name": "Sources/Uses",
        "value": "Naturally occurring as the hydrated mineral nitromagnesite; [Merck Index] Used in pyrotechnics, petrochemical catalysts, desensitizers for lithographic plates, and the production of ammonium nitrate and nitric acid; [HSDB]",
        "links": [],
        "cross_references": [
          {
            "type": "name_match",
            "text": "magnesite",
            "confidence": 1.0,
            "uuid": "bc91dba9-cb86-4336-a282-9cc0dd8f4b16",
            "name": "Magnesite",
            "url": "https://haz-map.com/Agents/540",
            "category": "agents"
          },
          {
            "type": "name_match",
            "text": "nitric acid",
            "confidence": 1.0,
            "uuid": "bd7295a2-ca9d-4ffb-a0d5-faa4fb9e01e7",
            "name": "Nitric acid",
            "url": "https://haz-map.com/Agents/567",
            "category": "agents"
          },
          {
            "type": "name_match",
            "text": "mica",
            "confidence": 1.0,
            "uuid": "433f26f1-c399-4596-b179-ce3843cfd465",
            "name": "Mica",
            "url": "https://haz-map.com/Agents/621",
            "category": "agents"
          },
          {
            "type": "name_match",
            "text": "ammonium nitrate",
            "confidence": 1.0,
            "uuid": "dad0429e-a55b-4b69-97dc-17f4dc0ef952",
            "name": "Ammonium nitrate",
            "url": "https://haz-map.com/Agents/1024",
            "category": "agents"
          }
        ]
      },
      "comments": {
        "original_name": "Comments",
        "value": "A strong oxidizer; A fire and explosion hazard on exposure to organic materials; [Hawley] A strong oxidant; A fire and explosion hazard on contact with combustible and reducing materials; May irritate eyes and respiratory tract; Ingestion can induce methemoglobinemia; [ICSC] A severe skin, eye, and mucous membrane irritant; Can cause methemoglobinemia; [HSDB] An eye and mild skin irritant; [eChemPortal: ERMA] May cause fire on contact with combustible material; An irritant; May cause methemoglobinemia; [MSDSonline] See \"Magnesium.\" See \"NITRATES and NITRITES.\"",
        "links": [],
        "cross_references": [
          {
            "type": "name_match",
            "text": "nitrates and nitrites",
            "confidence": 1.0,
            "uuid": "6762c941-4910-4341-a779-ff9c9606e987",
            "name": "NITRATES and NITRITES",
            "url": "https://haz-map.com/Agents/1095",
            "category": "agents"
          },
          {
            "type": "name_match",
            "text": "magnesium",
            "confidence": 1.0,
            "uuid": "cc686725-b850-45b5-ad9d-2a40f17936a8",
            "name": "Magnesium",
            "url": "https://haz-map.com/Agents/1549",
            "category": "agents"
          },
          {
            "type": "name_match",
            "text": "methemoglobin",
            "confidence": 1.0,
            "uuid": "afb7ebf5-d2a3-4e60-8d2e-3a19456344ee",
            "name": "Methemoglobin",
            "url": "https://haz-map.com/Agents/15467",
            "category": "agents"
          },
          {
            "type": "fuzzy_match",
            "text": "methemoglobinemia",
            "matched_name": "Methemoglobinemia, acute",
            "confidence": 0.7208333333333333,
            "uuid": "473a44bd-cf11-4710-a769-e8e2b25ba317",
            "category": "diseases",
            "url": "https://haz-map.com/Diseases/210"
          }
        ]
      },
      "biomedical_references": {
        "original_name": "Biomedical References",
        "value": "Search PubMed",
        "links": [
          {
            "text": "Search PubMed",
            "url": "https://www.ncbi.nlm.nih.gov/pubmed?term=Magnesium+nitrate%20AND%20human%5Bmh%5D%20AND%20%28Occupational%20Diseases%20%5Bmh%5D%20OR%20Occupational%20Exposure%20%5Bmh%5D%29%20%20AND%20%28tox%5Bsb%5D%29&cmd=search"
          }
        ],
        "cross_references": []
      }
    },
    "exposure_assessment": {
      "vapor_pressure": {
        "original_name": "Vapor Pressure",
        "value": "0.494 mm Hg",
        "links": [],
        "cross_references": []
      }
    },
    "adverse_effects": {
      "methemoglobinemia": {
        "original_name": "Methemoglobinemia",
        "value": "MetHgb is secondary toxic effect",
        "links": [],
        "cross_references": []
      }
    },
    "diseases_processes_and_activities_linked_to_this_agent": {
      "activities": {
        "original_name": "Activities",
        "value": "Activities with risk of exposure: Lithography printing",
        "links": [
          {
            "text": "Lithography printing",
            "url": "https://haz-map.com/Activities/18"
          }
        ],
        "cross_references": [
          {
            "type": "url_match",
            "text": "Lithography printing",
            "url": "https://haz-map.com/Activities/18",
            "confidence": 1.0,
            "uuid": "e2d0cbb9-6054-4425-b35c-dcc7c83ddd6f",
            "name": "Lithography printing",
            "category": "activities"
          }
        ]
      }
    }
  },
  "cross_references": [
    {
      "type": "url_match",
      "text": "Lithography printing",
      "url": "https://haz-map.com/Activities/18",
      "confidence": 1.0,
      "uuid": "e2d0cbb9-6054-4425-b35c-dcc7c83ddd6f",
      "name": "Lithography printing",
      "category": "activities"
    },
    {
      "type": "name_match",
      "text": "magnesite",
      "confidence": 1.0,
      "uuid": "bc91dba9-cb86-4336-a282-9cc0dd8f4b16",
      "name": "Magnesite",
      "url": "https://haz-map.com/Agents/540",
      "category": "agents"
    },
    {
      "type": "name_match",
      "text": "nitric acid",
      "confidence": 1.0,
      "uuid": "bd7295a2-ca9d-4ffb-a0d5-faa4fb9e01e7",
      "name": "Nitric acid",
      "url": "https://haz-map.com/Agents/567",
      "category": "agents"
    },
    {
      "type": "name_match",
      "text": "mica",
      "confidence": 1.0,
      "uuid": "433f26f1-c399-4596-b179-ce3843cfd465",
      "name": "Mica",
      "url": "https://haz-map.com/Agents/621",
      "category": "agents"
    },
    {
      "type": "name_match",
      "text": "ammonium nitrate",
      "confidence": 1.0,
      "uuid": "dad0429e-a55b-4b69-97dc-17f4dc0ef952",
      "name": "Ammonium nitrate",
      "url": "https://haz-map.com/Agents/1024",
      "category": "agents"
    },
    {
      "type": "name_match",
      "text": "nitrates and nitrites",
      "confidence": 1.0,
      "uuid": "6762c941-4910-4341-a779-ff9c9606e987",
      "name": "NITRATES and NITRITES",
      "url": "https://haz-map.com/Agents/1095",
      "category": "agents"
    },
    {
      "type": "name_match",
      "text": "magnesium",
      "confidence": 1.0,
      "uuid": "cc686725-b850-45b5-ad9d-2a40f17936a8",
      "name": "Magnesium",
      "url": "https://haz-map.com/Agents/1549",
      "category": "agents"
    },
    {
      "type": "name_match",
      "text": "magnesium nitrate",
      "confidence": 1.0,
      "uuid": "5f93dc7a-4562-47ff-8bc2-eff0baec441e",
      "name": "Magnesium nitrate",
      "url": "https://haz-map.com/Agents/5892",
      "category": "agents"
    },
    {
      "type": "name_match",
      "text": "methemoglobin",
      "confidence": 1.0,
      "uuid": "afb7ebf5-d2a3-4e60-8d2e-3a19456344ee",
      "name": "Methemoglobin",
      "url": "https://haz-map.com/Agents/15467",
      "category": "agents"
    },
    {
      "type": "fuzzy_match",
      "text": "organic compounds",
      "matched_name": "Tin, organic compounds",
      "confidence": 0.8196969696969697,
      "uuid": "e027d413-8869-4308-9eb2-27d768b011ea",
      "category": "agents",
      "url": "https://haz-map.com/Agents/656"
    },
    {
      "type": "fuzzy_match",
      "text": "inorganic compounds",
      "matched_name": "Tin and inorganic compounds",
      "confidence": 0.8161375661375662,
      "uuid": "f9a072ab-0fbc-477a-88a2-1389e762d773",
      "category": "agents",
      "url": "https://haz-map.com/Agents/42"
    },
    {
      "type": "fuzzy_match",
      "text": "inorganic compounds",
      "matched_name": "Mercury, inorganic compounds",
      "confidence": 0.7455357142857143,
      "uuid": "4b03e512-ea73-428b-aa40-cfb4b29e3cd6",
      "category": "agents",
      "url": "https://haz-map.com/Agents/1954"
    },
    {
      "type": "fuzzy_match",
      "text": "methemoglobinemia",
      "matched_name": "Methemoglobinemia, acute",
      "confidence": 0.7208333333333333,
      "uuid": "473a44bd-cf11-4710-a769-e8e2b25ba317",
      "category": "diseases",
      "url": "https://haz-map.com/Diseases/210"
    }
  ],
  "all_links": [
    {
      "text": "Search PubMed",
      "url": "https://www.ncbi.nlm.nih.gov/pubmed?term=Magnesium+nitrate%20AND%20human%5Bmh%5D%20AND%20%28Occupational%20Diseases%20%5Bmh%5D%20OR%20Occupational%20Exposure%20%5Bmh%5D%29%20%20AND%20%28tox%5Bsb%5D%29&cmd=search"
    },
    {
      "text": "Lithography printing",
      "url": "https://haz-map.com/Activities/18"
    }
  ]
}