{
  "metadata": {
    "scraped_from": "https://haz-map.com/Agents/8262",
    "entity_name": "Methylcyclopentane",
    "category": "agents",
    "uuid": "5ff95a8e-db75-42d1-b99b-2e187bc2553a",
    "scraped_at": "2025-07-23T20:24:14.821030"
  },
  "parsed_at": "2025-07-24T00:57:38.302358",
  "title": "Methylcyclopentane",
  "sections": {
    "general": {
      "agent_name": {
        "original_name": "Agent Name",
        "value": "Methylcyclopentane",
        "links": [],
        "cross_references": [
          {
            "type": "name_match",
            "text": "cyclopentane",
            "confidence": 1.0,
            "uuid": "6480e7e3-674a-4296-afdc-a9ce8b2f2850",
            "name": "Cyclopentane",
            "url": "https://haz-map.com/Agents/387",
            "category": "agents"
          },
          {
            "type": "name_match",
            "text": "methylcyclopentane",
            "confidence": 1.0,
            "uuid": "5ff95a8e-db75-42d1-b99b-2e187bc2553a",
            "name": "Methylcyclopentane",
            "url": "https://haz-map.com/Agents/8262",
            "category": "agents"
          },
          {
            "type": "name_match",
            "text": "ethylcyclopentane",
            "confidence": 1.0,
            "uuid": "358f9ebf-de12-481a-80a5-9cbc12e2d4d5",
            "name": "Ethylcyclopentane",
            "url": "https://haz-map.com/Agents/13510",
            "category": "agents"
          }
        ]
      },
      "cas_number": {
        "original_name": "CAS Number",
        "value": "96-37-7",
        "links": [],
        "cross_references": []
      },
      "formula": {
        "original_name": "Formula",
        "value": "C6-H12",
        "links": [],
        "cross_references": []
      },
      "major_category": {
        "original_name": "Major Category",
        "value": "Solvents",
        "links": [],
        "cross_references": []
      },
      "synonyms": {
        "original_name": "Synonyms",
        "value": "Cyclopentane, methyl-; Methyl cyclopentane; Methylpentamethylene; [ChemIDplus] UN2298",
        "links": [],
        "cross_references": [
          {
            "type": "name_match",
            "text": "cyclopentane",
            "confidence": 1.0,
            "uuid": "6480e7e3-674a-4296-afdc-a9ce8b2f2850",
            "name": "Cyclopentane",
            "url": "https://haz-map.com/Agents/387",
            "category": "agents"
          },
          {
            "type": "name_match",
            "text": "ethylene",
            "confidence": 1.0,
            "uuid": "958eacc0-5135-4b62-bb93-6df972bf552f",
            "name": "Ethylene",
            "url": "https://haz-map.com/Agents/1076",
            "category": "agents"
          }
        ]
      },
      "category": {
        "original_name": "Category",
        "value": "Aliphatics, Saturated (<C12)",
        "links": [],
        "cross_references": []
      },
      "description": {
        "original_name": "Description",
        "value": "Colorless liquid with a sweet gasoline-like odor; [CHEMINFO]",
        "links": [],
        "cross_references": [
          {
            "type": "name_match",
            "text": "gasoline",
            "confidence": 1.0,
            "uuid": "af15c833-3eae-46c5-9af4-2214858d7282",
            "name": "Gasoline",
            "url": "https://haz-map.com/Agents/410",
            "category": "agents"
          }
        ]
      },
      "sourcesuses": {
        "original_name": "Sources/Uses",
        "value": "Used as an extractive solvent, a distillation agent, and in organic synthesis; [Hawley]",
        "links": [],
        "cross_references": []
      },
      "comments": {
        "original_name": "Comments",
        "value": "A dangerous fire and explosion risk; [Hawley] An eye and mild skin irritant; [HSDB] An eye and mild skin irritant; Inhalation of high concentrations can cause CNS depression; [CAMEO] A mild skin and temporary eye irritant; Inhalation of high concentrations can cause CNS depression; [CHEMINFO] An irritant; Effects in high-dose animal studies include general anesthesia; [MSDSonline]",
        "links": [],
        "cross_references": [
          {
            "type": "name_match",
            "text": "tempo",
            "confidence": 1.0,
            "uuid": "55930a45-7786-4f0a-a7e8-bd4064508b68",
            "name": "TEMPO",
            "url": "https://haz-map.com/Agents/17879",
            "category": "agents"
          }
        ]
      },
      "biomedical_references": {
        "original_name": "Biomedical References",
        "value": "Search PubMed",
        "links": [
          {
            "text": "Search PubMed",
            "url": "https://www.ncbi.nlm.nih.gov/pubmed?term=Methylcyclopentane%20AND%20human%5Bmh%5D%20AND%20%28Occupational%20Diseases%20%5Bmh%5D%20OR%20Occupational%20Exposure%20%5Bmh%5D%29%20%20AND%20%28tox%5Bsb%5D%29&cmd=search"
          }
        ],
        "cross_references": []
      }
    },
    "exposure_assessment": {
      "tlv_acgih": {
        "original_name": "TLV (ACGIH)",
        "value": "500 ppm",
        "links": [],
        "cross_references": []
      },
      "stel_acgih": {
        "original_name": "STEL (ACGIH)",
        "value": "1000 ppm",
        "links": [],
        "cross_references": []
      },
      "mak": {
        "original_name": "MAK",
        "value": "500 ppm",
        "links": [],
        "cross_references": []
      },
      "vapor_pressure": {
        "original_name": "Vapor Pressure",
        "value": "138 mm Hg",
        "links": [],
        "cross_references": []
      },
      "lethal_concentration": {
        "original_name": "Lethal Concentration",
        "value": "LCLo (mice) = 95,000 mg/m3",
        "links": [],
        "cross_references": []
      },
      "explanatory_notes": {
        "original_name": "Explanatory Notes",
        "value": "VP from ChemIDplus;",
        "links": [],
        "cross_references": []
      },
      "nfpa": {
        "original_name": "NFPA",
        "value": "may ignite at ambient temp",
        "links": [],
        "cross_references": []
      }
    },
    "adverse_effects": {
      "neurotoxin": {
        "original_name": "Neurotoxin",
        "value": "Acute solvent syndrome",
        "links": [],
        "cross_references": []
      }
    },
    "diseases_processes_and_activities_linked_to_this_agent": {
      "diseases": {
        "original_name": "Diseases",
        "value": "Occupational diseases associated with exposure to this agent: Solvents, acute toxic effect",
        "links": [
          {
            "text": "Solvents, acute toxic effect",
            "url": "https://haz-map.com/Diseases/326"
          }
        ],
        "cross_references": [
          {
            "type": "url_match",
            "text": "Solvents, acute toxic effect",
            "url": "https://haz-map.com/Diseases/326",
            "confidence": 1.0,
            "uuid": "581e90e3-9d0c-45f0-aa6c-3468c28da129",
            "name": "Solvents, acute toxic effect",
            "category": "diseases"
          }
        ]
      }
    }
  },
  "cross_references": [
    {
      "type": "url_match",
      "text": "Solvents, acute toxic effect",
      "url": "https://haz-map.com/Diseases/326",
      "confidence": 1.0,
      "uuid": "581e90e3-9d0c-45f0-aa6c-3468c28da129",
      "name": "Solvents, acute toxic effect",
      "category": "diseases"
    },
    {
      "type": "name_match",
      "text": "cyclopentane",
      "confidence": 1.0,
      "uuid": "6480e7e3-674a-4296-afdc-a9ce8b2f2850",
      "name": "Cyclopentane",
      "url": "https://haz-map.com/Agents/387",
      "category": "agents"
    },
    {
      "type": "name_match",
      "text": "gasoline",
      "confidence": 1.0,
      "uuid": "af15c833-3eae-46c5-9af4-2214858d7282",
      "name": "Gasoline",
      "url": "https://haz-map.com/Agents/410",
      "category": "agents"
    },
    {
      "type": "name_match",
      "text": "ethylene",
      "confidence": 1.0,
      "uuid": "958eacc0-5135-4b62-bb93-6df972bf552f",
      "name": "Ethylene",
      "url": "https://haz-map.com/Agents/1076",
      "category": "agents"
    },
    {
      "type": "name_match",
      "text": "methylcyclopentane",
      "confidence": 1.0,
      "uuid": "5ff95a8e-db75-42d1-b99b-2e187bc2553a",
      "name": "Methylcyclopentane",
      "url": "https://haz-map.com/Agents/8262",
      "category": "agents"
    },
    {
      "type": "name_match",
      "text": "ethylcyclopentane",
      "confidence": 1.0,
      "uuid": "358f9ebf-de12-481a-80a5-9cbc12e2d4d5",
      "name": "Ethylcyclopentane",
      "url": "https://haz-map.com/Agents/13510",
      "category": "agents"
    },
    {
      "type": "name_match",
      "text": "tempo",
      "confidence": 1.0,
      "uuid": "55930a45-7786-4f0a-a7e8-bd4064508b68",
      "name": "TEMPO",
      "url": "https://haz-map.com/Agents/17879",
      "category": "agents"
    }
  ],
  "all_links": [
    {
      "text": "Search PubMed",
      "url": "https://www.ncbi.nlm.nih.gov/pubmed?term=Methylcyclopentane%20AND%20human%5Bmh%5D%20AND%20%28Occupational%20Diseases%20%5Bmh%5D%20OR%20Occupational%20Exposure%20%5Bmh%5D%29%20%20AND%20%28tox%5Bsb%5D%29&cmd=search"
    },
    {
      "text": "Solvents, acute toxic effect",
      "url": "https://haz-map.com/Diseases/326"
    }
  ]
}