{
  "metadata": {
    "scraped_from": "https://haz-map.com/Agents/1507",
    "entity_name": "Neopentane",
    "category": "agents",
    "uuid": "6031b173-f7e6-438c-8a89-2fb3976b1358",
    "scraped_at": "2025-07-23T19:00:24.672867"
  },
  "parsed_at": "2025-07-24T00:58:21.704928",
  "title": "Neopentane",
  "sections": {
    "general": {
      "agent_name": {
        "original_name": "Agent Name",
        "value": "Neopentane",
        "links": [],
        "cross_references": [
          {
            "type": "name_match",
            "text": "neopentane",
            "confidence": 1.0,
            "uuid": "6031b173-f7e6-438c-8a89-2fb3976b1358",
            "name": "Neopentane",
            "url": "https://haz-map.com/Agents/1507",
            "category": "agents"
          }
        ]
      },
      "cas_number": {
        "original_name": "CAS Number",
        "value": "463-82-1",
        "links": [],
        "cross_references": []
      },
      "formula": {
        "original_name": "Formula",
        "value": "C5-H12",
        "links": [],
        "cross_references": []
      },
      "major_category": {
        "original_name": "Major Category",
        "value": "Solvents",
        "links": [],
        "cross_references": []
      },
      "synonyms": {
        "original_name": "Synonyms",
        "value": "2,2-Dimethylpropane; tert-Pentane; Tetramethylmethane; [ACGIH]",
        "links": [],
        "cross_references": [
          {
            "type": "name_match",
            "text": "propane",
            "confidence": 1.0,
            "uuid": "563a611b-46ea-4bdc-b77b-17d8f7646283",
            "name": "Propane",
            "url": "https://haz-map.com/Agents/607",
            "category": "agents"
          },
          {
            "type": "name_match",
            "text": "methane",
            "confidence": 1.0,
            "uuid": "5018bf73-24be-4353-8643-c351d5f52186",
            "name": "Methane",
            "url": "https://haz-map.com/Agents/1074",
            "category": "agents"
          },
          {
            "type": "name_match",
            "text": "ethane",
            "confidence": 1.0,
            "uuid": "5162cc8c-dfb9-4060-81ac-38a8cec7f9dd",
            "name": "Ethane",
            "url": "https://haz-map.com/Agents/1075",
            "category": "agents"
          },
          {
            "type": "fuzzy_match",
            "text": "2-dimethylpropane",
            "matched_name": "1-Chloro-2,2-dimethylpropane",
            "confidence": 0.7202380952380952,
            "uuid": "843ca1f1-a7cb-41c0-a424-1138dfad9c8f",
            "category": "agents",
            "url": "https://haz-map.com/Agents/16934"
          }
        ]
      },
      "category": {
        "original_name": "Category",
        "value": "Aliphatics, Saturated (<C12)",
        "links": [],
        "cross_references": []
      },
      "description": {
        "original_name": "Description",
        "value": "Colorless liquid with a gasoline-like odor; [ACGIH] Gas at room temperature and pressure; Shipped as a liquefied gas; [CHEMINFO]",
        "links": [],
        "cross_references": [
          {
            "type": "name_match",
            "text": "gasoline",
            "confidence": 1.0,
            "uuid": "af15c833-3eae-46c5-9af4-2214858d7282",
            "name": "Gasoline",
            "url": "https://haz-map.com/Agents/410",
            "category": "agents"
          }
        ]
      },
      "sourcesuses": {
        "original_name": "Sources/Uses",
        "value": "Used as a solvent, a blowing agent, and to manufacture low-temperature thermometers and butyl rubber; [ACGIH]",
        "links": [],
        "cross_references": [
          {
            "type": "name_match",
            "text": "butyl rubber",
            "confidence": 1.0,
            "uuid": "e475265d-92a1-427b-97d6-ed4e8cacc6df",
            "name": "Butyl rubber",
            "url": "https://haz-map.com/Agents/12605",
            "category": "agents"
          }
        ]
      },
      "comments": {
        "original_name": "Comments",
        "value": "Narcosis and irritation are \"Critical Effects.\" [ACGIH] See \"n-Pentane.\"",
        "links": [],
        "cross_references": [
          {
            "type": "name_match",
            "text": "n-pentane",
            "confidence": 1.0,
            "uuid": "829a72d6-0a09-4a6e-979e-96813e0bf757",
            "name": "n-Pentane",
            "url": "https://haz-map.com/Agents/107",
            "category": "agents"
          }
        ]
      },
      "biomedical_references": {
        "original_name": "Biomedical References",
        "value": "Search PubMed",
        "links": [
          {
            "text": "Search PubMed",
            "url": "https://www.ncbi.nlm.nih.gov/pubmed?term=Neopentane%20AND%20human%5Bmh%5D%20AND%20%28Occupational%20Diseases%20%5Bmh%5D%20OR%20Occupational%20Exposure%20%5Bmh%5D%29%20%20AND%20%28tox%5Bsb%5D%29&cmd=search"
          }
        ],
        "cross_references": []
      }
    },
    "exposure_assessment": {
      "skin_designation_acgih": {
        "original_name": "Skin Designation (ACGIH)",
        "value": "Insufficient data",
        "links": [],
        "cross_references": []
      },
      "tlv_acgih": {
        "original_name": "TLV (ACGIH)",
        "value": "1000 ppm",
        "links": [],
        "cross_references": []
      },
      "pel_osha": {
        "original_name": "PEL (OSHA)",
        "value": "1000 ppm",
        "links": [],
        "cross_references": []
      },
      "mak": {
        "original_name": "MAK",
        "value": "1000 ppm",
        "links": [],
        "cross_references": []
      },
      "vapor_pressure": {
        "original_name": "Vapor Pressure",
        "value": "1290 mm Hg",
        "links": [],
        "cross_references": []
      },
      "odor_threshold_low": {
        "original_name": "Odor Threshold Low",
        "value": "400 ppm",
        "links": [],
        "cross_references": []
      },
      "explanatory_notes": {
        "original_name": "Explanatory Notes",
        "value": "Odor threshold from ACGIH; MP = -16.6 degrees C; BP = 9.5 degrees C; [ACGIH] VP from ChemIDplus;",
        "links": [],
        "cross_references": []
      },
      "nfpa": {
        "original_name": "NFPA",
        "value": "burn readily",
        "links": [],
        "cross_references": [
          {
            "type": "name_match",
            "text": "burn",
            "confidence": 1.0,
            "uuid": "63665de5-6376-4918-8dbf-4c10c4d63837",
            "name": "burn",
            "url": "https://haz-map.com/Findings/204",
            "category": "findings"
          }
        ]
      }
    },
    "adverse_effects": {
      "neurotoxin": {
        "original_name": "Neurotoxin",
        "value": "Acute solvent syndrome",
        "links": [],
        "cross_references": []
      }
    },
    "diseases_processes_and_activities_linked_to_this_agent": {
      "diseases": {
        "original_name": "Diseases",
        "value": "Occupational diseases associated with exposure to this agent: Solvents, acute toxic effect",
        "links": [
          {
            "text": "Solvents, acute toxic effect",
            "url": "https://haz-map.com/Diseases/326"
          }
        ],
        "cross_references": [
          {
            "type": "url_match",
            "text": "Solvents, acute toxic effect",
            "url": "https://haz-map.com/Diseases/326",
            "confidence": 1.0,
            "uuid": "581e90e3-9d0c-45f0-aa6c-3468c28da129",
            "name": "Solvents, acute toxic effect",
            "category": "diseases"
          }
        ]
      }
    }
  },
  "cross_references": [
    {
      "type": "url_match",
      "text": "Solvents, acute toxic effect",
      "url": "https://haz-map.com/Diseases/326",
      "confidence": 1.0,
      "uuid": "581e90e3-9d0c-45f0-aa6c-3468c28da129",
      "name": "Solvents, acute toxic effect",
      "category": "diseases"
    },
    {
      "type": "name_match",
      "text": "burn",
      "confidence": 1.0,
      "uuid": "63665de5-6376-4918-8dbf-4c10c4d63837",
      "name": "burn",
      "url": "https://haz-map.com/Findings/204",
      "category": "findings"
    },
    {
      "type": "name_match",
      "text": "n-pentane",
      "confidence": 1.0,
      "uuid": "829a72d6-0a09-4a6e-979e-96813e0bf757",
      "name": "n-Pentane",
      "url": "https://haz-map.com/Agents/107",
      "category": "agents"
    },
    {
      "type": "name_match",
      "text": "gasoline",
      "confidence": 1.0,
      "uuid": "af15c833-3eae-46c5-9af4-2214858d7282",
      "name": "Gasoline",
      "url": "https://haz-map.com/Agents/410",
      "category": "agents"
    },
    {
      "type": "name_match",
      "text": "propane",
      "confidence": 1.0,
      "uuid": "563a611b-46ea-4bdc-b77b-17d8f7646283",
      "name": "Propane",
      "url": "https://haz-map.com/Agents/607",
      "category": "agents"
    },
    {
      "type": "name_match",
      "text": "methane",
      "confidence": 1.0,
      "uuid": "5018bf73-24be-4353-8643-c351d5f52186",
      "name": "Methane",
      "url": "https://haz-map.com/Agents/1074",
      "category": "agents"
    },
    {
      "type": "name_match",
      "text": "ethane",
      "confidence": 1.0,
      "uuid": "5162cc8c-dfb9-4060-81ac-38a8cec7f9dd",
      "name": "Ethane",
      "url": "https://haz-map.com/Agents/1075",
      "category": "agents"
    },
    {
      "type": "name_match",
      "text": "neopentane",
      "confidence": 1.0,
      "uuid": "6031b173-f7e6-438c-8a89-2fb3976b1358",
      "name": "Neopentane",
      "url": "https://haz-map.com/Agents/1507",
      "category": "agents"
    },
    {
      "type": "name_match",
      "text": "butyl rubber",
      "confidence": 1.0,
      "uuid": "e475265d-92a1-427b-97d6-ed4e8cacc6df",
      "name": "Butyl rubber",
      "url": "https://haz-map.com/Agents/12605",
      "category": "agents"
    },
    {
      "type": "fuzzy_match",
      "text": "2-dimethylpropane",
      "matched_name": "1-Chloro-2,2-dimethylpropane",
      "confidence": 0.7202380952380952,
      "uuid": "843ca1f1-a7cb-41c0-a424-1138dfad9c8f",
      "category": "agents",
      "url": "https://haz-map.com/Agents/16934"
    }
  ],
  "all_links": [
    {
      "text": "Search PubMed",
      "url": "https://www.ncbi.nlm.nih.gov/pubmed?term=Neopentane%20AND%20human%5Bmh%5D%20AND%20%28Occupational%20Diseases%20%5Bmh%5D%20OR%20Occupational%20Exposure%20%5Bmh%5D%29%20%20AND%20%28tox%5Bsb%5D%29&cmd=search"
    },
    {
      "text": "Solvents, acute toxic effect",
      "url": "https://haz-map.com/Diseases/326"
    }
  ]
}