{
  "metadata": {
    "scraped_from": "https://haz-map.com/Agents/8600",
    "entity_name": "1,3,5-Trifluorobenzene",
    "category": "agents",
    "uuid": "607dedfc-b603-45fd-985b-f024d45bba23",
    "scraped_at": "2025-07-23T20:29:12.324965"
  },
  "parsed_at": "2025-07-24T00:54:51.167831",
  "title": "1,3,5-Trifluorobenzene",
  "sections": {
    "general": {
      "agent_name": {
        "original_name": "Agent Name",
        "value": "1,3,5-Trifluorobenzene",
        "links": [],
        "cross_references": [
          {
            "type": "name_match",
            "text": "benzene",
            "confidence": 1.0,
            "uuid": "b05124de-5f34-4c14-8f04-ccb20c3780d9",
            "name": "Benzene",
            "url": "https://haz-map.com/Agents/5",
            "category": "agents"
          },
          {
            "type": "name_match",
            "text": "1,3,5-trifluorobenzene",
            "confidence": 1.0,
            "uuid": "607dedfc-b603-45fd-985b-f024d45bba23",
            "name": "1,3,5-Trifluorobenzene",
            "url": "https://haz-map.com/Agents/8600",
            "category": "agents"
          },
          {
            "type": "name_match",
            "text": "fluorobenzene",
            "confidence": 1.0,
            "uuid": "c1a78196-9690-457b-a16d-9ca478f8d65b",
            "name": "Fluorobenzene",
            "url": "https://haz-map.com/Agents/13894",
            "category": "agents"
          }
        ]
      },
      "cas_number": {
        "original_name": "CAS Number",
        "value": "372-38-3",
        "links": [],
        "cross_references": []
      },
      "formula": {
        "original_name": "Formula",
        "value": "C6-H3-F3",
        "links": [],
        "cross_references": []
      },
      "major_category": {
        "original_name": "Major Category",
        "value": "Other Classes",
        "links": [],
        "cross_references": []
      },
      "synonyms": {
        "original_name": "Synonyms",
        "value": "UN2387",
        "links": [],
        "cross_references": []
      },
      "category": {
        "original_name": "Category",
        "value": "Halogenated Monoaromatics",
        "links": [],
        "cross_references": []
      },
      "description": {
        "original_name": "Description",
        "value": "Colorless liquid; [MSDSonline]",
        "links": [],
        "cross_references": []
      },
      "comments": {
        "original_name": "Comments",
        "value": "An irritant; [MSDSonline]",
        "links": [],
        "cross_references": []
      },
      "biomedical_references": {
        "original_name": "Biomedical References",
        "value": "Search PubMed",
        "links": [
          {
            "text": "Search PubMed",
            "url": "https://www.ncbi.nlm.nih.gov/pubmed?term=1%2c3%2c5-Trifluorobenzene%20AND%20human%5Bmh%5D%20AND%20%28Occupational%20Diseases%20%5Bmh%5D%20OR%20Occupational%20Exposure%20%5Bmh%5D%29%20%20AND%20%28tox%5Bsb%5D%29&cmd=search"
          }
        ],
        "cross_references": []
      }
    },
    "exposure_assessment": {
      "vapor_pressure": {
        "original_name": "Vapor Pressure",
        "value": "104 mm Hg",
        "links": [],
        "cross_references": []
      },
      "explanatory_notes": {
        "original_name": "Explanatory Notes",
        "value": "The Guide in the Emergency Response Guidebook is for \"Fluorobenzene.\" VP from ChemIDplus;",
        "links": [],
        "cross_references": [
          {
            "type": "name_match",
            "text": "benzene",
            "confidence": 1.0,
            "uuid": "b05124de-5f34-4c14-8f04-ccb20c3780d9",
            "name": "Benzene",
            "url": "https://haz-map.com/Agents/5",
            "category": "agents"
          },
          {
            "type": "name_match",
            "text": "fluorobenzene",
            "confidence": 1.0,
            "uuid": "c1a78196-9690-457b-a16d-9ca478f8d65b",
            "name": "Fluorobenzene",
            "url": "https://haz-map.com/Agents/13894",
            "category": "agents"
          }
        ]
      }
    },
    "diseases_processes_and_activities_linked_to_this_agent": {
      "other_information": {
        "original_name": "Other Information",
        "value": "No other related information on this agent was found.",
        "links": [],
        "cross_references": []
      }
    }
  },
  "cross_references": [
    {
      "type": "name_match",
      "text": "benzene",
      "confidence": 1.0,
      "uuid": "b05124de-5f34-4c14-8f04-ccb20c3780d9",
      "name": "Benzene",
      "url": "https://haz-map.com/Agents/5",
      "category": "agents"
    },
    {
      "type": "name_match",
      "text": "1,3,5-trifluorobenzene",
      "confidence": 1.0,
      "uuid": "607dedfc-b603-45fd-985b-f024d45bba23",
      "name": "1,3,5-Trifluorobenzene",
      "url": "https://haz-map.com/Agents/8600",
      "category": "agents"
    },
    {
      "type": "name_match",
      "text": "fluorobenzene",
      "confidence": 1.0,
      "uuid": "c1a78196-9690-457b-a16d-9ca478f8d65b",
      "name": "Fluorobenzene",
      "url": "https://haz-map.com/Agents/13894",
      "category": "agents"
    }
  ],
  "all_links": [
    {
      "text": "Search PubMed",
      "url": "https://www.ncbi.nlm.nih.gov/pubmed?term=1%2c3%2c5-Trifluorobenzene%20AND%20human%5Bmh%5D%20AND%20%28Occupational%20Diseases%20%5Bmh%5D%20OR%20Occupational%20Exposure%20%5Bmh%5D%29%20%20AND%20%28tox%5Bsb%5D%29&cmd=search"
    }
  ]
}