{
  "metadata": {
    "scraped_from": "https://haz-map.com/Agents/2889",
    "entity_name": "1-Heptene",
    "category": "agents",
    "uuid": "60f0e0d2-ded9-444a-9425-902bcd228f0c",
    "scraped_at": "2025-07-23T19:20:32.527744"
  },
  "parsed_at": "2025-07-24T00:56:10.479158",
  "title": "1-Heptene",
  "sections": {
    "general": {
      "agent_name": {
        "original_name": "Agent Name",
        "value": "1-Heptene",
        "links": [],
        "cross_references": [
          {
            "type": "name_match",
            "text": "1-heptene",
            "confidence": 1.0,
            "uuid": "60f0e0d2-ded9-444a-9425-902bcd228f0c",
            "name": "1-Heptene",
            "url": "https://haz-map.com/Agents/2889",
            "category": "agents"
          },
          {
            "type": "name_match",
            "text": "heptene",
            "confidence": 1.0,
            "uuid": "a41f7be2-f9f6-47de-967c-2683b506d55d",
            "name": "Heptene",
            "url": "https://haz-map.com/Agents/14566",
            "category": "agents"
          }
        ]
      },
      "cas_number": {
        "original_name": "CAS Number",
        "value": "592-76-7",
        "links": [],
        "cross_references": []
      },
      "formula": {
        "original_name": "Formula",
        "value": "C7-H14",
        "links": [],
        "cross_references": []
      },
      "major_category": {
        "original_name": "Major Category",
        "value": "Other Classes",
        "links": [],
        "cross_references": []
      },
      "synonyms": {
        "original_name": "Synonyms",
        "value": "1-n-Heptene; Heptylene; n-Hept-1-ene; n-Heptene; [ChemIDplus] UN2278",
        "links": [],
        "cross_references": [
          {
            "type": "name_match",
            "text": "heptene",
            "confidence": 1.0,
            "uuid": "a41f7be2-f9f6-47de-967c-2683b506d55d",
            "name": "Heptene",
            "url": "https://haz-map.com/Agents/14566",
            "category": "agents"
          }
        ]
      },
      "category": {
        "original_name": "Category",
        "value": "Aliphatics, Unsaturated",
        "links": [],
        "cross_references": []
      },
      "description": {
        "original_name": "Description",
        "value": "Colorless liquid; [HSDB]",
        "links": [],
        "cross_references": []
      },
      "sourcesuses": {
        "original_name": "Sources/Uses",
        "value": "Used in the organic synthesis of flavors, perfumes, pharmaceuticals, dyes, oils, and resins; [HSDB]",
        "links": [],
        "cross_references": [
          {
            "type": "name_match",
            "text": "pharmaceuticals",
            "confidence": 1.0,
            "uuid": "713c3c30-b67e-4a2f-a90f-b32f8a306332",
            "name": "PHARMACEUTICALS",
            "url": "https://haz-map.com/Agents/1000",
            "category": "agents"
          }
        ]
      },
      "comments": {
        "original_name": "Comments",
        "value": "General anesthetic in mouse inhalation study (60,000 mg/m3/2H); [RTECS] An irritant; [MSDSonline] See \"Heptene.\"",
        "links": [],
        "cross_references": [
          {
            "type": "name_match",
            "text": "heptene",
            "confidence": 1.0,
            "uuid": "a41f7be2-f9f6-47de-967c-2683b506d55d",
            "name": "Heptene",
            "url": "https://haz-map.com/Agents/14566",
            "category": "agents"
          }
        ]
      },
      "biomedical_references": {
        "original_name": "Biomedical References",
        "value": "Search PubMed",
        "links": [
          {
            "text": "Search PubMed",
            "url": "https://www.ncbi.nlm.nih.gov/pubmed?term=1-Heptene%20AND%20human%5Bmh%5D%20AND%20%28Occupational%20Diseases%20%5Bmh%5D%20OR%20Occupational%20Exposure%20%5Bmh%5D%29%20%20AND%20%28tox%5Bsb%5D%29&cmd=search"
          }
        ],
        "cross_references": []
      }
    },
    "exposure_assessment": {
      "vapor_pressure": {
        "original_name": "Vapor Pressure",
        "value": "59.3 mm Hg",
        "links": [],
        "cross_references": []
      },
      "explanatory_notes": {
        "original_name": "Explanatory Notes",
        "value": "VP from ChemIDplus;",
        "links": [],
        "cross_references": []
      },
      "nfpa": {
        "original_name": "NFPA",
        "value": "may ignite at ambient temp",
        "links": [],
        "cross_references": []
      }
    },
    "adverse_effects": {
      "neurotoxin": {
        "original_name": "Neurotoxin",
        "value": "Acute solvent syndrome",
        "links": [],
        "cross_references": []
      }
    },
    "diseases_processes_and_activities_linked_to_this_agent": {
      "diseases": {
        "original_name": "Diseases",
        "value": "Occupational diseases associated with exposure to this agent: Solvents, acute toxic effect",
        "links": [
          {
            "text": "Solvents, acute toxic effect",
            "url": "https://haz-map.com/Diseases/326"
          }
        ],
        "cross_references": [
          {
            "type": "url_match",
            "text": "Solvents, acute toxic effect",
            "url": "https://haz-map.com/Diseases/326",
            "confidence": 1.0,
            "uuid": "581e90e3-9d0c-45f0-aa6c-3468c28da129",
            "name": "Solvents, acute toxic effect",
            "category": "diseases"
          }
        ]
      }
    }
  },
  "cross_references": [
    {
      "type": "url_match",
      "text": "Solvents, acute toxic effect",
      "url": "https://haz-map.com/Diseases/326",
      "confidence": 1.0,
      "uuid": "581e90e3-9d0c-45f0-aa6c-3468c28da129",
      "name": "Solvents, acute toxic effect",
      "category": "diseases"
    },
    {
      "type": "name_match",
      "text": "pharmaceuticals",
      "confidence": 1.0,
      "uuid": "713c3c30-b67e-4a2f-a90f-b32f8a306332",
      "name": "PHARMACEUTICALS",
      "url": "https://haz-map.com/Agents/1000",
      "category": "agents"
    },
    {
      "type": "name_match",
      "text": "1-heptene",
      "confidence": 1.0,
      "uuid": "60f0e0d2-ded9-444a-9425-902bcd228f0c",
      "name": "1-Heptene",
      "url": "https://haz-map.com/Agents/2889",
      "category": "agents"
    },
    {
      "type": "name_match",
      "text": "heptene",
      "confidence": 1.0,
      "uuid": "a41f7be2-f9f6-47de-967c-2683b506d55d",
      "name": "Heptene",
      "url": "https://haz-map.com/Agents/14566",
      "category": "agents"
    }
  ],
  "all_links": [
    {
      "text": "Search PubMed",
      "url": "https://www.ncbi.nlm.nih.gov/pubmed?term=1-Heptene%20AND%20human%5Bmh%5D%20AND%20%28Occupational%20Diseases%20%5Bmh%5D%20OR%20Occupational%20Exposure%20%5Bmh%5D%29%20%20AND%20%28tox%5Bsb%5D%29&cmd=search"
    },
    {
      "text": "Solvents, acute toxic effect",
      "url": "https://haz-map.com/Diseases/326"
    }
  ]
}