{
  "metadata": {
    "scraped_from": "https://haz-map.com/Agents/19043",
    "entity_name": "Vitamin A",
    "category": "agents",
    "uuid": "6153e6dc-c71a-4223-ba38-70dc39542046",
    "scraped_at": "2025-07-23T21:58:43.630057"
  },
  "parsed_at": "2025-07-24T00:54:41.281593",
  "title": "Vitamin A",
  "sections": {
    "general": {
      "agent_name": {
        "original_name": "Agent Name",
        "value": "Vitamin A",
        "links": [],
        "cross_references": [
          {
            "type": "name_match",
            "text": "vitamin a",
            "confidence": 1.0,
            "uuid": "6153e6dc-c71a-4223-ba38-70dc39542046",
            "name": "Vitamin A",
            "url": "https://haz-map.com/Agents/19043",
            "category": "agents"
          }
        ]
      },
      "alternative_name": {
        "original_name": "Alternative Name",
        "value": "Retinol",
        "links": [],
        "cross_references": []
      },
      "cas_number": {
        "original_name": "CAS Number",
        "value": "68-26-8",
        "links": [],
        "cross_references": []
      },
      "formula": {
        "original_name": "Formula",
        "value": "C20-H30-O",
        "links": [],
        "cross_references": []
      },
      "major_category": {
        "original_name": "Major Category",
        "value": "Biological Agents",
        "links": [],
        "cross_references": []
      },
      "synonyms": {
        "original_name": "Synonyms",
        "value": "(all-E)-3,7-Dimethyl-9-(2,6,6-trimethyl-1-cyclohexen-1-yl)-2,4,6,8-nonatetraen-1-ol; 2,4,6,8-Nonatetraen-1-ol, 3,7-dimethyl-9-(2,6,6-trimethyl-1-cyclohexen-1-yl)-, (all-E)-; 3,7-Dimethyl-9-(2,6,6-trimethyl-1-cyclchexen-1-yl)-2,4,6,8-nonatetraen-1-ol; 3,7-Dimethyl-9-(2,6,6-trimethyl-1-cyclohexen-1-yl)-2,4,6,8-nonatetraen-1-ol, (all-E)-; A-Mulsal; A-Sol; A-Vi-Pel; A-Vitan; ACON; ATAV; Afaxin; Agiolan; Agoncal; Alcovit A; all-trans Retinol; Alphalin; Alphasterol; Anatola; Anatola A; Anti-Infective vitamin; Antixerophthalmic vitamin; Antixerophthalmisches Vitamin; Aoral; Apexol; Apostavit; Aquasol A; Aquasynth; Atars; Avibon; Avita; Avitol; Axerol; Axerophthol; Axerophtholum; Bentavit A; Biosterol; Chocola A; Del-VI-A; Disatabs Tabs; Dofsol; Dohyfral A; Epiteliol; Hi-A-Vita; Homagenets Aoral; Lard Factor; Myvpack; Nio-A-Let; Oleovitamin A; Ophthalamin; Plivit A; Prepalin; Retinol; Retinol, all trans-; Retinolo [DCIT]; Retinolum [INN-Latin]; Retrovitamin A; Sehkraft A; Solu-A; Super A; Testavol; Testavol S; Vaflol; Vafol; Veroftal; Vi-Dom-A; Vi-Alpha; Vio-A; Vitamin A alcohol; Vitamin A alcohol (VAN); Vitamin A alcohol, all-trans-; Vitamin A1; Vitamin A1 alcohol; Vitamin A1 alcohol, all trans; Vitamin A1, all-trans-; Vitamine A; Vitaminum A; Vitavel-A; Vitpex; Vogan; Vogan-Neu; Wachstumsvitamin; all-trans-Retinol; all-trans-Retinyl alcohol; all-trans-Vitamin A; all-trans-Vitamin A alcohol; Alcohol 9,13-dimethyl-7-(1,1,5-trimethyl-6-cyclohexen-5-yl)-7,9,11,13-nonatetraen-15-ol; [ChemIDplus]",
        "links": [],
        "cross_references": [
          {
            "type": "name_match",
            "text": "ht",
            "confidence": 1.0,
            "uuid": "764df367-8d53-4a11-81a2-31ccfe122a8d",
            "name": "HT",
            "url": "https://haz-map.com/Agents/2168",
            "category": "agents"
          },
          {
            "type": "name_match",
            "text": "vitamin a",
            "confidence": 1.0,
            "uuid": "6153e6dc-c71a-4223-ba38-70dc39542046",
            "name": "Vitamin A",
            "url": "https://haz-map.com/Agents/19043",
            "category": "agents"
          }
        ]
      },
      "category": {
        "original_name": "Category",
        "value": "Vitamins and Derivatives",
        "links": [],
        "cross_references": []
      },
      "description": {
        "original_name": "Description",
        "value": "Solid; [Merck Index] Yellow or orange solid; [NTP]",
        "links": [],
        "cross_references": []
      },
      "sourcesuses": {
        "original_name": "Sources/Uses",
        "value": "Essential micronutrient found in animals; [Merck Index] Used as a nutritional supplement for foods; [FDA] Permitted for use as an inert ingredient in non-food pesticide products; [EPA] \"Retinol is one of the animal forms of vitamin A. It is a diterpenoid and an alcohol. It is convertible to other forms of vitamin A, and the retinyl ester derivative of the alcohol serves as the storage form of the vitamin in animals.\" [Wikipedia]",
        "links": [],
        "cross_references": [
          {
            "type": "name_match",
            "text": "vitamin a",
            "confidence": 1.0,
            "uuid": "6153e6dc-c71a-4223-ba38-70dc39542046",
            "name": "Vitamin A",
            "url": "https://haz-map.com/Agents/19043",
            "category": "agents"
          }
        ]
      },
      "comments": {
        "original_name": "Comments",
        "value": "Oral administration of high doses in adults causes cirrhosis, hemorrhage, anorexia, jaundice, and dermatitis; [RTECS] Contraindicated in pregnancy at doses > FDA RDA; May be toxic if more than 25,000 IU/d consumed for longer that 2-3 weeks; Toxic effects include liver injury and increased intracranial pressure (blurred vision, headaches, and altered mental status); Serum levels may be useful in diagnosis; [Olson, p. 69, 446] An irritant; Harmful by ingestion; Teratogenic effects observed in experimental animals; [Sigma-Aldrich MSDS]",
        "links": [],
        "cross_references": [
          {
            "type": "name_match",
            "text": "headache",
            "confidence": 1.0,
            "uuid": "a474a38d-66ac-44da-92de-de1c781a30e7",
            "name": "headache",
            "url": "https://haz-map.com/Findings/17",
            "category": "findings"
          },
          {
            "type": "name_match",
            "text": "jaundice",
            "confidence": 1.0,
            "uuid": "810fab39-c247-48bc-8475-aa897a5942da",
            "name": "jaundice",
            "url": "https://haz-map.com/Findings/19",
            "category": "findings"
          },
          {
            "type": "name_match",
            "text": "dermatitis",
            "confidence": 1.0,
            "uuid": "fe9c05f2-b19f-4ceb-ac7a-ffb7d7a0cae0",
            "name": "dermatitis",
            "url": "https://haz-map.com/Findings/59",
            "category": "findings"
          }
        ]
      },
      "biomedical_references": {
        "original_name": "Biomedical References",
        "value": "Search PubMed",
        "links": [
          {
            "text": "Search PubMed",
            "url": "https://www.ncbi.nlm.nih.gov/pubmed?term=Vitamin+A%20AND%20human%5Bmh%5D%20AND%20%28Occupational%20Diseases%20%5Bmh%5D%20OR%20Occupational%20Exposure%20%5Bmh%5D%29%20%20AND%20%28tox%5Bsb%5D%29&cmd=search"
          }
        ],
        "cross_references": []
      }
    },
    "exposure_assessment": {
      "vapor_pressure": {
        "original_name": "Vapor Pressure",
        "value": "7.5E-08 mm Hg",
        "links": [],
        "cross_references": []
      }
    },
    "adverse_effects": {
      "hepatotoxin": {
        "original_name": "Hepatotoxin",
        "value": "Hepatoxic (a) from occupational exposure (secondary effect) or (b) in animal studies or in humans after ingestion",
        "links": [],
        "cross_references": []
      }
    },
    "diseases_processes_and_activities_linked_to_this_agent": {
      "other_information": {
        "original_name": "Other Information",
        "value": "No other related information on this agent was found.",
        "links": [],
        "cross_references": []
      }
    }
  },
  "cross_references": [
    {
      "type": "name_match",
      "text": "headache",
      "confidence": 1.0,
      "uuid": "a474a38d-66ac-44da-92de-de1c781a30e7",
      "name": "headache",
      "url": "https://haz-map.com/Findings/17",
      "category": "findings"
    },
    {
      "type": "name_match",
      "text": "jaundice",
      "confidence": 1.0,
      "uuid": "810fab39-c247-48bc-8475-aa897a5942da",
      "name": "jaundice",
      "url": "https://haz-map.com/Findings/19",
      "category": "findings"
    },
    {
      "type": "name_match",
      "text": "dermatitis",
      "confidence": 1.0,
      "uuid": "fe9c05f2-b19f-4ceb-ac7a-ffb7d7a0cae0",
      "name": "dermatitis",
      "url": "https://haz-map.com/Findings/59",
      "category": "findings"
    },
    {
      "type": "name_match",
      "text": "ht",
      "confidence": 1.0,
      "uuid": "764df367-8d53-4a11-81a2-31ccfe122a8d",
      "name": "HT",
      "url": "https://haz-map.com/Agents/2168",
      "category": "agents"
    },
    {
      "type": "name_match",
      "text": "vitamin a",
      "confidence": 1.0,
      "uuid": "6153e6dc-c71a-4223-ba38-70dc39542046",
      "name": "Vitamin A",
      "url": "https://haz-map.com/Agents/19043",
      "category": "agents"
    }
  ],
  "all_links": [
    {
      "text": "Search PubMed",
      "url": "https://www.ncbi.nlm.nih.gov/pubmed?term=Vitamin+A%20AND%20human%5Bmh%5D%20AND%20%28Occupational%20Diseases%20%5Bmh%5D%20OR%20Occupational%20Exposure%20%5Bmh%5D%29%20%20AND%20%28tox%5Bsb%5D%29&cmd=search"
    }
  ]
}