{
  "metadata": {
    "scraped_from": "https://haz-map.com/Agents/10168",
    "entity_name": "1-Heptadecene",
    "category": "agents",
    "uuid": "6199c26c-f3a2-405a-9571-3e4c2a64dba4",
    "scraped_at": "2025-07-23T20:44:57.451404"
  },
  "parsed_at": "2025-07-24T01:00:30.789922",
  "title": "1-Heptadecene",
  "sections": {
    "general": {
      "agent_name": {
        "original_name": "Agent Name",
        "value": "1-Heptadecene",
        "links": [],
        "cross_references": [
          {
            "type": "name_match",
            "text": "decene",
            "confidence": 1.0,
            "uuid": "31094271-051d-41ab-9d14-1e1d404f5a06",
            "name": "Decene",
            "url": "https://haz-map.com/Agents/4666",
            "category": "agents"
          },
          {
            "type": "name_match",
            "text": "1-heptadecene",
            "confidence": 1.0,
            "uuid": "6199c26c-f3a2-405a-9571-3e4c2a64dba4",
            "name": "1-Heptadecene",
            "url": "https://haz-map.com/Agents/10168",
            "category": "agents"
          }
        ]
      },
      "cas_number": {
        "original_name": "CAS Number",
        "value": "6765-39-5",
        "links": [],
        "cross_references": []
      },
      "formula": {
        "original_name": "Formula",
        "value": "C17-H34",
        "links": [],
        "cross_references": []
      },
      "major_category": {
        "original_name": "Major Category",
        "value": "Other Classes",
        "links": [],
        "cross_references": []
      },
      "category": {
        "original_name": "Category",
        "value": "Aliphatics, Unsaturated",
        "links": [],
        "cross_references": []
      },
      "description": {
        "original_name": "Description",
        "value": "Liquid; mp = 10-11 deg C; [Aldrich MSDS]",
        "links": [],
        "cross_references": []
      },
      "comments": {
        "original_name": "Comments",
        "value": "May cause irritation; [Aldrich MSDS] See \"Dodecene\" and \"1-Hexadecene.\"",
        "links": [],
        "cross_references": [
          {
            "type": "name_match",
            "text": "decene",
            "confidence": 1.0,
            "uuid": "31094271-051d-41ab-9d14-1e1d404f5a06",
            "name": "Decene",
            "url": "https://haz-map.com/Agents/4666",
            "category": "agents"
          },
          {
            "type": "name_match",
            "text": "dodecene",
            "confidence": 1.0,
            "uuid": "9e10ab4d-b8c6-4e61-b6c6-2ae353083f32",
            "name": "Dodecene",
            "url": "https://haz-map.com/Agents/5049",
            "category": "agents"
          },
          {
            "type": "name_match",
            "text": "1-hexadecene",
            "confidence": 1.0,
            "uuid": "2a375263-4f25-415c-9db6-c2d105baf161",
            "name": "1-Hexadecene",
            "url": "https://haz-map.com/Agents/6239",
            "category": "agents"
          },
          {
            "type": "name_match",
            "text": "hexadecene",
            "confidence": 1.0,
            "uuid": "724b5b4b-0d74-43b4-b66c-cd892a247fbf",
            "name": "Hexadecene",
            "url": "https://haz-map.com/Agents/10175",
            "category": "agents"
          }
        ]
      },
      "biomedical_references": {
        "original_name": "Biomedical References",
        "value": "Search PubMed",
        "links": [
          {
            "text": "Search PubMed",
            "url": "https://www.ncbi.nlm.nih.gov/pubmed?term=1-Heptadecene%20AND%20human%5Bmh%5D%20AND%20%28Occupational%20Diseases%20%5Bmh%5D%20OR%20Occupational%20Exposure%20%5Bmh%5D%29%20%20AND%20%28tox%5Bsb%5D%29&cmd=search"
          }
        ],
        "cross_references": []
      }
    },
    "exposure_assessment": {
      "vapor_pressure": {
        "original_name": "Vapor Pressure",
        "value": "0.000454 mm Hg",
        "links": [],
        "cross_references": []
      }
    },
    "diseases_processes_and_activities_linked_to_this_agent": {
      "other_information": {
        "original_name": "Other Information",
        "value": "No other related information on this agent was found.",
        "links": [],
        "cross_references": []
      }
    }
  },
  "cross_references": [
    {
      "type": "name_match",
      "text": "decene",
      "confidence": 1.0,
      "uuid": "31094271-051d-41ab-9d14-1e1d404f5a06",
      "name": "Decene",
      "url": "https://haz-map.com/Agents/4666",
      "category": "agents"
    },
    {
      "type": "name_match",
      "text": "dodecene",
      "confidence": 1.0,
      "uuid": "9e10ab4d-b8c6-4e61-b6c6-2ae353083f32",
      "name": "Dodecene",
      "url": "https://haz-map.com/Agents/5049",
      "category": "agents"
    },
    {
      "type": "name_match",
      "text": "1-hexadecene",
      "confidence": 1.0,
      "uuid": "2a375263-4f25-415c-9db6-c2d105baf161",
      "name": "1-Hexadecene",
      "url": "https://haz-map.com/Agents/6239",
      "category": "agents"
    },
    {
      "type": "name_match",
      "text": "1-heptadecene",
      "confidence": 1.0,
      "uuid": "6199c26c-f3a2-405a-9571-3e4c2a64dba4",
      "name": "1-Heptadecene",
      "url": "https://haz-map.com/Agents/10168",
      "category": "agents"
    },
    {
      "type": "name_match",
      "text": "hexadecene",
      "confidence": 1.0,
      "uuid": "724b5b4b-0d74-43b4-b66c-cd892a247fbf",
      "name": "Hexadecene",
      "url": "https://haz-map.com/Agents/10175",
      "category": "agents"
    }
  ],
  "all_links": [
    {
      "text": "Search PubMed",
      "url": "https://www.ncbi.nlm.nih.gov/pubmed?term=1-Heptadecene%20AND%20human%5Bmh%5D%20AND%20%28Occupational%20Diseases%20%5Bmh%5D%20OR%20Occupational%20Exposure%20%5Bmh%5D%29%20%20AND%20%28tox%5Bsb%5D%29&cmd=search"
    }
  ]
}