{
  "metadata": {
    "scraped_from": "https://haz-map.com/Agents/14672",
    "entity_name": "Histidine",
    "category": "agents",
    "uuid": "621347a2-8ec9-47ae-ac8a-893639e159c3",
    "scraped_at": "2025-07-23T21:25:24.538528"
  },
  "parsed_at": "2025-07-24T01:04:51.095419",
  "title": "Histidine",
  "sections": {
    "general": {
      "agent_name": {
        "original_name": "Agent Name",
        "value": "Histidine",
        "links": [],
        "cross_references": [
          {
            "type": "name_match",
            "text": "histidine",
            "confidence": 1.0,
            "uuid": "621347a2-8ec9-47ae-ac8a-893639e159c3",
            "name": "Histidine",
            "url": "https://haz-map.com/Agents/14672",
            "category": "agents"
          }
        ]
      },
      "cas_number": {
        "original_name": "CAS Number",
        "value": "71-00-1",
        "links": [],
        "cross_references": []
      },
      "formula": {
        "original_name": "Formula",
        "value": "C6-H9-N3-O2",
        "links": [],
        "cross_references": []
      },
      "major_category": {
        "original_name": "Major Category",
        "value": "Biological Agents",
        "links": [],
        "cross_references": []
      },
      "synonyms": {
        "original_name": "Synonyms",
        "value": "(L)-Histidine; (S)-2-Amino-3-(4-imidazolyl)propionsaeure; (S)-4-(2-Amino-2-carboxyethyl)imidazole; (S)-alpha-Amino-1H-imidazole-4-propanoic acid; 1H-Imidazole-4-alanine, (S)-; 1H-Imidazole-4-propanoic acid, alpha-amino-, (S)-; 4-(2-Amino-2-carboxyethyl)imidazole; Anti-rheuma; Glyoxaline-5-alanine; HIS; Histidina [INN-Spanish]; Histidinum [INN-Latin]; Istidina; L-Alanine, 3-(1H-imidazol-4-yl)-; L-Histidine; L-beta-(4-Imidazolyl)-alpha-alanin; L-beta-(4-Imidazolyl)alanin; S-Histidine; alpha-Amino-1H-imidazole-4-propionic acid, (S)-; alpha-Amino-4(or 5)-imidazolepropionic acid; Histidine, L-; [ChemIDplus] His; H; [Merck Index]",
        "links": [],
        "cross_references": [
          {
            "type": "name_match",
            "text": "glyoxal",
            "confidence": 1.0,
            "uuid": "2b9e6427-9bb5-4761-a203-976d2bf6ac36",
            "name": "Glyoxal",
            "url": "https://haz-map.com/Agents/98",
            "category": "agents"
          },
          {
            "type": "name_match",
            "text": "propionic acid",
            "confidence": 1.0,
            "uuid": "519c4d0a-ac6f-4f79-a08f-47ebc278e0b4",
            "name": "Propionic acid",
            "url": "https://haz-map.com/Agents/609",
            "category": "agents"
          },
          {
            "type": "name_match",
            "text": "alanine",
            "confidence": 1.0,
            "uuid": "0829012c-76c4-4cb5-91ac-cacb73278dc5",
            "name": "Alanine",
            "url": "https://haz-map.com/Agents/11406",
            "category": "agents"
          },
          {
            "type": "name_match",
            "text": "histidine",
            "confidence": 1.0,
            "uuid": "621347a2-8ec9-47ae-ac8a-893639e159c3",
            "name": "Histidine",
            "url": "https://haz-map.com/Agents/14672",
            "category": "agents"
          },
          {
            "type": "name_match",
            "text": "imidazole",
            "confidence": 1.0,
            "uuid": "c328c03e-2b26-487b-8c01-799a91dd318e",
            "name": "Imidazole",
            "url": "https://haz-map.com/Agents/18775",
            "category": "agents"
          }
        ]
      },
      "category": {
        "original_name": "Category",
        "value": "Amino Acids and Derivatives",
        "links": [],
        "cross_references": []
      },
      "description": {
        "original_name": "Description",
        "value": "Solid; [Merck Index] Powder; [Sigma-Aldrich MSDS]",
        "links": [],
        "cross_references": []
      },
      "sourcesuses": {
        "original_name": "Sources/Uses",
        "value": "An essential amino acid; [Merck Index] Used as a medicine, feed additive, dietary supplement, in biochemical research, infusion solutions, diagnostic aids, and as a starting material for peptide drugs; [HSDB] Used as a flavoring agent and nutritional supplement for foods; [FDA]",
        "links": [],
        "cross_references": [
          {
            "type": "name_match",
            "text": "mica",
            "confidence": 1.0,
            "uuid": "433f26f1-c399-4596-b179-ce3843cfd465",
            "name": "Mica",
            "url": "https://haz-map.com/Agents/621",
            "category": "agents"
          }
        ]
      },
      "comments": {
        "original_name": "Comments",
        "value": "Safe when used as a flavoring agent in food; [JECFA] May cause irritation; [Sigma-Aldrich MSDS]",
        "links": [],
        "cross_references": []
      },
      "biomedical_references": {
        "original_name": "Biomedical References",
        "value": "Search PubMed",
        "links": [
          {
            "text": "Search PubMed",
            "url": "https://www.ncbi.nlm.nih.gov/pubmed?term=Histidine%20AND%20human%5Bmh%5D%20AND%20%28Occupational%20Diseases%20%5Bmh%5D%20OR%20Occupational%20Exposure%20%5Bmh%5D%29%20%20AND%20%28tox%5Bsb%5D%29&cmd=search"
          }
        ],
        "cross_references": []
      }
    },
    "exposure_assessment": {
      "vapor_pressure": {
        "original_name": "Vapor Pressure",
        "value": "5.99E-09 mm Hg",
        "links": [],
        "cross_references": []
      }
    },
    "diseases_processes_and_activities_linked_to_this_agent": {
      "processes": {
        "original_name": "Processes",
        "value": "Industrial Processes with risk of exposure: Farming (Feed Additives)",
        "links": [
          {
            "text": "Farming (Feed Additives)",
            "url": "https://haz-map.com/Processes/262"
          }
        ],
        "cross_references": []
      }
    }
  },
  "cross_references": [
    {
      "type": "name_match",
      "text": "glyoxal",
      "confidence": 1.0,
      "uuid": "2b9e6427-9bb5-4761-a203-976d2bf6ac36",
      "name": "Glyoxal",
      "url": "https://haz-map.com/Agents/98",
      "category": "agents"
    },
    {
      "type": "name_match",
      "text": "propionic acid",
      "confidence": 1.0,
      "uuid": "519c4d0a-ac6f-4f79-a08f-47ebc278e0b4",
      "name": "Propionic acid",
      "url": "https://haz-map.com/Agents/609",
      "category": "agents"
    },
    {
      "type": "name_match",
      "text": "mica",
      "confidence": 1.0,
      "uuid": "433f26f1-c399-4596-b179-ce3843cfd465",
      "name": "Mica",
      "url": "https://haz-map.com/Agents/621",
      "category": "agents"
    },
    {
      "type": "name_match",
      "text": "alanine",
      "confidence": 1.0,
      "uuid": "0829012c-76c4-4cb5-91ac-cacb73278dc5",
      "name": "Alanine",
      "url": "https://haz-map.com/Agents/11406",
      "category": "agents"
    },
    {
      "type": "name_match",
      "text": "histidine",
      "confidence": 1.0,
      "uuid": "621347a2-8ec9-47ae-ac8a-893639e159c3",
      "name": "Histidine",
      "url": "https://haz-map.com/Agents/14672",
      "category": "agents"
    },
    {
      "type": "name_match",
      "text": "imidazole",
      "confidence": 1.0,
      "uuid": "c328c03e-2b26-487b-8c01-799a91dd318e",
      "name": "Imidazole",
      "url": "https://haz-map.com/Agents/18775",
      "category": "agents"
    }
  ],
  "all_links": [
    {
      "text": "Search PubMed",
      "url": "https://www.ncbi.nlm.nih.gov/pubmed?term=Histidine%20AND%20human%5Bmh%5D%20AND%20%28Occupational%20Diseases%20%5Bmh%5D%20OR%20Occupational%20Exposure%20%5Bmh%5D%29%20%20AND%20%28tox%5Bsb%5D%29&cmd=search"
    },
    {
      "text": "Farming (Feed Additives)",
      "url": "https://haz-map.com/Processes/262"
    }
  ]
}