{
  "metadata": {
    "scraped_from": "https://haz-map.com/Agents/5875",
    "entity_name": "m-Chloroacetanilide",
    "category": "agents",
    "uuid": "621e44fe-4cb8-46f7-a41b-d3d2298d8978",
    "scraped_at": "2025-07-23T19:56:35.949506"
  },
  "parsed_at": "2025-07-24T01:11:01.319434",
  "title": "m-Chloroacetanilide",
  "sections": {
    "general": {
      "agent_name": {
        "original_name": "Agent Name",
        "value": "m-Chloroacetanilide",
        "links": [],
        "cross_references": [
          {
            "type": "name_match",
            "text": "acetanilide",
            "confidence": 1.0,
            "uuid": "73a5c68d-8466-44fa-a773-12d44f7b1458",
            "name": "Acetanilide",
            "url": "https://haz-map.com/Agents/3390",
            "category": "agents"
          },
          {
            "type": "name_match",
            "text": "m-chloroacetanilide",
            "confidence": 1.0,
            "uuid": "621e44fe-4cb8-46f7-a41b-d3d2298d8978",
            "name": "m-Chloroacetanilide",
            "url": "https://haz-map.com/Agents/5875",
            "category": "agents"
          }
        ]
      },
      "cas_number": {
        "original_name": "CAS Number",
        "value": "588-07-8",
        "links": [],
        "cross_references": []
      },
      "formula": {
        "original_name": "Formula",
        "value": "C8-H8-Cl-N-O",
        "links": [],
        "cross_references": []
      },
      "major_category": {
        "original_name": "Major Category",
        "value": "Nitrogen Compounds",
        "links": [],
        "cross_references": [
          {
            "type": "name_match",
            "text": "nitrogen",
            "confidence": 1.0,
            "uuid": "db5e90a9-06d2-45b9-8b81-f345a89b0bc0",
            "name": "Nitrogen",
            "url": "https://haz-map.com/Agents/1072",
            "category": "agents"
          }
        ]
      },
      "synonyms": {
        "original_name": "Synonyms",
        "value": "3-Chloroacetanilide; Acetamide, N-(3-chlorophenyl)-; Acetanilide, 3'-chloro-; Acetic acid, amide, N-(3-chlorophenyl)-; N-(3-Chlorophenyl)acetamide; meta-Chloroacetanilide; [ChemIDplus]",
        "links": [],
        "cross_references": [
          {
            "type": "name_match",
            "text": "acetic acid",
            "confidence": 1.0,
            "uuid": "0905c6e4-df84-4895-a92d-658819239bbd",
            "name": "Acetic acid",
            "url": "https://haz-map.com/Agents/207",
            "category": "agents"
          },
          {
            "type": "name_match",
            "text": "acetamide",
            "confidence": 1.0,
            "uuid": "dd8ffc77-2f5f-4c87-8995-3206d6c9affc",
            "name": "Acetamide",
            "url": "https://haz-map.com/Agents/3385",
            "category": "agents"
          },
          {
            "type": "name_match",
            "text": "acetanilide",
            "confidence": 1.0,
            "uuid": "73a5c68d-8466-44fa-a773-12d44f7b1458",
            "name": "Acetanilide",
            "url": "https://haz-map.com/Agents/3390",
            "category": "agents"
          }
        ]
      },
      "category": {
        "original_name": "Category",
        "value": "Other Aromatics (Nitrogen)",
        "links": [],
        "cross_references": [
          {
            "type": "name_match",
            "text": "nitrogen",
            "confidence": 1.0,
            "uuid": "db5e90a9-06d2-45b9-8b81-f345a89b0bc0",
            "name": "Nitrogen",
            "url": "https://haz-map.com/Agents/1072",
            "category": "agents"
          }
        ]
      },
      "description": {
        "original_name": "Description",
        "value": "Solid; [HSDB] Off-white or beige granules; [Alfa Aesar MSDS]",
        "links": [],
        "cross_references": []
      },
      "sourcesuses": {
        "original_name": "Sources/Uses",
        "value": "Used to make pharmaceuticals; [HSDB]",
        "links": [],
        "cross_references": [
          {
            "type": "name_match",
            "text": "pharmaceuticals",
            "confidence": 1.0,
            "uuid": "713c3c30-b67e-4a2f-a90f-b32f8a306332",
            "name": "PHARMACEUTICALS",
            "url": "https://haz-map.com/Agents/1000",
            "category": "agents"
          }
        ]
      },
      "comments": {
        "original_name": "Comments",
        "value": "Causes decreased body temperature in intraperitoneal lethal-dose study of rats; [RTECS] A skin and strong eye irritant; [Alfa Aesar MSDS] See \"Acetanilide.\" See \"p-Chloroacetanilide.\"",
        "links": [],
        "cross_references": [
          {
            "type": "name_match",
            "text": "acetanilide",
            "confidence": 1.0,
            "uuid": "73a5c68d-8466-44fa-a773-12d44f7b1458",
            "name": "Acetanilide",
            "url": "https://haz-map.com/Agents/3390",
            "category": "agents"
          },
          {
            "type": "name_match",
            "text": "p-chloroacetanilide",
            "confidence": 1.0,
            "uuid": "6b152cdb-a077-467d-a9d9-404d8e02fef9",
            "name": "p-Chloroacetanilide",
            "url": "https://haz-map.com/Agents/6502",
            "category": "agents"
          }
        ]
      },
      "biomedical_references": {
        "original_name": "Biomedical References",
        "value": "Search PubMed",
        "links": [
          {
            "text": "Search PubMed",
            "url": "https://www.ncbi.nlm.nih.gov/pubmed?term=m-Chloroacetanilide%20AND%20human%5Bmh%5D%20AND%20%28Occupational%20Diseases%20%5Bmh%5D%20OR%20Occupational%20Exposure%20%5Bmh%5D%29%20%20AND%20%28tox%5Bsb%5D%29&cmd=search"
          }
        ],
        "cross_references": []
      }
    },
    "exposure_assessment": {
      "vapor_pressure": {
        "original_name": "Vapor Pressure",
        "value": "9.63E-05 mm Hg",
        "links": [],
        "cross_references": []
      }
    },
    "diseases_processes_and_activities_linked_to_this_agent": {
      "other_information": {
        "original_name": "Other Information",
        "value": "No other related information on this agent was found.",
        "links": [],
        "cross_references": []
      }
    }
  },
  "cross_references": [
    {
      "type": "name_match",
      "text": "acetic acid",
      "confidence": 1.0,
      "uuid": "0905c6e4-df84-4895-a92d-658819239bbd",
      "name": "Acetic acid",
      "url": "https://haz-map.com/Agents/207",
      "category": "agents"
    },
    {
      "type": "name_match",
      "text": "pharmaceuticals",
      "confidence": 1.0,
      "uuid": "713c3c30-b67e-4a2f-a90f-b32f8a306332",
      "name": "PHARMACEUTICALS",
      "url": "https://haz-map.com/Agents/1000",
      "category": "agents"
    },
    {
      "type": "name_match",
      "text": "nitrogen",
      "confidence": 1.0,
      "uuid": "db5e90a9-06d2-45b9-8b81-f345a89b0bc0",
      "name": "Nitrogen",
      "url": "https://haz-map.com/Agents/1072",
      "category": "agents"
    },
    {
      "type": "name_match",
      "text": "acetamide",
      "confidence": 1.0,
      "uuid": "dd8ffc77-2f5f-4c87-8995-3206d6c9affc",
      "name": "Acetamide",
      "url": "https://haz-map.com/Agents/3385",
      "category": "agents"
    },
    {
      "type": "name_match",
      "text": "acetanilide",
      "confidence": 1.0,
      "uuid": "73a5c68d-8466-44fa-a773-12d44f7b1458",
      "name": "Acetanilide",
      "url": "https://haz-map.com/Agents/3390",
      "category": "agents"
    },
    {
      "type": "name_match",
      "text": "m-chloroacetanilide",
      "confidence": 1.0,
      "uuid": "621e44fe-4cb8-46f7-a41b-d3d2298d8978",
      "name": "m-Chloroacetanilide",
      "url": "https://haz-map.com/Agents/5875",
      "category": "agents"
    },
    {
      "type": "name_match",
      "text": "p-chloroacetanilide",
      "confidence": 1.0,
      "uuid": "6b152cdb-a077-467d-a9d9-404d8e02fef9",
      "name": "p-Chloroacetanilide",
      "url": "https://haz-map.com/Agents/6502",
      "category": "agents"
    }
  ],
  "all_links": [
    {
      "text": "Search PubMed",
      "url": "https://www.ncbi.nlm.nih.gov/pubmed?term=m-Chloroacetanilide%20AND%20human%5Bmh%5D%20AND%20%28Occupational%20Diseases%20%5Bmh%5D%20OR%20Occupational%20Exposure%20%5Bmh%5D%29%20%20AND%20%28tox%5Bsb%5D%29&cmd=search"
    }
  ]
}