{
  "metadata": {
    "scraped_from": "https://haz-map.com/Agents/19054",
    "entity_name": "Ornithine",
    "category": "agents",
    "uuid": "6221b594-9a66-4da9-bf76-8a3f58ef065c",
    "scraped_at": "2025-07-23T21:58:57.812482"
  },
  "parsed_at": "2025-07-24T01:07:33.774567",
  "title": "Ornithine",
  "sections": {
    "general": {
      "agent_name": {
        "original_name": "Agent Name",
        "value": "Ornithine",
        "links": [],
        "cross_references": [
          {
            "type": "name_match",
            "text": "ornithine",
            "confidence": 1.0,
            "uuid": "6221b594-9a66-4da9-bf76-8a3f58ef065c",
            "name": "Ornithine",
            "url": "https://haz-map.com/Agents/19054",
            "category": "agents"
          }
        ]
      },
      "cas_number": {
        "original_name": "CAS Number",
        "value": "70-26-8",
        "links": [],
        "cross_references": []
      },
      "formula": {
        "original_name": "Formula",
        "value": "C5-H12-N2-O2",
        "links": [],
        "cross_references": []
      },
      "major_category": {
        "original_name": "Major Category",
        "value": "Biological Agents",
        "links": [],
        "cross_references": []
      },
      "synonyms": {
        "original_name": "Synonyms",
        "value": "(S)-2,5-Diaminopentanoic acid; (S)-Ornithine; (S)-alpha,delta-Diaminovaleric acid; L(-)-Ornithine; L-Norvaline, 5-amino-; Ornithinum [Latin]; Ornitina [Spanish]; Pentanoic acid, 2,5-diamino-, (S)-; L-Ornithine; [ChemIDplus]",
        "links": [],
        "cross_references": [
          {
            "type": "name_match",
            "text": "valine",
            "confidence": 1.0,
            "uuid": "2284e5a1-ea67-4774-8b4e-3eaa65e20c4f",
            "name": "Valine",
            "url": "https://haz-map.com/Agents/18597",
            "category": "agents"
          },
          {
            "type": "name_match",
            "text": "ornithine",
            "confidence": 1.0,
            "uuid": "6221b594-9a66-4da9-bf76-8a3f58ef065c",
            "name": "Ornithine",
            "url": "https://haz-map.com/Agents/19054",
            "category": "agents"
          }
        ]
      },
      "category": {
        "original_name": "Category",
        "value": "Amino Acids and Derivatives",
        "links": [],
        "cross_references": []
      },
      "description": {
        "original_name": "Description",
        "value": "Colorless solid; [Merck Index]",
        "links": [],
        "cross_references": []
      },
      "sourcesuses": {
        "original_name": "Sources/Uses",
        "value": "A non-essential amino acid; Has been used in the treatment of hyperammonemia; [Merck Index]",
        "links": [],
        "cross_references": []
      },
      "biomedical_references": {
        "original_name": "Biomedical References",
        "value": "Search PubMed",
        "links": [
          {
            "text": "Search PubMed",
            "url": "https://www.ncbi.nlm.nih.gov/pubmed?term=Ornithine%20AND%20human%5Bmh%5D%20AND%20%28Occupational%20Diseases%20%5Bmh%5D%20OR%20Occupational%20Exposure%20%5Bmh%5D%29%20%20AND%20%28tox%5Bsb%5D%29&cmd=search"
          }
        ],
        "cross_references": []
      }
    },
    "exposure_assessment": {
      "vapor_pressure": {
        "original_name": "Vapor Pressure",
        "value": "1.11E-09 mm Hg",
        "links": [],
        "cross_references": []
      }
    },
    "diseases_processes_and_activities_linked_to_this_agent": {
      "other_information": {
        "original_name": "Other Information",
        "value": "No other related information on this agent was found.",
        "links": [],
        "cross_references": []
      }
    }
  },
  "cross_references": [
    {
      "type": "name_match",
      "text": "valine",
      "confidence": 1.0,
      "uuid": "2284e5a1-ea67-4774-8b4e-3eaa65e20c4f",
      "name": "Valine",
      "url": "https://haz-map.com/Agents/18597",
      "category": "agents"
    },
    {
      "type": "name_match",
      "text": "ornithine",
      "confidence": 1.0,
      "uuid": "6221b594-9a66-4da9-bf76-8a3f58ef065c",
      "name": "Ornithine",
      "url": "https://haz-map.com/Agents/19054",
      "category": "agents"
    }
  ],
  "all_links": [
    {
      "text": "Search PubMed",
      "url": "https://www.ncbi.nlm.nih.gov/pubmed?term=Ornithine%20AND%20human%5Bmh%5D%20AND%20%28Occupational%20Diseases%20%5Bmh%5D%20OR%20Occupational%20Exposure%20%5Bmh%5D%29%20%20AND%20%28tox%5Bsb%5D%29&cmd=search"
    }
  ]
}