{
  "metadata": {
    "scraped_from": "https://haz-map.com/Agents/2684",
    "entity_name": "1,1,1-Trichloro-2,2-diphenylethane",
    "category": "agents",
    "uuid": "623341c5-89f0-4320-be73-d420cf6cc95f",
    "scraped_at": "2025-07-23T19:17:33.536613"
  },
  "parsed_at": "2025-07-24T01:08:31.337275",
  "title": "1,1,1-Trichloro-2,2-diphenylethane",
  "sections": {
    "general": {
      "agent_name": {
        "original_name": "Agent Name",
        "value": "1,1,1-Trichloro-2,2-diphenylethane",
        "links": [],
        "cross_references": [
          {
            "type": "name_match",
            "text": "ethane",
            "confidence": 1.0,
            "uuid": "5162cc8c-dfb9-4060-81ac-38a8cec7f9dd",
            "name": "Ethane",
            "url": "https://haz-map.com/Agents/1075",
            "category": "agents"
          },
          {
            "type": "name_match",
            "text": "1,1,1-trichloro-2,2-diphenylethane",
            "confidence": 1.0,
            "uuid": "623341c5-89f0-4320-be73-d420cf6cc95f",
            "name": "1,1,1-Trichloro-2,2-diphenylethane",
            "url": "https://haz-map.com/Agents/2684",
            "category": "agents"
          }
        ]
      },
      "cas_number": {
        "original_name": "CAS Number",
        "value": "2971-22-4",
        "links": [],
        "cross_references": []
      },
      "formula": {
        "original_name": "Formula",
        "value": "C14-H11-Cl3",
        "links": [],
        "cross_references": []
      },
      "major_category": {
        "original_name": "Major Category",
        "value": "Other Classes",
        "links": [],
        "cross_references": []
      },
      "synonyms": {
        "original_name": "Synonyms",
        "value": "1,1'-(2,2,2-Trichloroethylidene)dibenzene; 1,1-Diphenyl-2,2,2-trichloroethane; 2,2-Diphenyl-1,1,1-trichloroethane; Benzene, 1,1'-(2,2,2-trichloroethylidene)bis-; DPE; DPT; DPT (VAN); Diphenyltrichloroethane; Ethane, 1,1,1-trichloro-2,2-diphenyl-; Ethane, 2,2-diphenyl-1,1,1-trichloro-; Ethane, 1,1,1-trichloro-2,2-diphenyl- (8CI); Ethane, 2,2-diphenyl-1,1,1-trichloro-; [ChemIDplus]",
        "links": [],
        "cross_references": [
          {
            "type": "name_match",
            "text": "benzene",
            "confidence": 1.0,
            "uuid": "b05124de-5f34-4c14-8f04-ccb20c3780d9",
            "name": "Benzene",
            "url": "https://haz-map.com/Agents/5",
            "category": "agents"
          },
          {
            "type": "name_match",
            "text": "1,1,1-trichloroethane",
            "confidence": 1.0,
            "uuid": "c57a9823-fe7d-4ac8-866d-06940e23c4fa",
            "name": "1,1,1-Trichloroethane",
            "url": "https://haz-map.com/Agents/111",
            "category": "agents"
          },
          {
            "type": "name_match",
            "text": "ethane",
            "confidence": 1.0,
            "uuid": "5162cc8c-dfb9-4060-81ac-38a8cec7f9dd",
            "name": "Ethane",
            "url": "https://haz-map.com/Agents/1075",
            "category": "agents"
          },
          {
            "type": "fuzzy_match",
            "text": "2-trichloroethane",
            "matched_name": "1,1,2-Trichloroethane",
            "confidence": 0.8333333333333333,
            "uuid": "93ad3bc7-6d11-497a-98ed-76d948c1a602",
            "category": "agents",
            "url": "https://haz-map.com/Agents/112"
          }
        ]
      },
      "category": {
        "original_name": "Category",
        "value": "Halogenated Polyaromatics",
        "links": [],
        "cross_references": []
      },
      "description": {
        "original_name": "Description",
        "value": "Solid; [HSDB]",
        "links": [],
        "cross_references": []
      },
      "sourcesuses": {
        "original_name": "Sources/Uses",
        "value": "Used as a chemical intermediate for diphenylacetic acid (herbicide intermediate); [HSDB]",
        "links": [],
        "cross_references": [
          {
            "type": "name_match",
            "text": "acetic acid",
            "confidence": 1.0,
            "uuid": "0905c6e4-df84-4895-a92d-658819239bbd",
            "name": "Acetic acid",
            "url": "https://haz-map.com/Agents/207",
            "category": "agents"
          },
          {
            "type": "name_match",
            "text": "mica",
            "confidence": 1.0,
            "uuid": "433f26f1-c399-4596-b179-ce3843cfd465",
            "name": "Mica",
            "url": "https://haz-map.com/Agents/621",
            "category": "agents"
          },
          {
            "type": "name_match",
            "text": "phenylacetic acid",
            "confidence": 1.0,
            "uuid": "9fd56a07-b965-4725-89f1-49d42ccba118",
            "name": "Phenylacetic acid",
            "url": "https://haz-map.com/Agents/6638",
            "category": "agents"
          },
          {
            "type": "name_match",
            "text": "diphenylacetic acid",
            "confidence": 1.0,
            "uuid": "7325a6a5-617b-4a35-8a39-6119fcc92e79",
            "name": "Diphenylacetic acid",
            "url": "https://haz-map.com/Agents/20639",
            "category": "agents"
          }
        ]
      },
      "comments": {
        "original_name": "Comments",
        "value": "One of the synonyms for DDT is \"1,1,1-Trichloro-2,2-di(4-chlorophenyl)-ethane.\" See \"DDT.\"",
        "links": [],
        "cross_references": [
          {
            "type": "name_match",
            "text": "ddt",
            "confidence": 1.0,
            "uuid": "b72cf02d-cbc0-4a1a-b231-0ca3471937b6",
            "name": "DDT",
            "url": "https://haz-map.com/Agents/232",
            "category": "agents"
          },
          {
            "type": "name_match",
            "text": "ethane",
            "confidence": 1.0,
            "uuid": "5162cc8c-dfb9-4060-81ac-38a8cec7f9dd",
            "name": "Ethane",
            "url": "https://haz-map.com/Agents/1075",
            "category": "agents"
          }
        ]
      },
      "biomedical_references": {
        "original_name": "Biomedical References",
        "value": "Search PubMed",
        "links": [
          {
            "text": "Search PubMed",
            "url": "https://www.ncbi.nlm.nih.gov/pubmed?term=1%2c1%2c1-Trichloro-2%2c2-diphenylethane%20AND%20human%5Bmh%5D%20AND%20%28Occupational%20Diseases%20%5Bmh%5D%20OR%20Occupational%20Exposure%20%5Bmh%5D%29%20%20AND%20%28tox%5Bsb%5D%29&cmd=search"
          }
        ],
        "cross_references": []
      }
    },
    "exposure_assessment": {
      "vapor_pressure": {
        "original_name": "Vapor Pressure",
        "value": "8.99E-05 mm Hg",
        "links": [],
        "cross_references": []
      }
    },
    "diseases_processes_and_activities_linked_to_this_agent": {
      "other_information": {
        "original_name": "Other Information",
        "value": "No other related information on this agent was found.",
        "links": [],
        "cross_references": []
      }
    }
  },
  "cross_references": [
    {
      "type": "name_match",
      "text": "benzene",
      "confidence": 1.0,
      "uuid": "b05124de-5f34-4c14-8f04-ccb20c3780d9",
      "name": "Benzene",
      "url": "https://haz-map.com/Agents/5",
      "category": "agents"
    },
    {
      "type": "name_match",
      "text": "1,1,1-trichloroethane",
      "confidence": 1.0,
      "uuid": "c57a9823-fe7d-4ac8-866d-06940e23c4fa",
      "name": "1,1,1-Trichloroethane",
      "url": "https://haz-map.com/Agents/111",
      "category": "agents"
    },
    {
      "type": "name_match",
      "text": "acetic acid",
      "confidence": 1.0,
      "uuid": "0905c6e4-df84-4895-a92d-658819239bbd",
      "name": "Acetic acid",
      "url": "https://haz-map.com/Agents/207",
      "category": "agents"
    },
    {
      "type": "name_match",
      "text": "ddt",
      "confidence": 1.0,
      "uuid": "b72cf02d-cbc0-4a1a-b231-0ca3471937b6",
      "name": "DDT",
      "url": "https://haz-map.com/Agents/232",
      "category": "agents"
    },
    {
      "type": "name_match",
      "text": "mica",
      "confidence": 1.0,
      "uuid": "433f26f1-c399-4596-b179-ce3843cfd465",
      "name": "Mica",
      "url": "https://haz-map.com/Agents/621",
      "category": "agents"
    },
    {
      "type": "name_match",
      "text": "ethane",
      "confidence": 1.0,
      "uuid": "5162cc8c-dfb9-4060-81ac-38a8cec7f9dd",
      "name": "Ethane",
      "url": "https://haz-map.com/Agents/1075",
      "category": "agents"
    },
    {
      "type": "name_match",
      "text": "1,1,1-trichloro-2,2-diphenylethane",
      "confidence": 1.0,
      "uuid": "623341c5-89f0-4320-be73-d420cf6cc95f",
      "name": "1,1,1-Trichloro-2,2-diphenylethane",
      "url": "https://haz-map.com/Agents/2684",
      "category": "agents"
    },
    {
      "type": "name_match",
      "text": "phenylacetic acid",
      "confidence": 1.0,
      "uuid": "9fd56a07-b965-4725-89f1-49d42ccba118",
      "name": "Phenylacetic acid",
      "url": "https://haz-map.com/Agents/6638",
      "category": "agents"
    },
    {
      "type": "name_match",
      "text": "diphenylacetic acid",
      "confidence": 1.0,
      "uuid": "7325a6a5-617b-4a35-8a39-6119fcc92e79",
      "name": "Diphenylacetic acid",
      "url": "https://haz-map.com/Agents/20639",
      "category": "agents"
    },
    {
      "type": "fuzzy_match",
      "text": "2-trichloroethane",
      "matched_name": "1,1,2-Trichloroethane",
      "confidence": 0.8333333333333333,
      "uuid": "93ad3bc7-6d11-497a-98ed-76d948c1a602",
      "category": "agents",
      "url": "https://haz-map.com/Agents/112"
    }
  ],
  "all_links": [
    {
      "text": "Search PubMed",
      "url": "https://www.ncbi.nlm.nih.gov/pubmed?term=1%2c1%2c1-Trichloro-2%2c2-diphenylethane%20AND%20human%5Bmh%5D%20AND%20%28Occupational%20Diseases%20%5Bmh%5D%20OR%20Occupational%20Exposure%20%5Bmh%5D%29%20%20AND%20%28tox%5Bsb%5D%29&cmd=search"
    }
  ]
}