{
  "metadata": {
    "scraped_from": "https://haz-map.com/Agents/19284",
    "entity_name": "Cadaverine",
    "category": "agents",
    "uuid": "6247512b-adfa-44c4-88eb-35b56612044b",
    "scraped_at": "2025-07-23T22:02:57.493359"
  },
  "parsed_at": "2025-07-24T01:19:25.192728",
  "title": "Cadaverine",
  "sections": {
    "general": {
      "agent_name": {
        "original_name": "Agent Name",
        "value": "Cadaverine",
        "links": [],
        "cross_references": [
          {
            "type": "name_match",
            "text": "cadaverine",
            "confidence": 1.0,
            "uuid": "6247512b-adfa-44c4-88eb-35b56612044b",
            "name": "Cadaverine",
            "url": "https://haz-map.com/Agents/19284",
            "category": "agents"
          }
        ]
      },
      "cas_number": {
        "original_name": "CAS Number",
        "value": "462-94-2",
        "links": [],
        "cross_references": []
      },
      "formula": {
        "original_name": "Formula",
        "value": "C5-H14-N2",
        "links": [],
        "cross_references": []
      },
      "major_category": {
        "original_name": "Major Category",
        "value": "Nitrogen Compounds",
        "links": [],
        "cross_references": [
          {
            "type": "name_match",
            "text": "nitrogen",
            "confidence": 1.0,
            "uuid": "db5e90a9-06d2-45b9-8b81-f345a89b0bc0",
            "name": "Nitrogen",
            "url": "https://haz-map.com/Agents/1072",
            "category": "agents"
          }
        ]
      },
      "synonyms": {
        "original_name": "Synonyms",
        "value": "1,5-Diaminopentane; 1,5-Pentamethylenediamine; Animal coniine; Cadaverin; Pentamethylenediamine; 1,5-Pentanediamine; [ChemIDplus] UN2735",
        "links": [],
        "cross_references": [
          {
            "type": "name_match",
            "text": "ethylenediamine",
            "confidence": 1.0,
            "uuid": "64071736-683c-4d60-a83d-83a0e42c3e75",
            "name": "Ethylenediamine",
            "url": "https://haz-map.com/Agents/480",
            "category": "agents"
          },
          {
            "type": "name_match",
            "text": "ethylene",
            "confidence": 1.0,
            "uuid": "958eacc0-5135-4b62-bb93-6df972bf552f",
            "name": "Ethylene",
            "url": "https://haz-map.com/Agents/1076",
            "category": "agents"
          },
          {
            "type": "name_match",
            "text": "coniine",
            "confidence": 1.0,
            "uuid": "f4d8243e-f874-41ea-bd9c-2c052f16b8c7",
            "name": "Coniine",
            "url": "https://haz-map.com/Agents/4496",
            "category": "agents"
          }
        ]
      },
      "category": {
        "original_name": "Category",
        "value": "Amines, Aliphatic",
        "links": [],
        "cross_references": []
      },
      "description": {
        "original_name": "Description",
        "value": "Colorless syrupy liquid that fumes in air; mp = 9 deg C; [Merck Index] Colorless hygroscopic liquid with an amine-like odor; [Alfa Aesar MSDS]",
        "links": [],
        "cross_references": []
      },
      "sourcesuses": {
        "original_name": "Sources/Uses",
        "value": "\"A foul-smelling diamine formed by bacterial decarboxylation of lysine.\" [ChemIDplus] Biogenic polyamine present in cholera discharge; [Merck Index] Formed from decay of animal proteins; Used to make high polymers, as an intermediate, and in biological research; [HSDB] \"Cadaverine is a foul-smelling diamine compound produced by protein hydrolysis during putrefaction of animal tissue.\" [Wikipedia]",
        "links": [],
        "cross_references": [
          {
            "type": "name_match",
            "text": "lysine",
            "confidence": 1.0,
            "uuid": "0ad3eb48-a004-4e5a-b335-2295b8d098f9",
            "name": "Lysine",
            "url": "https://haz-map.com/Agents/15293",
            "category": "agents"
          },
          {
            "type": "name_match",
            "text": "cadaverine",
            "confidence": 1.0,
            "uuid": "6247512b-adfa-44c4-88eb-35b56612044b",
            "name": "Cadaverine",
            "url": "https://haz-map.com/Agents/19284",
            "category": "agents"
          }
        ]
      },
      "comments": {
        "original_name": "Comments",
        "value": "A strong base that attracts carbon dioxide; A skin irritant and possible sensitizer; [Merck Index] Causes burns; [HSDB] Causes burns; Inhalation may cause corrosive injuries to upper respiratory tract and lungs; [Alfa Aesar MSDS] Search for (462-94-2[EC/RN Number]) AND (sensitizer OR sensitization OR allergic OR dermatitis): no papers confirming skin sensitization; [PubMed] See \"1,6-Diaminohexane.\"",
        "links": [],
        "cross_references": [
          {
            "type": "name_match",
            "text": "dermatitis",
            "confidence": 1.0,
            "uuid": "fe9c05f2-b19f-4ceb-ac7a-ffb7d7a0cae0",
            "name": "dermatitis",
            "url": "https://haz-map.com/Findings/59",
            "category": "findings"
          },
          {
            "type": "name_match",
            "text": "burn",
            "confidence": 1.0,
            "uuid": "63665de5-6376-4918-8dbf-4c10c4d63837",
            "name": "burn",
            "url": "https://haz-map.com/Findings/204",
            "category": "findings"
          },
          {
            "type": "name_match",
            "text": "carbon dioxide",
            "confidence": 1.0,
            "uuid": "57cdc8ca-b9ce-490c-a076-713b6642f8e8",
            "name": "Carbon dioxide",
            "url": "https://haz-map.com/Agents/343",
            "category": "agents"
          },
          {
            "type": "name_match",
            "text": "carbon",
            "confidence": 1.0,
            "uuid": "b53f8815-ee80-40ef-b4aa-3b000e17dab5",
            "name": "Carbon",
            "url": "https://haz-map.com/Agents/1891",
            "category": "agents"
          },
          {
            "type": "name_match",
            "text": "1,6-diaminohexane",
            "confidence": 1.0,
            "uuid": "26fd4331-a4b3-4383-b3d7-a4431065ed6a",
            "name": "1,6-Diaminohexane",
            "url": "https://haz-map.com/Agents/7929",
            "category": "agents"
          }
        ]
      },
      "biomedical_references": {
        "original_name": "Biomedical References",
        "value": "Search PubMed",
        "links": [
          {
            "text": "Search PubMed",
            "url": "https://www.ncbi.nlm.nih.gov/pubmed?term=Cadaverine%20AND%20human%5Bmh%5D%20AND%20%28Occupational%20Diseases%20%5Bmh%5D%20OR%20Occupational%20Exposure%20%5Bmh%5D%29%20%20AND%20%28tox%5Bsb%5D%29&cmd=search"
          }
        ],
        "cross_references": []
      }
    },
    "exposure_assessment": {
      "vapor_pressure": {
        "original_name": "Vapor Pressure",
        "value": "1.01 mm Hg",
        "links": [],
        "cross_references": []
      },
      "explanatory_notes": {
        "original_name": "Explanatory Notes",
        "value": "The Guide in the Emergency Response Guidebook is for \"Polyamines, liquid, corrosive, n.o.s.\"",
        "links": [],
        "cross_references": []
      },
      "nfpa": {
        "original_name": "NFPA",
        "value": "high ambient temp required",
        "links": [],
        "cross_references": []
      }
    },
    "adverse_effects": {
      "toxic_pneumonitis": {
        "original_name": "Toxic Pneumonitis",
        "value": "Yes",
        "links": [],
        "cross_references": []
      },
      "dermatotoxin": {
        "original_name": "Dermatotoxin",
        "value": "Skin burns",
        "links": [],
        "cross_references": [
          {
            "type": "name_match",
            "text": "burn",
            "confidence": 1.0,
            "uuid": "63665de5-6376-4918-8dbf-4c10c4d63837",
            "name": "burn",
            "url": "https://haz-map.com/Findings/204",
            "category": "findings"
          }
        ]
      }
    },
    "diseases_processes_and_activities_linked_to_this_agent": {
      "other_information": {
        "original_name": "Other Information",
        "value": "No other related information on this agent was found.",
        "links": [],
        "cross_references": []
      }
    }
  },
  "cross_references": [
    {
      "type": "name_match",
      "text": "dermatitis",
      "confidence": 1.0,
      "uuid": "fe9c05f2-b19f-4ceb-ac7a-ffb7d7a0cae0",
      "name": "dermatitis",
      "url": "https://haz-map.com/Findings/59",
      "category": "findings"
    },
    {
      "type": "name_match",
      "text": "burn",
      "confidence": 1.0,
      "uuid": "63665de5-6376-4918-8dbf-4c10c4d63837",
      "name": "burn",
      "url": "https://haz-map.com/Findings/204",
      "category": "findings"
    },
    {
      "type": "name_match",
      "text": "carbon dioxide",
      "confidence": 1.0,
      "uuid": "57cdc8ca-b9ce-490c-a076-713b6642f8e8",
      "name": "Carbon dioxide",
      "url": "https://haz-map.com/Agents/343",
      "category": "agents"
    },
    {
      "type": "name_match",
      "text": "ethylenediamine",
      "confidence": 1.0,
      "uuid": "64071736-683c-4d60-a83d-83a0e42c3e75",
      "name": "Ethylenediamine",
      "url": "https://haz-map.com/Agents/480",
      "category": "agents"
    },
    {
      "type": "name_match",
      "text": "nitrogen",
      "confidence": 1.0,
      "uuid": "db5e90a9-06d2-45b9-8b81-f345a89b0bc0",
      "name": "Nitrogen",
      "url": "https://haz-map.com/Agents/1072",
      "category": "agents"
    },
    {
      "type": "name_match",
      "text": "ethylene",
      "confidence": 1.0,
      "uuid": "958eacc0-5135-4b62-bb93-6df972bf552f",
      "name": "Ethylene",
      "url": "https://haz-map.com/Agents/1076",
      "category": "agents"
    },
    {
      "type": "name_match",
      "text": "carbon",
      "confidence": 1.0,
      "uuid": "b53f8815-ee80-40ef-b4aa-3b000e17dab5",
      "name": "Carbon",
      "url": "https://haz-map.com/Agents/1891",
      "category": "agents"
    },
    {
      "type": "name_match",
      "text": "coniine",
      "confidence": 1.0,
      "uuid": "f4d8243e-f874-41ea-bd9c-2c052f16b8c7",
      "name": "Coniine",
      "url": "https://haz-map.com/Agents/4496",
      "category": "agents"
    },
    {
      "type": "name_match",
      "text": "1,6-diaminohexane",
      "confidence": 1.0,
      "uuid": "26fd4331-a4b3-4383-b3d7-a4431065ed6a",
      "name": "1,6-Diaminohexane",
      "url": "https://haz-map.com/Agents/7929",
      "category": "agents"
    },
    {
      "type": "name_match",
      "text": "lysine",
      "confidence": 1.0,
      "uuid": "0ad3eb48-a004-4e5a-b335-2295b8d098f9",
      "name": "Lysine",
      "url": "https://haz-map.com/Agents/15293",
      "category": "agents"
    },
    {
      "type": "name_match",
      "text": "cadaverine",
      "confidence": 1.0,
      "uuid": "6247512b-adfa-44c4-88eb-35b56612044b",
      "name": "Cadaverine",
      "url": "https://haz-map.com/Agents/19284",
      "category": "agents"
    }
  ],
  "all_links": [
    {
      "text": "Search PubMed",
      "url": "https://www.ncbi.nlm.nih.gov/pubmed?term=Cadaverine%20AND%20human%5Bmh%5D%20AND%20%28Occupational%20Diseases%20%5Bmh%5D%20OR%20Occupational%20Exposure%20%5Bmh%5D%29%20%20AND%20%28tox%5Bsb%5D%29&cmd=search"
    }
  ]
}