{
  "metadata": {
    "scraped_from": "https://haz-map.com/Agents/10877",
    "entity_name": "2-Hydroxybenzophenone",
    "category": "agents",
    "uuid": "633b8b14-5ec5-4103-b172-89f6f4545466",
    "scraped_at": "2025-07-23T20:53:50.885475"
  },
  "parsed_at": "2025-07-24T01:13:17.087311",
  "title": "2-Hydroxybenzophenone",
  "sections": {
    "general": {
      "agent_name": {
        "original_name": "Agent Name",
        "value": "2-Hydroxybenzophenone",
        "links": [],
        "cross_references": [
          {
            "type": "name_match",
            "text": "benzophenone",
            "confidence": 1.0,
            "uuid": "3fe45323-f1b9-4c0c-8aeb-7879750d2af2",
            "name": "Benzophenone",
            "url": "https://haz-map.com/Agents/3865",
            "category": "agents"
          },
          {
            "type": "name_match",
            "text": "2-hydroxybenzophenone",
            "confidence": 1.0,
            "uuid": "633b8b14-5ec5-4103-b172-89f6f4545466",
            "name": "2-Hydroxybenzophenone",
            "url": "https://haz-map.com/Agents/10877",
            "category": "agents"
          }
        ]
      },
      "cas_number": {
        "original_name": "CAS Number",
        "value": "117-99-7",
        "links": [],
        "cross_references": []
      },
      "formula": {
        "original_name": "Formula",
        "value": "C13-H10-O2",
        "links": [],
        "cross_references": []
      },
      "major_category": {
        "original_name": "Major Category",
        "value": "Other Classes",
        "links": [],
        "cross_references": []
      },
      "synonyms": {
        "original_name": "Synonyms",
        "value": "Phenyl 2-Hydroxyphenyl ketone; o-Benzoylphenol; o-Hydroxybenzophenone; Benzophenone, 2-hydroxy- (8CI); Methanone, (2-hydroxyphenyl)phenyl-; [ChemIDplus]",
        "links": [],
        "cross_references": [
          {
            "type": "name_match",
            "text": "phenol",
            "confidence": 1.0,
            "uuid": "03141a03-a7df-4f51-9a37-adde1a7c4b31",
            "name": "Phenol",
            "url": "https://haz-map.com/Agents/84",
            "category": "agents"
          },
          {
            "type": "name_match",
            "text": "benzophenone",
            "confidence": 1.0,
            "uuid": "3fe45323-f1b9-4c0c-8aeb-7879750d2af2",
            "name": "Benzophenone",
            "url": "https://haz-map.com/Agents/3865",
            "category": "agents"
          }
        ]
      },
      "category": {
        "original_name": "Category",
        "value": "Benzophenones",
        "links": [],
        "cross_references": [
          {
            "type": "name_match",
            "text": "benzophenone",
            "confidence": 1.0,
            "uuid": "3fe45323-f1b9-4c0c-8aeb-7879750d2af2",
            "name": "Benzophenone",
            "url": "https://haz-map.com/Agents/3865",
            "category": "agents"
          }
        ]
      },
      "description": {
        "original_name": "Description",
        "value": "Powder; mp = 37-39 deg C; [Alfa Aesar MSDS]",
        "links": [],
        "cross_references": []
      },
      "comments": {
        "original_name": "Comments",
        "value": "A skin and strong eye irritant; [Alfa Aesar MSDS] See \"Benzophenone.\"",
        "links": [],
        "cross_references": [
          {
            "type": "name_match",
            "text": "benzophenone",
            "confidence": 1.0,
            "uuid": "3fe45323-f1b9-4c0c-8aeb-7879750d2af2",
            "name": "Benzophenone",
            "url": "https://haz-map.com/Agents/3865",
            "category": "agents"
          }
        ]
      },
      "biomedical_references": {
        "original_name": "Biomedical References",
        "value": "Search PubMed",
        "links": [
          {
            "text": "Search PubMed",
            "url": "https://www.ncbi.nlm.nih.gov/pubmed?term=2-Hydroxybenzophenone%20AND%20human%5Bmh%5D%20AND%20%28Occupational%20Diseases%20%5Bmh%5D%20OR%20Occupational%20Exposure%20%5Bmh%5D%29%20%20AND%20%28tox%5Bsb%5D%29&cmd=search"
          }
        ],
        "cross_references": []
      }
    },
    "exposure_assessment": {
      "vapor_pressure": {
        "original_name": "Vapor Pressure",
        "value": "1E-05 mm Hg",
        "links": [],
        "cross_references": []
      },
      "explanatory_notes": {
        "original_name": "Explanatory Notes",
        "value": "VP from ChemIDplus;",
        "links": [],
        "cross_references": []
      }
    },
    "diseases_processes_and_activities_linked_to_this_agent": {
      "other_information": {
        "original_name": "Other Information",
        "value": "No other related information on this agent was found.",
        "links": [],
        "cross_references": []
      }
    }
  },
  "cross_references": [
    {
      "type": "name_match",
      "text": "phenol",
      "confidence": 1.0,
      "uuid": "03141a03-a7df-4f51-9a37-adde1a7c4b31",
      "name": "Phenol",
      "url": "https://haz-map.com/Agents/84",
      "category": "agents"
    },
    {
      "type": "name_match",
      "text": "benzophenone",
      "confidence": 1.0,
      "uuid": "3fe45323-f1b9-4c0c-8aeb-7879750d2af2",
      "name": "Benzophenone",
      "url": "https://haz-map.com/Agents/3865",
      "category": "agents"
    },
    {
      "type": "name_match",
      "text": "2-hydroxybenzophenone",
      "confidence": 1.0,
      "uuid": "633b8b14-5ec5-4103-b172-89f6f4545466",
      "name": "2-Hydroxybenzophenone",
      "url": "https://haz-map.com/Agents/10877",
      "category": "agents"
    }
  ],
  "all_links": [
    {
      "text": "Search PubMed",
      "url": "https://www.ncbi.nlm.nih.gov/pubmed?term=2-Hydroxybenzophenone%20AND%20human%5Bmh%5D%20AND%20%28Occupational%20Diseases%20%5Bmh%5D%20OR%20Occupational%20Exposure%20%5Bmh%5D%29%20%20AND%20%28tox%5Bsb%5D%29&cmd=search"
    }
  ]
}