{
  "metadata": {
    "scraped_from": "https://haz-map.com/Agents/2720",
    "entity_name": "1,2,3,4-Tetrachloronaphthalene",
    "category": "agents",
    "uuid": "634a9ccb-7f90-4cc3-a373-8702c73d48c1",
    "scraped_at": "2025-07-23T19:18:03.344844"
  },
  "parsed_at": "2025-07-24T01:06:25.573754",
  "title": "1,2,3,4-Tetrachloronaphthalene",
  "sections": {
    "general": {
      "agent_name": {
        "original_name": "Agent Name",
        "value": "1,2,3,4-Tetrachloronaphthalene",
        "links": [],
        "cross_references": [
          {
            "type": "name_match",
            "text": "naphthalene",
            "confidence": 1.0,
            "uuid": "433cf489-5423-4297-a38e-6e755a9d458e",
            "name": "Naphthalene",
            "url": "https://haz-map.com/Agents/46",
            "category": "agents"
          },
          {
            "type": "name_match",
            "text": "tetrachloronaphthalene",
            "confidence": 1.0,
            "uuid": "2fd677b1-d5e2-4450-b7bf-c4289651e01e",
            "name": "Tetrachloronaphthalene",
            "url": "https://haz-map.com/Agents/648",
            "category": "agents"
          },
          {
            "type": "name_match",
            "text": "ht",
            "confidence": 1.0,
            "uuid": "764df367-8d53-4a11-81a2-31ccfe122a8d",
            "name": "HT",
            "url": "https://haz-map.com/Agents/2168",
            "category": "agents"
          },
          {
            "type": "name_match",
            "text": "1,2,3,4-tetrachloronaphthalene",
            "confidence": 1.0,
            "uuid": "634a9ccb-7f90-4cc3-a373-8702c73d48c1",
            "name": "1,2,3,4-Tetrachloronaphthalene",
            "url": "https://haz-map.com/Agents/2720",
            "category": "agents"
          }
        ]
      },
      "cas_number": {
        "original_name": "CAS Number",
        "value": "20020-02-4",
        "links": [],
        "cross_references": []
      },
      "formula": {
        "original_name": "Formula",
        "value": "C10-H4-Cl4",
        "links": [],
        "cross_references": []
      },
      "major_category": {
        "original_name": "Major Category",
        "value": "Other Classes",
        "links": [],
        "cross_references": []
      },
      "synonyms": {
        "original_name": "Synonyms",
        "value": "Naphthalene, 1,2,3,4-tetrachloro-; Nibren wax; Seekay wax; [ChemIDplus]",
        "links": [],
        "cross_references": [
          {
            "type": "name_match",
            "text": "naphthalene",
            "confidence": 1.0,
            "uuid": "433cf489-5423-4297-a38e-6e755a9d458e",
            "name": "Naphthalene",
            "url": "https://haz-map.com/Agents/46",
            "category": "agents"
          },
          {
            "type": "name_match",
            "text": "ht",
            "confidence": 1.0,
            "uuid": "764df367-8d53-4a11-81a2-31ccfe122a8d",
            "name": "HT",
            "url": "https://haz-map.com/Agents/2168",
            "category": "agents"
          }
        ]
      },
      "category": {
        "original_name": "Category",
        "value": "Halowaxes",
        "links": [],
        "cross_references": []
      },
      "description": {
        "original_name": "Description",
        "value": "Light-brown solid; [CAMEO]",
        "links": [],
        "cross_references": [
          {
            "type": "name_match",
            "text": "ht",
            "confidence": 1.0,
            "uuid": "764df367-8d53-4a11-81a2-31ccfe122a8d",
            "name": "HT",
            "url": "https://haz-map.com/Agents/2168",
            "category": "agents"
          }
        ]
      },
      "sourcesuses": {
        "original_name": "Sources/Uses",
        "value": "No known commercial uses for purified tetrachloronaphthalenes; [HSDB] See \"CHLORINATED NAPHTHALENES.\"",
        "links": [],
        "cross_references": [
          {
            "type": "name_match",
            "text": "naphthalene",
            "confidence": 1.0,
            "uuid": "433cf489-5423-4297-a38e-6e755a9d458e",
            "name": "Naphthalene",
            "url": "https://haz-map.com/Agents/46",
            "category": "agents"
          },
          {
            "type": "name_match",
            "text": "tetrachloronaphthalene",
            "confidence": 1.0,
            "uuid": "2fd677b1-d5e2-4450-b7bf-c4289651e01e",
            "name": "Tetrachloronaphthalene",
            "url": "https://haz-map.com/Agents/648",
            "category": "agents"
          },
          {
            "type": "name_match",
            "text": "ht",
            "confidence": 1.0,
            "uuid": "764df367-8d53-4a11-81a2-31ccfe122a8d",
            "name": "HT",
            "url": "https://haz-map.com/Agents/2168",
            "category": "agents"
          },
          {
            "type": "name_match",
            "text": "chlorinated naphthalenes",
            "confidence": 1.0,
            "uuid": "1a8161f5-f44d-4447-b55a-ee85b9c75148",
            "name": "CHLORINATED NAPHTHALENES",
            "url": "https://haz-map.com/Agents/9425",
            "category": "agents"
          },
          {
            "type": "name_match",
            "text": "chlorin",
            "confidence": 1.0,
            "uuid": "4a566fec-ec7e-42b0-9f14-ec586335e694",
            "name": "Chlorin",
            "url": "https://haz-map.com/Agents/20422",
            "category": "agents"
          }
        ]
      },
      "comments": {
        "original_name": "Comments",
        "value": "\"Exposure to this chemical may cause acneiform dermatitis, headache, fatigue, anorexia and vertigo. It may also cause jaundice and other symptoms of liver failure.\" [HSDB] Toxic by inhalation, ingestion, and skin absorption; Strongly irritating; [CAMEO] An eye irritant; [MSDSonline] See \"CHLORINATED NAPHTHALENES.\"",
        "links": [],
        "cross_references": [
          {
            "type": "name_match",
            "text": "fatigue",
            "confidence": 1.0,
            "uuid": "038d5edd-aa09-4a6b-970a-e8a506517915",
            "name": "fatigue",
            "url": "https://haz-map.com/Findings/2",
            "category": "findings"
          },
          {
            "type": "name_match",
            "text": "headache",
            "confidence": 1.0,
            "uuid": "a474a38d-66ac-44da-92de-de1c781a30e7",
            "name": "headache",
            "url": "https://haz-map.com/Findings/17",
            "category": "findings"
          },
          {
            "type": "name_match",
            "text": "jaundice",
            "confidence": 1.0,
            "uuid": "810fab39-c247-48bc-8475-aa897a5942da",
            "name": "jaundice",
            "url": "https://haz-map.com/Findings/19",
            "category": "findings"
          },
          {
            "type": "name_match",
            "text": "dermatitis",
            "confidence": 1.0,
            "uuid": "fe9c05f2-b19f-4ceb-ac7a-ffb7d7a0cae0",
            "name": "dermatitis",
            "url": "https://haz-map.com/Findings/59",
            "category": "findings"
          },
          {
            "type": "name_match",
            "text": "acne",
            "confidence": 1.0,
            "uuid": "f329eccb-9e30-4782-83cb-36dfe9817bbf",
            "name": "acne",
            "url": "https://haz-map.com/Findings/133",
            "category": "findings"
          },
          {
            "type": "name_match",
            "text": "naphthalene",
            "confidence": 1.0,
            "uuid": "433cf489-5423-4297-a38e-6e755a9d458e",
            "name": "Naphthalene",
            "url": "https://haz-map.com/Agents/46",
            "category": "agents"
          },
          {
            "type": "name_match",
            "text": "mica",
            "confidence": 1.0,
            "uuid": "433f26f1-c399-4596-b179-ce3843cfd465",
            "name": "Mica",
            "url": "https://haz-map.com/Agents/621",
            "category": "agents"
          },
          {
            "type": "name_match",
            "text": "ht",
            "confidence": 1.0,
            "uuid": "764df367-8d53-4a11-81a2-31ccfe122a8d",
            "name": "HT",
            "url": "https://haz-map.com/Agents/2168",
            "category": "agents"
          },
          {
            "type": "name_match",
            "text": "chlorinated naphthalenes",
            "confidence": 1.0,
            "uuid": "1a8161f5-f44d-4447-b55a-ee85b9c75148",
            "name": "CHLORINATED NAPHTHALENES",
            "url": "https://haz-map.com/Agents/9425",
            "category": "agents"
          },
          {
            "type": "name_match",
            "text": "chlorin",
            "confidence": 1.0,
            "uuid": "4a566fec-ec7e-42b0-9f14-ec586335e694",
            "name": "Chlorin",
            "url": "https://haz-map.com/Agents/20422",
            "category": "agents"
          }
        ]
      },
      "restricted": {
        "original_name": "Restricted",
        "value": "Not manufactured in the US since 1977; No longer used in capacitors or electric cable coverings; Largely discontinued as lubricants; No longer used as wood preservatives in the US; [HSDB]",
        "links": [],
        "cross_references": []
      },
      "reference_link_1": {
        "original_name": "Reference Link #1",
        "value": "INCHEM CICAD: CHLORINATED NAPHTHALENES - 2001",
        "links": [
          {
            "text": "INCHEM CICAD: CHLORINATED NAPHTHALENES - 2001",
            "url": "http://www.inchem.org/documents/cicads/cicads/cicad34.htm"
          }
        ],
        "cross_references": [
          {
            "type": "name_match",
            "text": "naphthalene",
            "confidence": 1.0,
            "uuid": "433cf489-5423-4297-a38e-6e755a9d458e",
            "name": "Naphthalene",
            "url": "https://haz-map.com/Agents/46",
            "category": "agents"
          },
          {
            "type": "name_match",
            "text": "ht",
            "confidence": 1.0,
            "uuid": "764df367-8d53-4a11-81a2-31ccfe122a8d",
            "name": "HT",
            "url": "https://haz-map.com/Agents/2168",
            "category": "agents"
          },
          {
            "type": "name_match",
            "text": "chlorinated naphthalenes",
            "confidence": 1.0,
            "uuid": "1a8161f5-f44d-4447-b55a-ee85b9c75148",
            "name": "CHLORINATED NAPHTHALENES",
            "url": "https://haz-map.com/Agents/9425",
            "category": "agents"
          },
          {
            "type": "name_match",
            "text": "chlorin",
            "confidence": 1.0,
            "uuid": "4a566fec-ec7e-42b0-9f14-ec586335e694",
            "name": "Chlorin",
            "url": "https://haz-map.com/Agents/20422",
            "category": "agents"
          }
        ]
      },
      "biomedical_references": {
        "original_name": "Biomedical References",
        "value": "Search PubMed",
        "links": [
          {
            "text": "Search PubMed",
            "url": "https://www.ncbi.nlm.nih.gov/pubmed?term=1%2c2%2c3%2c4-Tetrachloronaphthalene%20AND%20human%5Bmh%5D%20AND%20%28Occupational%20Diseases%20%5Bmh%5D%20OR%20Occupational%20Exposure%20%5Bmh%5D%29%20%20AND%20%28tox%5Bsb%5D%29&cmd=search"
          }
        ],
        "cross_references": []
      }
    },
    "exposure_assessment": {
      "bioaccumulates": {
        "original_name": "Bioaccumulates",
        "value": "Yes",
        "links": [],
        "cross_references": []
      },
      "vapor_pressure": {
        "original_name": "Vapor Pressure",
        "value": "2.9E-06 mm Hg",
        "links": [],
        "cross_references": []
      }
    },
    "diseases_processes_and_activities_linked_to_this_agent": {
      "other_information": {
        "original_name": "Other Information",
        "value": "No other related information on this agent was found.",
        "links": [],
        "cross_references": []
      }
    }
  },
  "cross_references": [
    {
      "type": "name_match",
      "text": "fatigue",
      "confidence": 1.0,
      "uuid": "038d5edd-aa09-4a6b-970a-e8a506517915",
      "name": "fatigue",
      "url": "https://haz-map.com/Findings/2",
      "category": "findings"
    },
    {
      "type": "name_match",
      "text": "headache",
      "confidence": 1.0,
      "uuid": "a474a38d-66ac-44da-92de-de1c781a30e7",
      "name": "headache",
      "url": "https://haz-map.com/Findings/17",
      "category": "findings"
    },
    {
      "type": "name_match",
      "text": "jaundice",
      "confidence": 1.0,
      "uuid": "810fab39-c247-48bc-8475-aa897a5942da",
      "name": "jaundice",
      "url": "https://haz-map.com/Findings/19",
      "category": "findings"
    },
    {
      "type": "name_match",
      "text": "dermatitis",
      "confidence": 1.0,
      "uuid": "fe9c05f2-b19f-4ceb-ac7a-ffb7d7a0cae0",
      "name": "dermatitis",
      "url": "https://haz-map.com/Findings/59",
      "category": "findings"
    },
    {
      "type": "name_match",
      "text": "acne",
      "confidence": 1.0,
      "uuid": "f329eccb-9e30-4782-83cb-36dfe9817bbf",
      "name": "acne",
      "url": "https://haz-map.com/Findings/133",
      "category": "findings"
    },
    {
      "type": "name_match",
      "text": "naphthalene",
      "confidence": 1.0,
      "uuid": "433cf489-5423-4297-a38e-6e755a9d458e",
      "name": "Naphthalene",
      "url": "https://haz-map.com/Agents/46",
      "category": "agents"
    },
    {
      "type": "name_match",
      "text": "mica",
      "confidence": 1.0,
      "uuid": "433f26f1-c399-4596-b179-ce3843cfd465",
      "name": "Mica",
      "url": "https://haz-map.com/Agents/621",
      "category": "agents"
    },
    {
      "type": "name_match",
      "text": "tetrachloronaphthalene",
      "confidence": 1.0,
      "uuid": "2fd677b1-d5e2-4450-b7bf-c4289651e01e",
      "name": "Tetrachloronaphthalene",
      "url": "https://haz-map.com/Agents/648",
      "category": "agents"
    },
    {
      "type": "name_match",
      "text": "ht",
      "confidence": 1.0,
      "uuid": "764df367-8d53-4a11-81a2-31ccfe122a8d",
      "name": "HT",
      "url": "https://haz-map.com/Agents/2168",
      "category": "agents"
    },
    {
      "type": "name_match",
      "text": "1,2,3,4-tetrachloronaphthalene",
      "confidence": 1.0,
      "uuid": "634a9ccb-7f90-4cc3-a373-8702c73d48c1",
      "name": "1,2,3,4-Tetrachloronaphthalene",
      "url": "https://haz-map.com/Agents/2720",
      "category": "agents"
    },
    {
      "type": "name_match",
      "text": "chlorinated naphthalenes",
      "confidence": 1.0,
      "uuid": "1a8161f5-f44d-4447-b55a-ee85b9c75148",
      "name": "CHLORINATED NAPHTHALENES",
      "url": "https://haz-map.com/Agents/9425",
      "category": "agents"
    },
    {
      "type": "name_match",
      "text": "chlorin",
      "confidence": 1.0,
      "uuid": "4a566fec-ec7e-42b0-9f14-ec586335e694",
      "name": "Chlorin",
      "url": "https://haz-map.com/Agents/20422",
      "category": "agents"
    }
  ],
  "all_links": [
    {
      "text": "INCHEM CICAD: CHLORINATED NAPHTHALENES - 2001",
      "url": "http://www.inchem.org/documents/cicads/cicads/cicad34.htm"
    },
    {
      "text": "Search PubMed",
      "url": "https://www.ncbi.nlm.nih.gov/pubmed?term=1%2c2%2c3%2c4-Tetrachloronaphthalene%20AND%20human%5Bmh%5D%20AND%20%28Occupational%20Diseases%20%5Bmh%5D%20OR%20Occupational%20Exposure%20%5Bmh%5D%29%20%20AND%20%28tox%5Bsb%5D%29&cmd=search"
    }
  ]
}