{
  "metadata": {
    "scraped_from": "https://haz-map.com/Agents/4214",
    "entity_name": "Carbanolate",
    "category": "agents",
    "uuid": "636edeb2-46f2-42b1-ad70-9bc307a6dee8",
    "scraped_at": "2025-07-23T19:38:55.966630"
  },
  "parsed_at": "2025-07-24T00:53:40.177523",
  "title": "Carbanolate",
  "sections": {
    "general": {
      "agent_name": {
        "original_name": "Agent Name",
        "value": "Carbanolate",
        "links": [],
        "cross_references": [
          {
            "type": "name_match",
            "text": "carbanolate",
            "confidence": 1.0,
            "uuid": "636edeb2-46f2-42b1-ad70-9bc307a6dee8",
            "name": "Carbanolate",
            "url": "https://haz-map.com/Agents/4214",
            "category": "agents"
          }
        ]
      },
      "cas_number": {
        "original_name": "CAS Number",
        "value": "671-04-5",
        "links": [],
        "cross_references": []
      },
      "formula": {
        "original_name": "Formula",
        "value": "C10-H12-Cl-N-O2",
        "links": [],
        "cross_references": []
      },
      "major_category": {
        "original_name": "Major Category",
        "value": "Pesticides",
        "links": [],
        "cross_references": []
      },
      "synonyms": {
        "original_name": "Synonyms",
        "value": "2-Chloro-4,5-dimethylphenol methyl carbamate; 2-Chloro-4,5-dimethylphenol methylcarbamate; 2-Chloro-4,5-dimethylphenyl N-methylcarbamate; 2-Chloro-4,5-dimethylphenyl methylcarbamate; 2-Chloro-4,5-xylyl N-methylcarbamate; 3,4-Dimethyl-6-chlorophenyl N-methylcarbamate; 6-Chloro-3,4-dimethylphenyl N-methylcarbamate; 6-Chloro-3,4-xylenyl N-methylcarbamate; 6-Chloro-3,4-xylyl N-methylcarbamate; 6-Chloro-3,4-xylyl methylcarbamate; Banol; Banol Tuco Sok; Carbamic acid, methyl-, (2-chloro-4,5-dimethyl)phenyl ester; Carbamic acid, methyl-, 2-chloro-4,5-xylyl ester; Carbamic acid, methyl-, 6-chloro-3,4-xylyl ester; Chloroxylam; OMS-174; Phenol, 2-chloro-4,5-dimethyl-, methylcarbamate; Sok; U 12927; U-17004; Upjohn U-12,927; [ChemIDplus]",
        "links": [],
        "cross_references": [
          {
            "type": "name_match",
            "text": "phenol",
            "confidence": 1.0,
            "uuid": "03141a03-a7df-4f51-9a37-adde1a7c4b31",
            "name": "Phenol",
            "url": "https://haz-map.com/Agents/84",
            "category": "agents"
          },
          {
            "type": "name_match",
            "text": "methyl carbamate",
            "confidence": 1.0,
            "uuid": "25095735-49b1-4267-b344-d478f57808d9",
            "name": "Methyl carbamate",
            "url": "https://haz-map.com/Agents/6075",
            "category": "agents"
          },
          {
            "type": "name_match",
            "text": "phenyl methylcarbamate",
            "confidence": 1.0,
            "uuid": "d4affaf6-2df5-4c83-8dc7-54a9c7973886",
            "name": "Phenyl methylcarbamate",
            "url": "https://haz-map.com/Agents/6657",
            "category": "agents"
          },
          {
            "type": "fuzzy_match",
            "text": "5-dimethylphenol",
            "matched_name": "2,5-Dimethylphenol",
            "confidence": 0.8777777777777778,
            "uuid": "362c1d56-559e-4727-a680-7e24502f0a7d",
            "category": "agents",
            "url": "https://haz-map.com/Agents/3027"
          },
          {
            "type": "fuzzy_match",
            "text": "5-dimethylphenol",
            "matched_name": "3,5-Dimethylphenol",
            "confidence": 0.8777777777777778,
            "uuid": "ffb14c2b-57f9-495d-9a6e-f6ee2ca79837",
            "category": "agents",
            "url": "https://haz-map.com/Agents/3208"
          }
        ]
      },
      "category": {
        "original_name": "Category",
        "value": "Carbamate Insecticides",
        "links": [],
        "cross_references": [
          {
            "type": "name_match",
            "text": "carbamate insecticides",
            "confidence": 1.0,
            "uuid": "d406afe4-aed9-49d6-a6fa-726d8c380439",
            "name": "CARBAMATE INSECTICIDES",
            "url": "https://haz-map.com/Agents/33",
            "category": "agents"
          }
        ]
      },
      "description": {
        "original_name": "Description",
        "value": "Solid; [HSDB]",
        "links": [],
        "cross_references": []
      },
      "sourcesuses": {
        "original_name": "Sources/Uses",
        "value": "Used as acaricide and insecticide; [HSDB]",
        "links": [],
        "cross_references": []
      },
      "comments": {
        "original_name": "Comments",
        "value": "Inhibited cholinesterase activity in animal feeding studies; [HSDB] See \"CARBAMATE INSECTICIDES.\"",
        "links": [],
        "cross_references": [
          {
            "type": "name_match",
            "text": "carbamate insecticides",
            "confidence": 1.0,
            "uuid": "d406afe4-aed9-49d6-a6fa-726d8c380439",
            "name": "CARBAMATE INSECTICIDES",
            "url": "https://haz-map.com/Agents/33",
            "category": "agents"
          },
          {
            "type": "name_match",
            "text": "choline",
            "confidence": 1.0,
            "uuid": "a21a71e9-9d67-4563-9da2-98c4dcb1b766",
            "name": "Choline",
            "url": "https://haz-map.com/Agents/12978",
            "category": "agents"
          }
        ]
      },
      "biomedical_references": {
        "original_name": "Biomedical References",
        "value": "Search PubMed",
        "links": [
          {
            "text": "Search PubMed",
            "url": "https://www.ncbi.nlm.nih.gov/pubmed?term=Carbanolate%20AND%20human%5Bmh%5D%20AND%20%28Occupational%20Diseases%20%5Bmh%5D%20OR%20Occupational%20Exposure%20%5Bmh%5D%29%20%20AND%20%28tox%5Bsb%5D%29&cmd=search"
          }
        ],
        "cross_references": []
      }
    },
    "exposure_assessment": {
      "bei": {
        "original_name": "BEI",
        "value": "Acetylcholinesterase activity in red blood cells = 70% of individual's baseline; Butylcholinesterase activity in serum or plasma = 60% of individual's baseline; Sample at end of shift; [TLVs and BEIs]",
        "links": [],
        "cross_references": [
          {
            "type": "name_match",
            "text": "choline",
            "confidence": 1.0,
            "uuid": "a21a71e9-9d67-4563-9da2-98c4dcb1b766",
            "name": "Choline",
            "url": "https://haz-map.com/Agents/12978",
            "category": "agents"
          }
        ]
      },
      "vapor_pressure": {
        "original_name": "Vapor Pressure",
        "value": "0.000922 mm Hg",
        "links": [],
        "cross_references": []
      }
    },
    "adverse_effects": {
      "other_poison": {
        "original_name": "Other Poison",
        "value": "Carbamate",
        "links": [],
        "cross_references": []
      }
    },
    "diseases_processes_and_activities_linked_to_this_agent": {
      "diseases": {
        "original_name": "Diseases",
        "value": "Occupational diseases associated with exposure to this agent: Organophosphates & carbamates, acute poisoning",
        "links": [
          {
            "text": "Organophosphates & carbamates, acute poisoning",
            "url": "https://haz-map.com/Diseases/66"
          }
        ],
        "cross_references": [
          {
            "type": "url_match",
            "text": "Organophosphates & carbamates, acute poisoning",
            "url": "https://haz-map.com/Diseases/66",
            "confidence": 1.0,
            "uuid": "aea2cba9-fb36-463f-84d8-b819551bb327",
            "name": "Organophosphates & carbamates, acute poisoning",
            "category": "diseases"
          },
          {
            "type": "name_match",
            "text": "organophosphates",
            "confidence": 1.0,
            "uuid": "8d2d239c-20f9-4f02-9916-5e7667b9990c",
            "name": "ORGANOPHOSPHATES",
            "url": "https://haz-map.com/Agents/702",
            "category": "agents"
          }
        ]
      },
      "processes": {
        "original_name": "Processes",
        "value": "Industrial Processes with risk of exposure: Farming (Pesticides)",
        "links": [
          {
            "text": "Farming (Pesticides)",
            "url": "https://haz-map.com/Processes/218"
          }
        ],
        "cross_references": [
          {
            "type": "url_match",
            "text": "Farming (Pesticides)",
            "url": "https://haz-map.com/Processes/218",
            "confidence": 1.0,
            "uuid": "cf1e5815-c9bb-4917-82a5-391848170b7e",
            "name": "Farming (Pesticides)",
            "category": "processes"
          }
        ]
      }
    }
  },
  "cross_references": [
    {
      "type": "url_match",
      "text": "Organophosphates & carbamates, acute poisoning",
      "url": "https://haz-map.com/Diseases/66",
      "confidence": 1.0,
      "uuid": "aea2cba9-fb36-463f-84d8-b819551bb327",
      "name": "Organophosphates & carbamates, acute poisoning",
      "category": "diseases"
    },
    {
      "type": "url_match",
      "text": "Farming (Pesticides)",
      "url": "https://haz-map.com/Processes/218",
      "confidence": 1.0,
      "uuid": "cf1e5815-c9bb-4917-82a5-391848170b7e",
      "name": "Farming (Pesticides)",
      "category": "processes"
    },
    {
      "type": "name_match",
      "text": "carbamate insecticides",
      "confidence": 1.0,
      "uuid": "d406afe4-aed9-49d6-a6fa-726d8c380439",
      "name": "CARBAMATE INSECTICIDES",
      "url": "https://haz-map.com/Agents/33",
      "category": "agents"
    },
    {
      "type": "name_match",
      "text": "phenol",
      "confidence": 1.0,
      "uuid": "03141a03-a7df-4f51-9a37-adde1a7c4b31",
      "name": "Phenol",
      "url": "https://haz-map.com/Agents/84",
      "category": "agents"
    },
    {
      "type": "name_match",
      "text": "organophosphates",
      "confidence": 1.0,
      "uuid": "8d2d239c-20f9-4f02-9916-5e7667b9990c",
      "name": "ORGANOPHOSPHATES",
      "url": "https://haz-map.com/Agents/702",
      "category": "agents"
    },
    {
      "type": "name_match",
      "text": "carbanolate",
      "confidence": 1.0,
      "uuid": "636edeb2-46f2-42b1-ad70-9bc307a6dee8",
      "name": "Carbanolate",
      "url": "https://haz-map.com/Agents/4214",
      "category": "agents"
    },
    {
      "type": "name_match",
      "text": "methyl carbamate",
      "confidence": 1.0,
      "uuid": "25095735-49b1-4267-b344-d478f57808d9",
      "name": "Methyl carbamate",
      "url": "https://haz-map.com/Agents/6075",
      "category": "agents"
    },
    {
      "type": "name_match",
      "text": "phenyl methylcarbamate",
      "confidence": 1.0,
      "uuid": "d4affaf6-2df5-4c83-8dc7-54a9c7973886",
      "name": "Phenyl methylcarbamate",
      "url": "https://haz-map.com/Agents/6657",
      "category": "agents"
    },
    {
      "type": "name_match",
      "text": "choline",
      "confidence": 1.0,
      "uuid": "a21a71e9-9d67-4563-9da2-98c4dcb1b766",
      "name": "Choline",
      "url": "https://haz-map.com/Agents/12978",
      "category": "agents"
    },
    {
      "type": "fuzzy_match",
      "text": "5-dimethylphenol",
      "matched_name": "2,5-Dimethylphenol",
      "confidence": 0.8777777777777778,
      "uuid": "362c1d56-559e-4727-a680-7e24502f0a7d",
      "category": "agents",
      "url": "https://haz-map.com/Agents/3027"
    },
    {
      "type": "fuzzy_match",
      "text": "5-dimethylphenol",
      "matched_name": "3,5-Dimethylphenol",
      "confidence": 0.8777777777777778,
      "uuid": "ffb14c2b-57f9-495d-9a6e-f6ee2ca79837",
      "category": "agents",
      "url": "https://haz-map.com/Agents/3208"
    }
  ],
  "all_links": [
    {
      "text": "Search PubMed",
      "url": "https://www.ncbi.nlm.nih.gov/pubmed?term=Carbanolate%20AND%20human%5Bmh%5D%20AND%20%28Occupational%20Diseases%20%5Bmh%5D%20OR%20Occupational%20Exposure%20%5Bmh%5D%29%20%20AND%20%28tox%5Bsb%5D%29&cmd=search"
    },
    {
      "text": "Organophosphates & carbamates, acute poisoning",
      "url": "https://haz-map.com/Diseases/66"
    },
    {
      "text": "Farming (Pesticides)",
      "url": "https://haz-map.com/Processes/218"
    }
  ]
}