{
  "metadata": {
    "scraped_from": "https://haz-map.com/Agents/8534",
    "entity_name": "Benzanilide",
    "category": "agents",
    "uuid": "63779c2d-363d-43d4-9b24-b78af4599c8c",
    "scraped_at": "2025-07-23T20:28:29.690527"
  },
  "parsed_at": "2025-07-24T01:08:56.987918",
  "title": "Benzanilide",
  "sections": {
    "general": {
      "agent_name": {
        "original_name": "Agent Name",
        "value": "Benzanilide",
        "links": [],
        "cross_references": [
          {
            "type": "name_match",
            "text": "benzanilide",
            "confidence": 1.0,
            "uuid": "63779c2d-363d-43d4-9b24-b78af4599c8c",
            "name": "Benzanilide",
            "url": "https://haz-map.com/Agents/8534",
            "category": "agents"
          }
        ]
      },
      "cas_number": {
        "original_name": "CAS Number",
        "value": "93-98-1",
        "links": [],
        "cross_references": []
      },
      "formula": {
        "original_name": "Formula",
        "value": "C13-H11-N-O",
        "links": [],
        "cross_references": []
      },
      "major_category": {
        "original_name": "Major Category",
        "value": "Nitrogen Compounds",
        "links": [],
        "cross_references": [
          {
            "type": "name_match",
            "text": "nitrogen",
            "confidence": 1.0,
            "uuid": "db5e90a9-06d2-45b9-8b81-f345a89b0bc0",
            "name": "Nitrogen",
            "url": "https://haz-map.com/Agents/1072",
            "category": "agents"
          }
        ]
      },
      "synonyms": {
        "original_name": "Synonyms",
        "value": "Benzoic acid anilide; N-Benzoylaniline; N-Phenylbenzamide; Benzamide, N-phenyl-; [ChemIDplus]",
        "links": [],
        "cross_references": [
          {
            "type": "name_match",
            "text": "aniline",
            "confidence": 1.0,
            "uuid": "e4932692-8d9c-4a98-8c5c-81e55b12aedf",
            "name": "Aniline",
            "url": "https://haz-map.com/Agents/296",
            "category": "agents"
          },
          {
            "type": "name_match",
            "text": "benzoic acid",
            "confidence": 1.0,
            "uuid": "d2c5d3be-d826-4f55-bc32-7b16821aef40",
            "name": "Benzoic acid",
            "url": "https://haz-map.com/Agents/1883",
            "category": "agents"
          },
          {
            "type": "name_match",
            "text": "benzamide",
            "confidence": 1.0,
            "uuid": "8900c544-7f26-477e-a4c1-ff24fcc01b2c",
            "name": "Benzamide",
            "url": "https://haz-map.com/Agents/3828",
            "category": "agents"
          }
        ]
      },
      "category": {
        "original_name": "Category",
        "value": "Other Aromatics (Nitrogen)",
        "links": [],
        "cross_references": [
          {
            "type": "name_match",
            "text": "nitrogen",
            "confidence": 1.0,
            "uuid": "db5e90a9-06d2-45b9-8b81-f345a89b0bc0",
            "name": "Nitrogen",
            "url": "https://haz-map.com/Agents/1072",
            "category": "agents"
          }
        ]
      },
      "description": {
        "original_name": "Description",
        "value": "White to reddish solid; [Hawley] Faintly beige powder; [MSDSonline]",
        "links": [],
        "cross_references": []
      },
      "sourcesuses": {
        "original_name": "Sources/Uses",
        "value": "Used to make dyes, drugs, and perfumes; [Hawley]",
        "links": [],
        "cross_references": []
      },
      "comments": {
        "original_name": "Comments",
        "value": "May cause irritation; [MSDSonline]",
        "links": [],
        "cross_references": []
      },
      "biomedical_references": {
        "original_name": "Biomedical References",
        "value": "Search PubMed",
        "links": [
          {
            "text": "Search PubMed",
            "url": "https://www.ncbi.nlm.nih.gov/pubmed?term=Benzanilide%20AND%20human%5Bmh%5D%20AND%20%28Occupational%20Diseases%20%5Bmh%5D%20OR%20Occupational%20Exposure%20%5Bmh%5D%29%20%20AND%20%28tox%5Bsb%5D%29&cmd=search"
          }
        ],
        "cross_references": []
      }
    },
    "exposure_assessment": {
      "vapor_pressure": {
        "original_name": "Vapor Pressure",
        "value": "2.01E-06 mm Hg",
        "links": [],
        "cross_references": []
      }
    },
    "diseases_processes_and_activities_linked_to_this_agent": {
      "other_information": {
        "original_name": "Other Information",
        "value": "No other related information on this agent was found.",
        "links": [],
        "cross_references": []
      }
    }
  },
  "cross_references": [
    {
      "type": "name_match",
      "text": "aniline",
      "confidence": 1.0,
      "uuid": "e4932692-8d9c-4a98-8c5c-81e55b12aedf",
      "name": "Aniline",
      "url": "https://haz-map.com/Agents/296",
      "category": "agents"
    },
    {
      "type": "name_match",
      "text": "nitrogen",
      "confidence": 1.0,
      "uuid": "db5e90a9-06d2-45b9-8b81-f345a89b0bc0",
      "name": "Nitrogen",
      "url": "https://haz-map.com/Agents/1072",
      "category": "agents"
    },
    {
      "type": "name_match",
      "text": "benzoic acid",
      "confidence": 1.0,
      "uuid": "d2c5d3be-d826-4f55-bc32-7b16821aef40",
      "name": "Benzoic acid",
      "url": "https://haz-map.com/Agents/1883",
      "category": "agents"
    },
    {
      "type": "name_match",
      "text": "benzamide",
      "confidence": 1.0,
      "uuid": "8900c544-7f26-477e-a4c1-ff24fcc01b2c",
      "name": "Benzamide",
      "url": "https://haz-map.com/Agents/3828",
      "category": "agents"
    },
    {
      "type": "name_match",
      "text": "benzanilide",
      "confidence": 1.0,
      "uuid": "63779c2d-363d-43d4-9b24-b78af4599c8c",
      "name": "Benzanilide",
      "url": "https://haz-map.com/Agents/8534",
      "category": "agents"
    }
  ],
  "all_links": [
    {
      "text": "Search PubMed",
      "url": "https://www.ncbi.nlm.nih.gov/pubmed?term=Benzanilide%20AND%20human%5Bmh%5D%20AND%20%28Occupational%20Diseases%20%5Bmh%5D%20OR%20Occupational%20Exposure%20%5Bmh%5D%29%20%20AND%20%28tox%5Bsb%5D%29&cmd=search"
    }
  ]
}