{
  "metadata": {
    "scraped_from": "https://haz-map.com/Agents/2807",
    "entity_name": "Oxetane",
    "category": "agents",
    "uuid": "641aa6bb-d5b3-4877-b6f1-42a7862fb400",
    "scraped_at": "2025-07-23T19:19:14.417673"
  },
  "parsed_at": "2025-07-24T01:17:18.852698",
  "title": "Oxetane",
  "sections": {
    "general": {
      "agent_name": {
        "original_name": "Agent Name",
        "value": "Oxetane",
        "links": [],
        "cross_references": [
          {
            "type": "name_match",
            "text": "oxetane",
            "confidence": 1.0,
            "uuid": "641aa6bb-d5b3-4877-b6f1-42a7862fb400",
            "name": "Oxetane",
            "url": "https://haz-map.com/Agents/2807",
            "category": "agents"
          }
        ]
      },
      "alternative_name": {
        "original_name": "Alternative Name",
        "value": "1,3-Epoxypropane",
        "links": [],
        "cross_references": [
          {
            "type": "name_match",
            "text": "propane",
            "confidence": 1.0,
            "uuid": "563a611b-46ea-4bdc-b77b-17d8f7646283",
            "name": "Propane",
            "url": "https://haz-map.com/Agents/607",
            "category": "agents"
          }
        ]
      },
      "cas_number": {
        "original_name": "CAS Number",
        "value": "503-30-0",
        "links": [],
        "cross_references": []
      },
      "formula": {
        "original_name": "Formula",
        "value": "C3-H6-O",
        "links": [],
        "cross_references": []
      },
      "major_category": {
        "original_name": "Major Category",
        "value": "Other Classes",
        "links": [],
        "cross_references": []
      },
      "synonyms": {
        "original_name": "Synonyms",
        "value": "1,3-Epoxypropane; 1,3-Propylene oxide; Cyclooxabutane; Oxacyclobutane; Oxetan; Propane, 1,3-epoxy-; Trimethylene oxide; Trimethylenoxid [German]; alpha,gamma-Propane oxide; [ChemIDplus]",
        "links": [],
        "cross_references": [
          {
            "type": "name_match",
            "text": "ethylene oxide",
            "confidence": 1.0,
            "uuid": "df29ee36-6345-4c09-b2c3-e3501b1449ec",
            "name": "Ethylene oxide",
            "url": "https://haz-map.com/Agents/21",
            "category": "agents"
          },
          {
            "type": "name_match",
            "text": "propylene oxide",
            "confidence": 1.0,
            "uuid": "ba4ef42b-914d-42fd-b05e-f2b28e97be37",
            "name": "Propylene oxide",
            "url": "https://haz-map.com/Agents/423",
            "category": "agents"
          },
          {
            "type": "name_match",
            "text": "propane",
            "confidence": 1.0,
            "uuid": "563a611b-46ea-4bdc-b77b-17d8f7646283",
            "name": "Propane",
            "url": "https://haz-map.com/Agents/607",
            "category": "agents"
          },
          {
            "type": "name_match",
            "text": "ethylene",
            "confidence": 1.0,
            "uuid": "958eacc0-5135-4b62-bb93-6df972bf552f",
            "name": "Ethylene",
            "url": "https://haz-map.com/Agents/1076",
            "category": "agents"
          },
          {
            "type": "name_match",
            "text": "propylene",
            "confidence": 1.0,
            "uuid": "78ac73a1-0029-4a50-b283-561134c72041",
            "name": "Propylene",
            "url": "https://haz-map.com/Agents/1078",
            "category": "agents"
          },
          {
            "type": "name_match",
            "text": "cyclobutane",
            "confidence": 1.0,
            "uuid": "2bd1c60c-5aff-457d-8873-080846fd0ece",
            "name": "Cyclobutane",
            "url": "https://haz-map.com/Agents/4576",
            "category": "agents"
          }
        ]
      },
      "category": {
        "original_name": "Category",
        "value": "Other Organic Compounds",
        "links": [],
        "cross_references": [
          {
            "type": "fuzzy_match",
            "text": "organic compounds",
            "matched_name": "Tin, organic compounds",
            "confidence": 0.8196969696969697,
            "uuid": "e027d413-8869-4308-9eb2-27d768b011ea",
            "category": "agents",
            "url": "https://haz-map.com/Agents/656"
          }
        ]
      },
      "description": {
        "original_name": "Description",
        "value": "Colorless liquid with an agreeable aromatic odor; [CAMEO]",
        "links": [],
        "cross_references": []
      },
      "sourcesuses": {
        "original_name": "Sources/Uses",
        "value": "Used as a chemical intermediate for epoxy resins and 3-substituted propanols; [HSDB]",
        "links": [],
        "cross_references": [
          {
            "type": "name_match",
            "text": "epoxy resins",
            "confidence": 1.0,
            "uuid": "4724cfe8-e98a-4ee6-a6de-25e8d9534e62",
            "name": "EPOXY RESINS",
            "url": "https://haz-map.com/Agents/30",
            "category": "agents"
          },
          {
            "type": "name_match",
            "text": "mica",
            "confidence": 1.0,
            "uuid": "433f26f1-c399-4596-b179-ce3843cfd465",
            "name": "Mica",
            "url": "https://haz-map.com/Agents/621",
            "category": "agents"
          }
        ]
      },
      "comments": {
        "original_name": "Comments",
        "value": "A tumorigen and a mutagen; [RTECS] May cause irritation; Harmful by inhalation, ingestion, and skin absorption; [CAMEO] An irritant; [MSDSonline]",
        "links": [],
        "cross_references": []
      },
      "biomedical_references": {
        "original_name": "Biomedical References",
        "value": "Search PubMed",
        "links": [
          {
            "text": "Search PubMed",
            "url": "https://www.ncbi.nlm.nih.gov/pubmed?term=Oxetane%20AND%20human%5Bmh%5D%20AND%20%28Occupational%20Diseases%20%5Bmh%5D%20OR%20Occupational%20Exposure%20%5Bmh%5D%29%20%20AND%20%28tox%5Bsb%5D%29&cmd=search"
          }
        ],
        "cross_references": []
      }
    },
    "exposure_assessment": {
      "vapor_pressure": {
        "original_name": "Vapor Pressure",
        "value": "324 mm Hg",
        "links": [],
        "cross_references": []
      },
      "explanatory_notes": {
        "original_name": "Explanatory Notes",
        "value": "Flash point = -28 deg C; [CAMEO]",
        "links": [],
        "cross_references": [
          {
            "type": "name_match",
            "text": "ash",
            "confidence": 1.0,
            "uuid": "68b360f1-5ad0-4337-bea0-d7adca2961b5",
            "name": "Ash",
            "url": "https://haz-map.com/Agents/965",
            "category": "agents"
          }
        ]
      }
    },
    "diseases_processes_and_activities_linked_to_this_agent": {
      "other_information": {
        "original_name": "Other Information",
        "value": "No other related information on this agent was found.",
        "links": [],
        "cross_references": []
      }
    }
  },
  "cross_references": [
    {
      "type": "name_match",
      "text": "ethylene oxide",
      "confidence": 1.0,
      "uuid": "df29ee36-6345-4c09-b2c3-e3501b1449ec",
      "name": "Ethylene oxide",
      "url": "https://haz-map.com/Agents/21",
      "category": "agents"
    },
    {
      "type": "name_match",
      "text": "epoxy resins",
      "confidence": 1.0,
      "uuid": "4724cfe8-e98a-4ee6-a6de-25e8d9534e62",
      "name": "EPOXY RESINS",
      "url": "https://haz-map.com/Agents/30",
      "category": "agents"
    },
    {
      "type": "name_match",
      "text": "propylene oxide",
      "confidence": 1.0,
      "uuid": "ba4ef42b-914d-42fd-b05e-f2b28e97be37",
      "name": "Propylene oxide",
      "url": "https://haz-map.com/Agents/423",
      "category": "agents"
    },
    {
      "type": "name_match",
      "text": "propane",
      "confidence": 1.0,
      "uuid": "563a611b-46ea-4bdc-b77b-17d8f7646283",
      "name": "Propane",
      "url": "https://haz-map.com/Agents/607",
      "category": "agents"
    },
    {
      "type": "name_match",
      "text": "mica",
      "confidence": 1.0,
      "uuid": "433f26f1-c399-4596-b179-ce3843cfd465",
      "name": "Mica",
      "url": "https://haz-map.com/Agents/621",
      "category": "agents"
    },
    {
      "type": "name_match",
      "text": "ash",
      "confidence": 1.0,
      "uuid": "68b360f1-5ad0-4337-bea0-d7adca2961b5",
      "name": "Ash",
      "url": "https://haz-map.com/Agents/965",
      "category": "agents"
    },
    {
      "type": "name_match",
      "text": "ethylene",
      "confidence": 1.0,
      "uuid": "958eacc0-5135-4b62-bb93-6df972bf552f",
      "name": "Ethylene",
      "url": "https://haz-map.com/Agents/1076",
      "category": "agents"
    },
    {
      "type": "name_match",
      "text": "propylene",
      "confidence": 1.0,
      "uuid": "78ac73a1-0029-4a50-b283-561134c72041",
      "name": "Propylene",
      "url": "https://haz-map.com/Agents/1078",
      "category": "agents"
    },
    {
      "type": "name_match",
      "text": "oxetane",
      "confidence": 1.0,
      "uuid": "641aa6bb-d5b3-4877-b6f1-42a7862fb400",
      "name": "Oxetane",
      "url": "https://haz-map.com/Agents/2807",
      "category": "agents"
    },
    {
      "type": "name_match",
      "text": "cyclobutane",
      "confidence": 1.0,
      "uuid": "2bd1c60c-5aff-457d-8873-080846fd0ece",
      "name": "Cyclobutane",
      "url": "https://haz-map.com/Agents/4576",
      "category": "agents"
    },
    {
      "type": "fuzzy_match",
      "text": "organic compounds",
      "matched_name": "Tin, organic compounds",
      "confidence": 0.8196969696969697,
      "uuid": "e027d413-8869-4308-9eb2-27d768b011ea",
      "category": "agents",
      "url": "https://haz-map.com/Agents/656"
    }
  ],
  "all_links": [
    {
      "text": "Search PubMed",
      "url": "https://www.ncbi.nlm.nih.gov/pubmed?term=Oxetane%20AND%20human%5Bmh%5D%20AND%20%28Occupational%20Diseases%20%5Bmh%5D%20OR%20Occupational%20Exposure%20%5Bmh%5D%29%20%20AND%20%28tox%5Bsb%5D%29&cmd=search"
    }
  ]
}