{
  "metadata": {
    "scraped_from": "https://haz-map.com/Agents/4846",
    "entity_name": "Diethyl hydrogen phosphite",
    "category": "agents",
    "uuid": "642442c8-5d39-4f36-9cce-b1231162340f",
    "scraped_at": "2025-07-23T19:45:31.207405"
  },
  "parsed_at": "2025-07-24T00:52:37.714541",
  "title": "Diethyl hydrogen phosphite",
  "sections": {
    "general": {
      "agent_name": {
        "original_name": "Agent Name",
        "value": "Diethyl hydrogen phosphite",
        "links": [],
        "cross_references": [
          {
            "type": "name_match",
            "text": "hydrogen",
            "confidence": 1.0,
            "uuid": "e2d9645f-5559-4d88-b820-fc4710c154f2",
            "name": "Hydrogen",
            "url": "https://haz-map.com/Agents/1070",
            "category": "agents"
          },
          {
            "type": "name_match",
            "text": "diethyl hydrogen phosphite",
            "confidence": 1.0,
            "uuid": "642442c8-5d39-4f36-9cce-b1231162340f",
            "name": "Diethyl hydrogen phosphite",
            "url": "https://haz-map.com/Agents/4846",
            "category": "agents"
          }
        ]
      },
      "cas_number": {
        "original_name": "CAS Number",
        "value": "762-04-9",
        "links": [],
        "cross_references": []
      },
      "formula": {
        "original_name": "Formula",
        "value": "C4-H11-O3-P",
        "links": [],
        "cross_references": []
      },
      "major_category": {
        "original_name": "Major Category",
        "value": "Other Classes",
        "links": [],
        "cross_references": []
      },
      "synonyms": {
        "original_name": "Synonyms",
        "value": "Diethoxyphosphine oxide; Diethyl acid phosphite; Diethyl phosphite; Diethyl phosphonate; Diethylfosfit [Czech]; Ethyl phosphonate ((EtO)2HPO); Hydrogen diethyl phosphite; O,O-Diethyl phosphonate; Phosphonic acid diethyl ester; Phosphorous acid, diethyl ester; [ChemIDplus] UN1993",
        "links": [],
        "cross_references": [
          {
            "type": "name_match",
            "text": "phosphine",
            "confidence": 1.0,
            "uuid": "b9783685-a2f4-44ef-8b65-6c1ab72fbfde",
            "name": "Phosphine",
            "url": "https://haz-map.com/Agents/74",
            "category": "agents"
          },
          {
            "type": "name_match",
            "text": "hydrogen",
            "confidence": 1.0,
            "uuid": "e2d9645f-5559-4d88-b820-fc4710c154f2",
            "name": "Hydrogen",
            "url": "https://haz-map.com/Agents/1070",
            "category": "agents"
          },
          {
            "type": "name_match",
            "text": "phosphorous acid",
            "confidence": 1.0,
            "uuid": "cd85912c-49fc-45b2-b593-6a900b0ec52e",
            "name": "Phosphorous acid",
            "url": "https://haz-map.com/Agents/8662",
            "category": "agents"
          },
          {
            "type": "name_match",
            "text": "phosphine oxide",
            "confidence": 1.0,
            "uuid": "40bd4350-9947-43ef-9dcc-388ee0a52680",
            "name": "Phosphine oxide",
            "url": "https://haz-map.com/Agents/16591",
            "category": "agents"
          }
        ]
      },
      "category": {
        "original_name": "Category",
        "value": "Phosphite Compounds",
        "links": [],
        "cross_references": []
      },
      "description": {
        "original_name": "Description",
        "value": "Water-white liquid; [Hawley] Clear colorless liquid; May decompose on exposure to moisture; [MSDSonline]",
        "links": [],
        "cross_references": [
          {
            "type": "name_match",
            "text": "water",
            "confidence": 1.0,
            "uuid": "6f2a7557-dfd2-49bc-9b4b-a93cd8e225d4",
            "name": "Water",
            "url": "https://haz-map.com/Agents/18668",
            "category": "agents"
          }
        ]
      },
      "sourcesuses": {
        "original_name": "Sources/Uses",
        "value": "Used as a paint solvent, reducing agent, phosphorylating agent, textile finishing agent, antioxidant, additive for adhesives and extreme pressure lubricants, and intermediate for flame-retardants, insecticides, and other organic phosphorus compounds; Scheduled 3B precursor to VG, sarin, soman, and GF; [HSDB]",
        "links": [],
        "cross_references": [
          {
            "type": "name_match",
            "text": "sarin",
            "confidence": 1.0,
            "uuid": "0b2477bd-5683-4fa1-a959-0f0b278d6300",
            "name": "Sarin",
            "url": "https://haz-map.com/Agents/1452",
            "category": "agents"
          },
          {
            "type": "name_match",
            "text": "soman",
            "confidence": 1.0,
            "uuid": "7ba8fa7c-eb4e-45ad-bde5-5365fd12f0ae",
            "name": "Soman",
            "url": "https://haz-map.com/Agents/1453",
            "category": "agents"
          }
        ]
      },
      "comments": {
        "original_name": "Comments",
        "value": "A skin, eye, and respiratory tract irritant; [Alfa Aesar MSDS]",
        "links": [],
        "cross_references": []
      },
      "biomedical_references": {
        "original_name": "Biomedical References",
        "value": "Search PubMed",
        "links": [
          {
            "text": "Search PubMed",
            "url": "https://www.ncbi.nlm.nih.gov/pubmed?term=Diethyl+hydrogen+phosphite%20AND%20human%5Bmh%5D%20AND%20%28Occupational%20Diseases%20%5Bmh%5D%20OR%20Occupational%20Exposure%20%5Bmh%5D%29%20%20AND%20%28tox%5Bsb%5D%29&cmd=search"
          }
        ],
        "cross_references": []
      }
    },
    "exposure_assessment": {
      "vapor_pressure": {
        "original_name": "Vapor Pressure",
        "value": "11.2 mm Hg",
        "links": [],
        "cross_references": []
      },
      "explanatory_notes": {
        "original_name": "Explanatory Notes",
        "value": "The Guide in the Emergency Response Guidebook is for \"Combustible liquid, n.o.s.\" VP from ChemIDplus;",
        "links": [],
        "cross_references": []
      }
    },
    "diseases_processes_and_activities_linked_to_this_agent": {
      "processes": {
        "original_name": "Processes",
        "value": "Industrial Processes with risk of exposure: Painting (Solvents) Textiles (Printing, Dyeing, or Finishing) Working with Glues and Adhesives",
        "links": [
          {
            "text": "Painting (Solvents)",
            "url": "https://haz-map.com/Processes/142"
          },
          {
            "text": "Textiles (Printing, Dyeing, or Finishing)",
            "url": "https://haz-map.com/Processes/235"
          },
          {
            "text": "Working with Glues and Adhesives",
            "url": "https://haz-map.com/Processes/155"
          }
        ],
        "cross_references": [
          {
            "type": "url_match",
            "text": "Painting (Solvents)",
            "url": "https://haz-map.com/Processes/142",
            "confidence": 1.0,
            "uuid": "ca747481-4da1-4550-a546-f0d43a41b46c",
            "name": "Painting (Solvents)",
            "category": "processes"
          },
          {
            "type": "url_match",
            "text": "Working with Glues and Adhesives",
            "url": "https://haz-map.com/Processes/155",
            "confidence": 1.0,
            "uuid": "acb9084f-52e8-4687-bd6a-bced94bda834",
            "name": "Working with Glues and Adhesives",
            "category": "processes"
          },
          {
            "type": "name_match",
            "text": "painting",
            "confidence": 1.0,
            "uuid": "19816ce9-9edf-4a86-8e64-b0cbf7dcf520",
            "name": "Painting",
            "url": "https://haz-map.com/Activities/9",
            "category": "activities"
          }
        ]
      }
    }
  },
  "cross_references": [
    {
      "type": "url_match",
      "text": "Painting (Solvents)",
      "url": "https://haz-map.com/Processes/142",
      "confidence": 1.0,
      "uuid": "ca747481-4da1-4550-a546-f0d43a41b46c",
      "name": "Painting (Solvents)",
      "category": "processes"
    },
    {
      "type": "url_match",
      "text": "Working with Glues and Adhesives",
      "url": "https://haz-map.com/Processes/155",
      "confidence": 1.0,
      "uuid": "acb9084f-52e8-4687-bd6a-bced94bda834",
      "name": "Working with Glues and Adhesives",
      "category": "processes"
    },
    {
      "type": "name_match",
      "text": "painting",
      "confidence": 1.0,
      "uuid": "19816ce9-9edf-4a86-8e64-b0cbf7dcf520",
      "name": "Painting",
      "url": "https://haz-map.com/Activities/9",
      "category": "activities"
    },
    {
      "type": "name_match",
      "text": "phosphine",
      "confidence": 1.0,
      "uuid": "b9783685-a2f4-44ef-8b65-6c1ab72fbfde",
      "name": "Phosphine",
      "url": "https://haz-map.com/Agents/74",
      "category": "agents"
    },
    {
      "type": "name_match",
      "text": "hydrogen",
      "confidence": 1.0,
      "uuid": "e2d9645f-5559-4d88-b820-fc4710c154f2",
      "name": "Hydrogen",
      "url": "https://haz-map.com/Agents/1070",
      "category": "agents"
    },
    {
      "type": "name_match",
      "text": "sarin",
      "confidence": 1.0,
      "uuid": "0b2477bd-5683-4fa1-a959-0f0b278d6300",
      "name": "Sarin",
      "url": "https://haz-map.com/Agents/1452",
      "category": "agents"
    },
    {
      "type": "name_match",
      "text": "soman",
      "confidence": 1.0,
      "uuid": "7ba8fa7c-eb4e-45ad-bde5-5365fd12f0ae",
      "name": "Soman",
      "url": "https://haz-map.com/Agents/1453",
      "category": "agents"
    },
    {
      "type": "name_match",
      "text": "diethyl hydrogen phosphite",
      "confidence": 1.0,
      "uuid": "642442c8-5d39-4f36-9cce-b1231162340f",
      "name": "Diethyl hydrogen phosphite",
      "url": "https://haz-map.com/Agents/4846",
      "category": "agents"
    },
    {
      "type": "name_match",
      "text": "phosphorous acid",
      "confidence": 1.0,
      "uuid": "cd85912c-49fc-45b2-b593-6a900b0ec52e",
      "name": "Phosphorous acid",
      "url": "https://haz-map.com/Agents/8662",
      "category": "agents"
    },
    {
      "type": "name_match",
      "text": "phosphine oxide",
      "confidence": 1.0,
      "uuid": "40bd4350-9947-43ef-9dcc-388ee0a52680",
      "name": "Phosphine oxide",
      "url": "https://haz-map.com/Agents/16591",
      "category": "agents"
    },
    {
      "type": "name_match",
      "text": "water",
      "confidence": 1.0,
      "uuid": "6f2a7557-dfd2-49bc-9b4b-a93cd8e225d4",
      "name": "Water",
      "url": "https://haz-map.com/Agents/18668",
      "category": "agents"
    }
  ],
  "all_links": [
    {
      "text": "Search PubMed",
      "url": "https://www.ncbi.nlm.nih.gov/pubmed?term=Diethyl+hydrogen+phosphite%20AND%20human%5Bmh%5D%20AND%20%28Occupational%20Diseases%20%5Bmh%5D%20OR%20Occupational%20Exposure%20%5Bmh%5D%29%20%20AND%20%28tox%5Bsb%5D%29&cmd=search"
    },
    {
      "text": "Painting (Solvents)",
      "url": "https://haz-map.com/Processes/142"
    },
    {
      "text": "Textiles (Printing, Dyeing, or Finishing)",
      "url": "https://haz-map.com/Processes/235"
    },
    {
      "text": "Working with Glues and Adhesives",
      "url": "https://haz-map.com/Processes/155"
    }
  ]
}