{
  "metadata": {
    "scraped_from": "https://haz-map.com/Agents/18695",
    "entity_name": "Xanthine",
    "category": "agents",
    "uuid": "6440504f-a48b-4564-b510-e9733c09428b",
    "scraped_at": "2025-07-23T21:57:13.169017"
  },
  "parsed_at": "2025-07-24T00:58:18.208317",
  "title": "Xanthine",
  "sections": {
    "general": {
      "agent_name": {
        "original_name": "Agent Name",
        "value": "Xanthine",
        "links": [],
        "cross_references": [
          {
            "type": "name_match",
            "text": "xanthine",
            "confidence": 1.0,
            "uuid": "6440504f-a48b-4564-b510-e9733c09428b",
            "name": "Xanthine",
            "url": "https://haz-map.com/Agents/18695",
            "category": "agents"
          }
        ]
      },
      "cas_number": {
        "original_name": "CAS Number",
        "value": "69-89-6",
        "links": [],
        "cross_references": []
      },
      "formula": {
        "original_name": "Formula",
        "value": "C5-H4-N4-O2",
        "links": [],
        "cross_references": []
      },
      "major_category": {
        "original_name": "Major Category",
        "value": "Nitrogen Compounds",
        "links": [],
        "cross_references": [
          {
            "type": "name_match",
            "text": "nitrogen",
            "confidence": 1.0,
            "uuid": "db5e90a9-06d2-45b9-8b81-f345a89b0bc0",
            "name": "Nitrogen",
            "url": "https://haz-map.com/Agents/1072",
            "category": "agents"
          }
        ]
      },
      "synonyms": {
        "original_name": "Synonyms",
        "value": "1H-Purine-2,6-dione, 3,7-dihydro-; 1H-Purine-2,6-dione, 3,9-dihydro-; Purine-2(3H),6(1H)-dione; 1H-Purine-2,6-diol; 2,6(1,3)-Purinedion; 2,6-Dioxo-1,2,3,6-tetrahydropurine; 2,6-Dioxopurine; 3,7-Dihydro-1H-purine-2,6-dione; 9H-Purine-2,6-(1H,3H)-dione; 9H-Purine-2,6-diol; Isoxanthine; Pseudoxanthine; Purine-2,6-(1H,3H)-dione; Purine-2,6-diol; XAN; Xanthic oxide; Xanthin; [ChemIDplus] 2,6(1H,3H)-Purinedione; [Merck Index]",
        "links": [],
        "cross_references": [
          {
            "type": "name_match",
            "text": "xanthine",
            "confidence": 1.0,
            "uuid": "6440504f-a48b-4564-b510-e9733c09428b",
            "name": "Xanthine",
            "url": "https://haz-map.com/Agents/18695",
            "category": "agents"
          }
        ]
      },
      "category": {
        "original_name": "Category",
        "value": "Purines",
        "links": [],
        "cross_references": []
      },
      "description": {
        "original_name": "Description",
        "value": "Solid; [Merck Index] White odorless powder; [Alfa Aesar MSDS]",
        "links": [],
        "cross_references": []
      },
      "sourcesuses": {
        "original_name": "Sources/Uses",
        "value": "Found in animal organs, yeast, potatoes, coffee beans, and tea; [Merck Index] \"A purine base found in most body tissues and fluids, certain plants, and some urinary calculi. It is an intermediate in the degradation of adenosine monophosphate to uric acid, being formed by oxidation of hypoxanthine. The methylated xanthine compounds caffeine, theobromine, and theophylline and their derivatives are used in medicine for their bronchodilator effects. (Dorland, 28th ed)\" [ChemIDplus]",
        "links": [],
        "cross_references": [
          {
            "type": "name_match",
            "text": "bromine",
            "confidence": 1.0,
            "uuid": "9b659123-45fb-4e5c-b681-d3c1cec47df3",
            "name": "Bromine",
            "url": "https://haz-map.com/Agents/315",
            "category": "agents"
          },
          {
            "type": "name_match",
            "text": "tea",
            "confidence": 1.0,
            "uuid": "773409e5-ac1a-4c9e-9470-9667ca82091c",
            "name": "Tea",
            "url": "https://haz-map.com/Agents/878",
            "category": "agents"
          },
          {
            "type": "name_match",
            "text": "caffeine",
            "confidence": 1.0,
            "uuid": "a7f97853-7b53-4bff-ae6b-5f7d1e70f90f",
            "name": "Caffeine",
            "url": "https://haz-map.com/Agents/4136",
            "category": "agents"
          },
          {
            "type": "name_match",
            "text": "hypoxanthine",
            "confidence": 1.0,
            "uuid": "5893eab6-f3f2-4884-8c3a-b0eb8ce16a3c",
            "name": "Hypoxanthine",
            "url": "https://haz-map.com/Agents/14843",
            "category": "agents"
          },
          {
            "type": "name_match",
            "text": "uric acid",
            "confidence": 1.0,
            "uuid": "bd67e9b1-899e-4f1c-95f0-d25380f3c966",
            "name": "Uric acid",
            "url": "https://haz-map.com/Agents/18587",
            "category": "agents"
          },
          {
            "type": "name_match",
            "text": "xanthine",
            "confidence": 1.0,
            "uuid": "6440504f-a48b-4564-b510-e9733c09428b",
            "name": "Xanthine",
            "url": "https://haz-map.com/Agents/18695",
            "category": "agents"
          }
        ]
      },
      "comments": {
        "original_name": "Comments",
        "value": "May cause irritation; [Alfa Aesar MSDS] An irritant that may cause severe eye irritation; May cause skin sensitization; [Sigma-Aldrich MSDS] PubMed search for (69-89-6[EC/RN Number]) AND (allergic or sensitizer or sensitization or dermatitis): no records supporting skin sensitization; [PubMed]",
        "links": [],
        "cross_references": [
          {
            "type": "name_match",
            "text": "dermatitis",
            "confidence": 1.0,
            "uuid": "fe9c05f2-b19f-4ceb-ac7a-ffb7d7a0cae0",
            "name": "dermatitis",
            "url": "https://haz-map.com/Findings/59",
            "category": "findings"
          }
        ]
      },
      "biomedical_references": {
        "original_name": "Biomedical References",
        "value": "Search PubMed",
        "links": [
          {
            "text": "Search PubMed",
            "url": "https://www.ncbi.nlm.nih.gov/pubmed?term=Xanthine%20AND%20human%5Bmh%5D%20AND%20%28Occupational%20Diseases%20%5Bmh%5D%20OR%20Occupational%20Exposure%20%5Bmh%5D%29%20%20AND%20%28tox%5Bsb%5D%29&cmd=search"
          }
        ],
        "cross_references": []
      }
    },
    "exposure_assessment": {
      "vapor_pressure": {
        "original_name": "Vapor Pressure",
        "value": "2.64E-10 mm Hg",
        "links": [],
        "cross_references": []
      }
    },
    "diseases_processes_and_activities_linked_to_this_agent": {
      "other_information": {
        "original_name": "Other Information",
        "value": "No other related information on this agent was found.",
        "links": [],
        "cross_references": []
      }
    }
  },
  "cross_references": [
    {
      "type": "name_match",
      "text": "dermatitis",
      "confidence": 1.0,
      "uuid": "fe9c05f2-b19f-4ceb-ac7a-ffb7d7a0cae0",
      "name": "dermatitis",
      "url": "https://haz-map.com/Findings/59",
      "category": "findings"
    },
    {
      "type": "name_match",
      "text": "bromine",
      "confidence": 1.0,
      "uuid": "9b659123-45fb-4e5c-b681-d3c1cec47df3",
      "name": "Bromine",
      "url": "https://haz-map.com/Agents/315",
      "category": "agents"
    },
    {
      "type": "name_match",
      "text": "tea",
      "confidence": 1.0,
      "uuid": "773409e5-ac1a-4c9e-9470-9667ca82091c",
      "name": "Tea",
      "url": "https://haz-map.com/Agents/878",
      "category": "agents"
    },
    {
      "type": "name_match",
      "text": "nitrogen",
      "confidence": 1.0,
      "uuid": "db5e90a9-06d2-45b9-8b81-f345a89b0bc0",
      "name": "Nitrogen",
      "url": "https://haz-map.com/Agents/1072",
      "category": "agents"
    },
    {
      "type": "name_match",
      "text": "caffeine",
      "confidence": 1.0,
      "uuid": "a7f97853-7b53-4bff-ae6b-5f7d1e70f90f",
      "name": "Caffeine",
      "url": "https://haz-map.com/Agents/4136",
      "category": "agents"
    },
    {
      "type": "name_match",
      "text": "hypoxanthine",
      "confidence": 1.0,
      "uuid": "5893eab6-f3f2-4884-8c3a-b0eb8ce16a3c",
      "name": "Hypoxanthine",
      "url": "https://haz-map.com/Agents/14843",
      "category": "agents"
    },
    {
      "type": "name_match",
      "text": "uric acid",
      "confidence": 1.0,
      "uuid": "bd67e9b1-899e-4f1c-95f0-d25380f3c966",
      "name": "Uric acid",
      "url": "https://haz-map.com/Agents/18587",
      "category": "agents"
    },
    {
      "type": "name_match",
      "text": "xanthine",
      "confidence": 1.0,
      "uuid": "6440504f-a48b-4564-b510-e9733c09428b",
      "name": "Xanthine",
      "url": "https://haz-map.com/Agents/18695",
      "category": "agents"
    }
  ],
  "all_links": [
    {
      "text": "Search PubMed",
      "url": "https://www.ncbi.nlm.nih.gov/pubmed?term=Xanthine%20AND%20human%5Bmh%5D%20AND%20%28Occupational%20Diseases%20%5Bmh%5D%20OR%20Occupational%20Exposure%20%5Bmh%5D%29%20%20AND%20%28tox%5Bsb%5D%29&cmd=search"
    }
  ]
}