{
  "metadata": {
    "scraped_from": "https://haz-map.com/Agents/10791",
    "entity_name": "3-Methyl-2-butanol",
    "category": "agents",
    "uuid": "6461690f-af3b-4f89-830b-55fa0a1629ea",
    "scraped_at": "2025-07-23T20:52:54.218563"
  },
  "parsed_at": "2025-07-24T01:18:49.741443",
  "title": "3-Methyl-2-butanol",
  "sections": {
    "general": {
      "agent_name": {
        "original_name": "Agent Name",
        "value": "3-Methyl-2-butanol",
        "links": [],
        "cross_references": [
          {
            "type": "name_match",
            "text": "3-methyl-2-butanol",
            "confidence": 1.0,
            "uuid": "6461690f-af3b-4f89-830b-55fa0a1629ea",
            "name": "3-Methyl-2-butanol",
            "url": "https://haz-map.com/Agents/10791",
            "category": "agents"
          }
        ]
      },
      "cas_number": {
        "original_name": "CAS Number",
        "value": "598-75-4",
        "links": [],
        "cross_references": []
      },
      "formula": {
        "original_name": "Formula",
        "value": "C5-H12-O",
        "links": [],
        "cross_references": []
      },
      "major_category": {
        "original_name": "Major Category",
        "value": "Solvents",
        "links": [],
        "cross_references": []
      },
      "synonyms": {
        "original_name": "Synonyms",
        "value": "1,2-Dimethyl-1-propanol; 1,2-Dimethylpropanol; 2-Butanol, 3-methyl-; 2-Methyl-3-butanol; Isopropylmethylcarbinol; Methylisopropylcarbinol; sec-Isoamyl alcohol; [ChemIDplus] sec-Isopentyl alcohol; Isopropyl methyl carbinol; [Merck Index] 3-Methylbutan-2-ol; [JECFA] UN1105",
        "links": [],
        "cross_references": [
          {
            "type": "name_match",
            "text": "isoamyl alcohol",
            "confidence": 1.0,
            "uuid": "5b2c6476-a51b-4f02-b849-585ecbdb02c8",
            "name": "Isoamyl alcohol",
            "url": "https://haz-map.com/Agents/526",
            "category": "agents"
          }
        ]
      },
      "category": {
        "original_name": "Category",
        "value": "Alcohols (<C12)",
        "links": [],
        "cross_references": []
      },
      "description": {
        "original_name": "Description",
        "value": "Liquid; [Merck Index] Colorless liquid; [Alfa Aesar MSDS]",
        "links": [],
        "cross_references": []
      },
      "sourcesuses": {
        "original_name": "Sources/Uses",
        "value": "Used as flavoring agent or adjuvant; [FDA]",
        "links": [],
        "cross_references": []
      },
      "comments": {
        "original_name": "Comments",
        "value": "Overexposure may cause skin, eye, nose, and throat irritation, headache, dizziness, dyspnea, nausea, and vomiting; [Merck Index] Safe when used as a flavoring agent in food; [JECFA] A respiratory tract irritant; Harmful by inhalation; May defat the skin; [Alfa Aesar MSDS] See \"2-Methyl-1-butanol\" and \"2-Methyl-2-butanol.\"",
        "links": [],
        "cross_references": [
          {
            "type": "name_match",
            "text": "dizziness",
            "confidence": 1.0,
            "uuid": "4b0e6043-b228-49de-996c-b42ec8b3780e",
            "name": "dizziness",
            "url": "https://haz-map.com/Findings/16",
            "category": "findings"
          },
          {
            "type": "name_match",
            "text": "headache",
            "confidence": 1.0,
            "uuid": "a474a38d-66ac-44da-92de-de1c781a30e7",
            "name": "headache",
            "url": "https://haz-map.com/Findings/17",
            "category": "findings"
          },
          {
            "type": "name_match",
            "text": "2-methyl-1-butanol",
            "confidence": 1.0,
            "uuid": "94da598f-350a-4f35-b363-63a7f0d50d4f",
            "name": "2-Methyl-1-butanol",
            "url": "https://haz-map.com/Agents/3126",
            "category": "agents"
          },
          {
            "type": "name_match",
            "text": "2-methyl-2-butanol",
            "confidence": 1.0,
            "uuid": "80371339-e12f-41a1-a8d6-85f405bfaa96",
            "name": "2-Methyl-2-butanol",
            "url": "https://haz-map.com/Agents/3131",
            "category": "agents"
          }
        ]
      },
      "biomedical_references": {
        "original_name": "Biomedical References",
        "value": "Search PubMed",
        "links": [
          {
            "text": "Search PubMed",
            "url": "https://www.ncbi.nlm.nih.gov/pubmed?term=3-Methyl-2-butanol%20AND%20human%5Bmh%5D%20AND%20%28Occupational%20Diseases%20%5Bmh%5D%20OR%20Occupational%20Exposure%20%5Bmh%5D%29%20%20AND%20%28tox%5Bsb%5D%29&cmd=search"
          }
        ],
        "cross_references": []
      }
    },
    "exposure_assessment": {
      "mak": {
        "original_name": "MAK",
        "value": "20 ppm",
        "links": [],
        "cross_references": []
      },
      "vapor_pressure": {
        "original_name": "Vapor Pressure",
        "value": "9.15 mm Hg",
        "links": [],
        "cross_references": []
      },
      "explanatory_notes": {
        "original_name": "Explanatory Notes",
        "value": "The Guide in the Emergency Response Guidebook is for \"Pentanols.\" VP from ChemIDplus;",
        "links": [],
        "cross_references": []
      },
      "weel": {
        "original_name": "WEEL",
        "value": "100 ppm",
        "links": [],
        "cross_references": []
      }
    },
    "adverse_effects": {
      "neurotoxin": {
        "original_name": "Neurotoxin",
        "value": "Acute solvent syndrome",
        "links": [],
        "cross_references": []
      }
    },
    "diseases_processes_and_activities_linked_to_this_agent": {
      "diseases": {
        "original_name": "Diseases",
        "value": "Occupational diseases associated with exposure to this agent: Solvents, acute toxic effect",
        "links": [
          {
            "text": "Solvents, acute toxic effect",
            "url": "https://haz-map.com/Diseases/326"
          }
        ],
        "cross_references": [
          {
            "type": "url_match",
            "text": "Solvents, acute toxic effect",
            "url": "https://haz-map.com/Diseases/326",
            "confidence": 1.0,
            "uuid": "581e90e3-9d0c-45f0-aa6c-3468c28da129",
            "name": "Solvents, acute toxic effect",
            "category": "diseases"
          }
        ]
      }
    }
  },
  "cross_references": [
    {
      "type": "url_match",
      "text": "Solvents, acute toxic effect",
      "url": "https://haz-map.com/Diseases/326",
      "confidence": 1.0,
      "uuid": "581e90e3-9d0c-45f0-aa6c-3468c28da129",
      "name": "Solvents, acute toxic effect",
      "category": "diseases"
    },
    {
      "type": "name_match",
      "text": "dizziness",
      "confidence": 1.0,
      "uuid": "4b0e6043-b228-49de-996c-b42ec8b3780e",
      "name": "dizziness",
      "url": "https://haz-map.com/Findings/16",
      "category": "findings"
    },
    {
      "type": "name_match",
      "text": "headache",
      "confidence": 1.0,
      "uuid": "a474a38d-66ac-44da-92de-de1c781a30e7",
      "name": "headache",
      "url": "https://haz-map.com/Findings/17",
      "category": "findings"
    },
    {
      "type": "name_match",
      "text": "isoamyl alcohol",
      "confidence": 1.0,
      "uuid": "5b2c6476-a51b-4f02-b849-585ecbdb02c8",
      "name": "Isoamyl alcohol",
      "url": "https://haz-map.com/Agents/526",
      "category": "agents"
    },
    {
      "type": "name_match",
      "text": "2-methyl-1-butanol",
      "confidence": 1.0,
      "uuid": "94da598f-350a-4f35-b363-63a7f0d50d4f",
      "name": "2-Methyl-1-butanol",
      "url": "https://haz-map.com/Agents/3126",
      "category": "agents"
    },
    {
      "type": "name_match",
      "text": "2-methyl-2-butanol",
      "confidence": 1.0,
      "uuid": "80371339-e12f-41a1-a8d6-85f405bfaa96",
      "name": "2-Methyl-2-butanol",
      "url": "https://haz-map.com/Agents/3131",
      "category": "agents"
    },
    {
      "type": "name_match",
      "text": "3-methyl-2-butanol",
      "confidence": 1.0,
      "uuid": "6461690f-af3b-4f89-830b-55fa0a1629ea",
      "name": "3-Methyl-2-butanol",
      "url": "https://haz-map.com/Agents/10791",
      "category": "agents"
    }
  ],
  "all_links": [
    {
      "text": "Search PubMed",
      "url": "https://www.ncbi.nlm.nih.gov/pubmed?term=3-Methyl-2-butanol%20AND%20human%5Bmh%5D%20AND%20%28Occupational%20Diseases%20%5Bmh%5D%20OR%20Occupational%20Exposure%20%5Bmh%5D%29%20%20AND%20%28tox%5Bsb%5D%29&cmd=search"
    },
    {
      "text": "Solvents, acute toxic effect",
      "url": "https://haz-map.com/Diseases/326"
    }
  ]
}