{
  "metadata": {
    "scraped_from": "https://haz-map.com/Agents/6368",
    "entity_name": "N,N'-Diphenylguanidine",
    "category": "agents",
    "uuid": "64622c61-5728-4d70-9472-3b6ed83a9624",
    "scraped_at": "2025-07-23T20:01:07.916886"
  },
  "parsed_at": "2025-07-24T01:11:12.148556",
  "title": "N,N'-Diphenylguanidine",
  "sections": {
    "general": {
      "agent_name": {
        "original_name": "Agent Name",
        "value": "N,N'-Diphenylguanidine",
        "links": [],
        "cross_references": [
          {
            "type": "name_match",
            "text": "n,n'-diphenylguanidine",
            "confidence": 1.0,
            "uuid": "64622c61-5728-4d70-9472-3b6ed83a9624",
            "name": "N,N'-Diphenylguanidine",
            "url": "https://haz-map.com/Agents/6368",
            "category": "agents"
          },
          {
            "type": "name_match",
            "text": "guanidine",
            "confidence": 1.0,
            "uuid": "0569bc2f-9177-43a3-a8fc-30683a513f3d",
            "name": "Guanidine",
            "url": "https://haz-map.com/Agents/14472",
            "category": "agents"
          }
        ]
      },
      "cas_number": {
        "original_name": "CAS Number",
        "value": "102-06-7",
        "links": [],
        "cross_references": []
      },
      "formula": {
        "original_name": "Formula",
        "value": "C13-H13-N3",
        "links": [],
        "cross_references": []
      },
      "major_category": {
        "original_name": "Major Category",
        "value": "Plastics & Rubber",
        "links": [],
        "cross_references": []
      },
      "synonyms": {
        "original_name": "Synonyms",
        "value": "1,3-Difenylguanid [Czech]; 1,3-Diphenylguanidine; Accelerator D; DFG; DPG; DPG (VAN); DPG accelerator; Denax; Denax DPG; Diphenylguanidine; Dwufenyloguanidyna [Polish]; Guanidine, 1,3-diphenyl-; Guanidine, N,N'-diphenyl-; Melaniline; Nocceler D; Vulcafor DPG; Vulkacit D; Vulkacit D/C; Vulkacite D; Vulkazit; s-Diphenylguanidine; [ChemIDplus]",
        "links": [],
        "cross_references": [
          {
            "type": "name_match",
            "text": "aniline",
            "confidence": 1.0,
            "uuid": "e4932692-8d9c-4a98-8c5c-81e55b12aedf",
            "name": "Aniline",
            "url": "https://haz-map.com/Agents/296",
            "category": "agents"
          },
          {
            "type": "name_match",
            "text": "guanidine",
            "confidence": 1.0,
            "uuid": "0569bc2f-9177-43a3-a8fc-30683a513f3d",
            "name": "Guanidine",
            "url": "https://haz-map.com/Agents/14472",
            "category": "agents"
          }
        ]
      },
      "category": {
        "original_name": "Category",
        "value": "Rubber Additives",
        "links": [],
        "cross_references": []
      },
      "description": {
        "original_name": "Description",
        "value": "Colorless or white solid; [ICSC] White powder; [MSDSonline]",
        "links": [],
        "cross_references": []
      },
      "sourcesuses": {
        "original_name": "Sources/Uses",
        "value": "Used as a vulcanization accelerator, an activator for other rubber accelerators, and a primary material for standardizing acids; [HSDB] Formerly was contained in \"Carbamix\" used to patch test for allergic contact dermatitis; Workers may be exposed to rubber items in homemaking and in the metal, health, laboratory, and building industries; [Kanerva, p. 1789]",
        "links": [],
        "cross_references": [
          {
            "type": "name_match",
            "text": "dermatitis",
            "confidence": 1.0,
            "uuid": "fe9c05f2-b19f-4ceb-ac7a-ffb7d7a0cae0",
            "name": "dermatitis",
            "url": "https://haz-map.com/Findings/59",
            "category": "findings"
          },
          {
            "type": "fuzzy_match",
            "text": "contact dermatitis",
            "matched_name": "Contact dermatitis, allergic",
            "confidence": 0.7214285714285715,
            "uuid": "c9499de0-9aa1-41bf-8753-cd5b28a63e29",
            "category": "diseases",
            "url": "https://haz-map.com/Diseases/18"
          }
        ]
      },
      "comments": {
        "original_name": "Comments",
        "value": "A mild eye irritant; May affect human reproduction, based on animal studies; [ICSC] Based on animal studies, a mild eye irritant, but not a skin irritant; Metabolized quickly and eliminated in urine and feces; Has effects on liver and nervous system in feeding studies; Not genotoxic; Not teratogenic; Fetotoxic at maternotoxic doses; [Reference #2]",
        "links": [],
        "cross_references": []
      },
      "reference_link_1": {
        "original_name": "Reference Link #1",
        "value": "Occupational allergic contact dermatitis from diph... [Contact Dermatitis. 1994] - PubMed result",
        "links": [
          {
            "text": "Occupational allergic contact dermatitis from diph... [Contact Dermatitis. 1994] - PubMed result",
            "url": "http://www.ncbi.nlm.nih.gov/pubmed/7750262?itool=EntrezSystem2.PEntrez.Pubmed.Pubmed_ResultsPanel.Pubmed_RVDocSum&ordinalpos=136"
          }
        ],
        "cross_references": [
          {
            "type": "name_match",
            "text": "dermatitis",
            "confidence": 1.0,
            "uuid": "fe9c05f2-b19f-4ceb-ac7a-ffb7d7a0cae0",
            "name": "dermatitis",
            "url": "https://haz-map.com/Findings/59",
            "category": "findings"
          },
          {
            "type": "fuzzy_match",
            "text": "contact dermatitis",
            "matched_name": "Contact dermatitis, allergic",
            "confidence": 0.7214285714285715,
            "uuid": "c9499de0-9aa1-41bf-8753-cd5b28a63e29",
            "category": "diseases",
            "url": "https://haz-map.com/Diseases/18"
          }
        ]
      },
      "biomedical_references": {
        "original_name": "Biomedical References",
        "value": "Search PubMed",
        "links": [
          {
            "text": "Search PubMed",
            "url": "https://www.ncbi.nlm.nih.gov/pubmed?term=N%2cN%26%2339%3b-Diphenylguanidine%20AND%20human%5Bmh%5D%20AND%20%28Occupational%20Diseases%20%5Bmh%5D%20OR%20Occupational%20Exposure%20%5Bmh%5D%29%20%20AND%20%28tox%5Bsb%5D%29&cmd=search"
          }
        ],
        "cross_references": []
      }
    },
    "exposure_assessment": {
      "vapor_pressure": {
        "original_name": "Vapor Pressure",
        "value": "8.45E-06 mm Hg",
        "links": [],
        "cross_references": []
      },
      "reference_link_2": {
        "original_name": "Reference Link #2",
        "value": "OECD SIDS: 1,3-Diphenylguanidine - 2002",
        "links": [
          {
            "text": "OECD SIDS: 1,3-Diphenylguanidine - 2002",
            "url": "http://webnet.oecd.org/Hpv/UI/handler.axd?id=fd382009-5e91-4265-98e0-46066f37d902"
          }
        ],
        "cross_references": [
          {
            "type": "name_match",
            "text": "guanidine",
            "confidence": 1.0,
            "uuid": "0569bc2f-9177-43a3-a8fc-30683a513f3d",
            "name": "Guanidine",
            "url": "https://haz-map.com/Agents/14472",
            "category": "agents"
          }
        ]
      }
    },
    "adverse_effects": {
      "skin_sensitizer": {
        "original_name": "Skin Sensitizer",
        "value": "Yes",
        "links": [],
        "cross_references": []
      }
    },
    "diseases_processes_and_activities_linked_to_this_agent": {
      "diseases": {
        "original_name": "Diseases",
        "value": "Occupational diseases associated with exposure to this agent: Contact dermatitis, allergic",
        "links": [
          {
            "text": "Contact dermatitis, allergic",
            "url": "https://haz-map.com/Diseases/18"
          }
        ],
        "cross_references": [
          {
            "type": "url_match",
            "text": "Contact dermatitis, allergic",
            "url": "https://haz-map.com/Diseases/18",
            "confidence": 1.0,
            "uuid": "c9499de0-9aa1-41bf-8753-cd5b28a63e29",
            "name": "Contact dermatitis, allergic",
            "category": "diseases"
          },
          {
            "type": "name_match",
            "text": "dermatitis",
            "confidence": 1.0,
            "uuid": "fe9c05f2-b19f-4ceb-ac7a-ffb7d7a0cae0",
            "name": "dermatitis",
            "url": "https://haz-map.com/Findings/59",
            "category": "findings"
          }
        ]
      }
    }
  },
  "cross_references": [
    {
      "type": "url_match",
      "text": "Contact dermatitis, allergic",
      "url": "https://haz-map.com/Diseases/18",
      "confidence": 1.0,
      "uuid": "c9499de0-9aa1-41bf-8753-cd5b28a63e29",
      "name": "Contact dermatitis, allergic",
      "category": "diseases"
    },
    {
      "type": "name_match",
      "text": "dermatitis",
      "confidence": 1.0,
      "uuid": "fe9c05f2-b19f-4ceb-ac7a-ffb7d7a0cae0",
      "name": "dermatitis",
      "url": "https://haz-map.com/Findings/59",
      "category": "findings"
    },
    {
      "type": "name_match",
      "text": "aniline",
      "confidence": 1.0,
      "uuid": "e4932692-8d9c-4a98-8c5c-81e55b12aedf",
      "name": "Aniline",
      "url": "https://haz-map.com/Agents/296",
      "category": "agents"
    },
    {
      "type": "name_match",
      "text": "n,n'-diphenylguanidine",
      "confidence": 1.0,
      "uuid": "64622c61-5728-4d70-9472-3b6ed83a9624",
      "name": "N,N'-Diphenylguanidine",
      "url": "https://haz-map.com/Agents/6368",
      "category": "agents"
    },
    {
      "type": "name_match",
      "text": "guanidine",
      "confidence": 1.0,
      "uuid": "0569bc2f-9177-43a3-a8fc-30683a513f3d",
      "name": "Guanidine",
      "url": "https://haz-map.com/Agents/14472",
      "category": "agents"
    }
  ],
  "all_links": [
    {
      "text": "Occupational allergic contact dermatitis from diph... [Contact Dermatitis. 1994] - PubMed result",
      "url": "http://www.ncbi.nlm.nih.gov/pubmed/7750262?itool=EntrezSystem2.PEntrez.Pubmed.Pubmed_ResultsPanel.Pubmed_RVDocSum&ordinalpos=136"
    },
    {
      "text": "Search PubMed",
      "url": "https://www.ncbi.nlm.nih.gov/pubmed?term=N%2cN%26%2339%3b-Diphenylguanidine%20AND%20human%5Bmh%5D%20AND%20%28Occupational%20Diseases%20%5Bmh%5D%20OR%20Occupational%20Exposure%20%5Bmh%5D%29%20%20AND%20%28tox%5Bsb%5D%29&cmd=search"
    },
    {
      "text": "OECD SIDS: 1,3-Diphenylguanidine - 2002",
      "url": "http://webnet.oecd.org/Hpv/UI/handler.axd?id=fd382009-5e91-4265-98e0-46066f37d902"
    },
    {
      "text": "Contact dermatitis, allergic",
      "url": "https://haz-map.com/Diseases/18"
    }
  ]
}