{
  "metadata": {
    "scraped_from": "https://haz-map.com/Agents/9930",
    "entity_name": "2,3-Pentanedione",
    "category": "agents",
    "uuid": "64c9285b-ba2e-4fbd-a0b8-036e230a14f3",
    "scraped_at": "2025-07-23T20:43:13.006816"
  },
  "parsed_at": "2025-07-24T01:12:21.462402",
  "title": "2,3-Pentanedione",
  "sections": {
    "general": {
      "agent_name": {
        "original_name": "Agent Name",
        "value": "2,3-Pentanedione",
        "links": [],
        "cross_references": [
          {
            "type": "name_match",
            "text": "2,3-pentanedione",
            "confidence": 1.0,
            "uuid": "64c9285b-ba2e-4fbd-a0b8-036e230a14f3",
            "name": "2,3-Pentanedione",
            "url": "https://haz-map.com/Agents/9930",
            "category": "agents"
          }
        ]
      },
      "cas_number": {
        "original_name": "CAS Number",
        "value": "600-14-6",
        "links": [],
        "cross_references": []
      },
      "formula": {
        "original_name": "Formula",
        "value": "C5-H8-O2",
        "links": [],
        "cross_references": []
      },
      "major_category": {
        "original_name": "Major Category",
        "value": "Other Classes",
        "links": [],
        "cross_references": []
      },
      "synonyms": {
        "original_name": "Synonyms",
        "value": "2,3-Pentadione; Acetyl propionyl; Acetyl propionyl (natural); Acetylpropionyl; [ChemIDplus] UN1224",
        "links": [],
        "cross_references": []
      },
      "category": {
        "original_name": "Category",
        "value": "Aliphatic Ketones, Other",
        "links": [],
        "cross_references": []
      },
      "description": {
        "original_name": "Description",
        "value": "Colorless to dark yellow liquid with a pleasant buttery odor; [Reference #1] Yellow liquid; [Alfa Aesar MSDS]",
        "links": [],
        "cross_references": []
      },
      "sourcesuses": {
        "original_name": "Sources/Uses",
        "value": "Used as flavoring agent or adjuvant; [FDA] Used as a substitute for diacetyl in food flavoring and food production; [Reference #1]",
        "links": [],
        "cross_references": [
          {
            "type": "name_match",
            "text": "diacetyl",
            "confidence": 1.0,
            "uuid": "20088625-7702-4c7d-8a1a-a49f60d24950",
            "name": "Diacetyl",
            "url": "https://haz-map.com/Agents/1853",
            "category": "agents"
          }
        ]
      },
      "comments": {
        "original_name": "Comments",
        "value": "A moderate skin irritant; [RTECS] Safe when used as a flavoring agent in food; [JECFA] Due to structural similarities with diacetyl, there are concerns that occupational exposure may lead to a decline in pulmonary function; Airway epithelial damage demonstrated in rats is similar to that caused by diacetyl; [Reference #1] Danger of skin sensitization; [MAK] A skin and strong eye irritant; [Alfa Aesar MSDS] See \"Environmental characterization of a coffee processing workplace with obliterative bronchiolitis in former workers.\" [ PMID 27105025 ] See \"Diacetyl.\" See \"2,4-Pentanedione.\"",
        "links": [
          {
            "text": "PMID 27105025",
            "url": "https://www.ncbi.nlm.nih.gov/pubmed/27105025"
          }
        ],
        "cross_references": [
          {
            "type": "name_match",
            "text": "lead",
            "confidence": 1.0,
            "uuid": "24246eba-13d7-456a-a142-ceae0f1df43f",
            "name": "Lead",
            "url": "https://haz-map.com/Agents/10",
            "category": "agents"
          },
          {
            "type": "name_match",
            "text": "2,4-pentanedione",
            "confidence": 1.0,
            "uuid": "db2e6e9a-285e-4cac-b61b-5ef6ca5fc16f",
            "name": "2,4-Pentanedione",
            "url": "https://haz-map.com/Agents/1488",
            "category": "agents"
          },
          {
            "type": "name_match",
            "text": "diacetyl",
            "confidence": 1.0,
            "uuid": "20088625-7702-4c7d-8a1a-a49f60d24950",
            "name": "Diacetyl",
            "url": "https://haz-map.com/Agents/1853",
            "category": "agents"
          },
          {
            "type": "name_match",
            "text": "iron",
            "confidence": 1.0,
            "uuid": "a6101f16-ec31-4d6c-af41-cbdbda5b1c7c",
            "name": "Iron",
            "url": "https://haz-map.com/Agents/1993",
            "category": "agents"
          }
        ]
      },
      "reference_link_1": {
        "original_name": "Reference Link #1",
        "value": "CDC/NIOSH: Criteria for a Recommended Standard: Occupational Exposure to Diacetyl and 2,3-Pentanedione - 2011",
        "links": [
          {
            "text": "CDC/NIOSH: Criteria for a Recommended Standard: Occupational Exposure to Diacetyl and 2,3-Pentanedione - 2011",
            "url": "http://www.cdc.gov/niosh/docket/archive/pdfs/NIOSH-245/DraftDiacetylCriteriaDocument081211.pdf"
          }
        ],
        "cross_references": [
          {
            "type": "name_match",
            "text": "diacetyl",
            "confidence": 1.0,
            "uuid": "20088625-7702-4c7d-8a1a-a49f60d24950",
            "name": "Diacetyl",
            "url": "https://haz-map.com/Agents/1853",
            "category": "agents"
          },
          {
            "type": "name_match",
            "text": "2,3-pentanedione",
            "confidence": 1.0,
            "uuid": "64c9285b-ba2e-4fbd-a0b8-036e230a14f3",
            "name": "2,3-Pentanedione",
            "url": "https://haz-map.com/Agents/9930",
            "category": "agents"
          }
        ]
      },
      "biomedical_references": {
        "original_name": "Biomedical References",
        "value": "Search PubMed",
        "links": [
          {
            "text": "Search PubMed",
            "url": "https://www.ncbi.nlm.nih.gov/pubmed?term=2%2c3-Pentanedione%20AND%20human%5Bmh%5D%20AND%20%28Occupational%20Diseases%20%5Bmh%5D%20OR%20Occupational%20Exposure%20%5Bmh%5D%29%20%20AND%20%28tox%5Bsb%5D%29&cmd=search"
          }
        ],
        "cross_references": []
      }
    },
    "exposure_assessment": {
      "mak": {
        "original_name": "MAK",
        "value": "0.02 ppm",
        "links": [],
        "cross_references": []
      },
      "vapor_pressure": {
        "original_name": "Vapor Pressure",
        "value": "21.4 mm Hg",
        "links": [],
        "cross_references": []
      },
      "odor_threshold_low": {
        "original_name": "Odor Threshold Low",
        "value": "2E-05 ppm",
        "links": [],
        "cross_references": []
      },
      "explanatory_notes": {
        "original_name": "Explanatory Notes",
        "value": "Odor threshold from Reference #1; The Guide in the Emergency Response Guidebook is for \"Ketones, liquid, n.o.s.\"",
        "links": [],
        "cross_references": []
      }
    },
    "adverse_effects": {
      "skin_sensitizer": {
        "original_name": "Skin Sensitizer",
        "value": "Yes",
        "links": [],
        "cross_references": []
      }
    },
    "diseases_processes_and_activities_linked_to_this_agent": {
      "diseases": {
        "original_name": "Diseases",
        "value": "Occupational diseases associated with exposure to this agent: Bronchiolitis obliterans Contact dermatitis, allergic",
        "links": [
          {
            "text": "Bronchiolitis obliterans",
            "url": "https://haz-map.com/Diseases/551"
          },
          {
            "text": "Contact dermatitis, allergic",
            "url": "https://haz-map.com/Diseases/18"
          }
        ],
        "cross_references": [
          {
            "type": "url_match",
            "text": "Contact dermatitis, allergic",
            "url": "https://haz-map.com/Diseases/18",
            "confidence": 1.0,
            "uuid": "c9499de0-9aa1-41bf-8753-cd5b28a63e29",
            "name": "Contact dermatitis, allergic",
            "category": "diseases"
          },
          {
            "type": "name_match",
            "text": "dermatitis",
            "confidence": 1.0,
            "uuid": "fe9c05f2-b19f-4ceb-ac7a-ffb7d7a0cae0",
            "name": "dermatitis",
            "url": "https://haz-map.com/Findings/59",
            "category": "findings"
          }
        ]
      }
    }
  },
  "cross_references": [
    {
      "type": "url_match",
      "text": "Contact dermatitis, allergic",
      "url": "https://haz-map.com/Diseases/18",
      "confidence": 1.0,
      "uuid": "c9499de0-9aa1-41bf-8753-cd5b28a63e29",
      "name": "Contact dermatitis, allergic",
      "category": "diseases"
    },
    {
      "type": "name_match",
      "text": "dermatitis",
      "confidence": 1.0,
      "uuid": "fe9c05f2-b19f-4ceb-ac7a-ffb7d7a0cae0",
      "name": "dermatitis",
      "url": "https://haz-map.com/Findings/59",
      "category": "findings"
    },
    {
      "type": "name_match",
      "text": "lead",
      "confidence": 1.0,
      "uuid": "24246eba-13d7-456a-a142-ceae0f1df43f",
      "name": "Lead",
      "url": "https://haz-map.com/Agents/10",
      "category": "agents"
    },
    {
      "type": "name_match",
      "text": "2,4-pentanedione",
      "confidence": 1.0,
      "uuid": "db2e6e9a-285e-4cac-b61b-5ef6ca5fc16f",
      "name": "2,4-Pentanedione",
      "url": "https://haz-map.com/Agents/1488",
      "category": "agents"
    },
    {
      "type": "name_match",
      "text": "diacetyl",
      "confidence": 1.0,
      "uuid": "20088625-7702-4c7d-8a1a-a49f60d24950",
      "name": "Diacetyl",
      "url": "https://haz-map.com/Agents/1853",
      "category": "agents"
    },
    {
      "type": "name_match",
      "text": "iron",
      "confidence": 1.0,
      "uuid": "a6101f16-ec31-4d6c-af41-cbdbda5b1c7c",
      "name": "Iron",
      "url": "https://haz-map.com/Agents/1993",
      "category": "agents"
    },
    {
      "type": "name_match",
      "text": "2,3-pentanedione",
      "confidence": 1.0,
      "uuid": "64c9285b-ba2e-4fbd-a0b8-036e230a14f3",
      "name": "2,3-Pentanedione",
      "url": "https://haz-map.com/Agents/9930",
      "category": "agents"
    }
  ],
  "all_links": [
    {
      "text": "PMID 27105025",
      "url": "https://www.ncbi.nlm.nih.gov/pubmed/27105025"
    },
    {
      "text": "CDC/NIOSH: Criteria for a Recommended Standard: Occupational Exposure to Diacetyl and 2,3-Pentanedione - 2011",
      "url": "http://www.cdc.gov/niosh/docket/archive/pdfs/NIOSH-245/DraftDiacetylCriteriaDocument081211.pdf"
    },
    {
      "text": "Search PubMed",
      "url": "https://www.ncbi.nlm.nih.gov/pubmed?term=2%2c3-Pentanedione%20AND%20human%5Bmh%5D%20AND%20%28Occupational%20Diseases%20%5Bmh%5D%20OR%20Occupational%20Exposure%20%5Bmh%5D%29%20%20AND%20%28tox%5Bsb%5D%29&cmd=search"
    },
    {
      "text": "Bronchiolitis obliterans",
      "url": "https://haz-map.com/Diseases/551"
    },
    {
      "text": "Contact dermatitis, allergic",
      "url": "https://haz-map.com/Diseases/18"
    }
  ]
}