{
  "metadata": {
    "scraped_from": "https://haz-map.com/Agents/19760",
    "entity_name": "3-Benzoylpropionic acid",
    "category": "agents",
    "uuid": "650067e9-0c06-4795-92a0-757b1e8ec372",
    "scraped_at": "2025-07-23T22:12:28.729411"
  },
  "parsed_at": "2025-07-24T00:52:41.669030",
  "title": "3-Benzoylpropionic acid",
  "sections": {
    "general": {
      "agent_name": {
        "original_name": "Agent Name",
        "value": "3-Benzoylpropionic acid",
        "links": [],
        "cross_references": [
          {
            "type": "name_match",
            "text": "propionic acid",
            "confidence": 1.0,
            "uuid": "519c4d0a-ac6f-4f79-a08f-47ebc278e0b4",
            "name": "Propionic acid",
            "url": "https://haz-map.com/Agents/609",
            "category": "agents"
          },
          {
            "type": "name_match",
            "text": "3-benzoylpropionic acid",
            "confidence": 1.0,
            "uuid": "650067e9-0c06-4795-92a0-757b1e8ec372",
            "name": "3-Benzoylpropionic acid",
            "url": "https://haz-map.com/Agents/19760",
            "category": "agents"
          }
        ]
      },
      "cas_number": {
        "original_name": "CAS Number",
        "value": "2051-95-8",
        "links": [],
        "cross_references": []
      },
      "formula": {
        "original_name": "Formula",
        "value": "C10-H10-O3",
        "links": [],
        "cross_references": []
      },
      "major_category": {
        "original_name": "Major Category",
        "value": "Other Classes",
        "links": [],
        "cross_references": []
      },
      "synonyms": {
        "original_name": "Synonyms",
        "value": "Benzoylpropionic acid; 3-Benzoylpropanoic acid; 4-Oxo-4-phenylbutyric acid; beta-Benzoylpropionic acid; Propanoic acid, 3-benzoyl-; Benzenebutanoic acid, gamma-oxo-; Propionic acid, 3-benzoyl- (8CI); [ChemIDplus]",
        "links": [],
        "cross_references": [
          {
            "type": "name_match",
            "text": "benzene",
            "confidence": 1.0,
            "uuid": "b05124de-5f34-4c14-8f04-ccb20c3780d9",
            "name": "Benzene",
            "url": "https://haz-map.com/Agents/5",
            "category": "agents"
          },
          {
            "type": "name_match",
            "text": "propionic acid",
            "confidence": 1.0,
            "uuid": "519c4d0a-ac6f-4f79-a08f-47ebc278e0b4",
            "name": "Propionic acid",
            "url": "https://haz-map.com/Agents/609",
            "category": "agents"
          },
          {
            "type": "name_match",
            "text": "butyric acid",
            "confidence": 1.0,
            "uuid": "a59c4184-bd52-40af-8450-80d14bbee018",
            "name": "Butyric acid",
            "url": "https://haz-map.com/Agents/1391",
            "category": "agents"
          },
          {
            "type": "name_match",
            "text": "4-phenylbutyric acid",
            "confidence": 1.0,
            "uuid": "7387f4b1-daab-4f0e-a3ab-f6cbb2a71951",
            "name": "4-Phenylbutyric acid",
            "url": "https://haz-map.com/Agents/20084",
            "category": "agents"
          }
        ]
      },
      "category": {
        "original_name": "Category",
        "value": "Organic Acids",
        "links": [],
        "cross_references": []
      },
      "description": {
        "original_name": "Description",
        "value": "Light brown crystalline solid; [Sigma-Aldrich MSDS]",
        "links": [],
        "cross_references": [
          {
            "type": "name_match",
            "text": "ht",
            "confidence": 1.0,
            "uuid": "764df367-8d53-4a11-81a2-31ccfe122a8d",
            "name": "HT",
            "url": "https://haz-map.com/Agents/2168",
            "category": "agents"
          },
          {
            "type": "fuzzy_match",
            "text": "crystalline",
            "matched_name": "Silica, crystalline",
            "confidence": 0.7061403508771931,
            "uuid": "f920e8a2-46df-41b7-af8d-0368a777251e",
            "category": "agents",
            "url": "https://haz-map.com/Agents/427"
          }
        ]
      },
      "comments": {
        "original_name": "Comments",
        "value": "A skin and strong eye irritant; [Sigma-Aldrich MSDS]",
        "links": [],
        "cross_references": []
      },
      "biomedical_references": {
        "original_name": "Biomedical References",
        "value": "Search PubMed",
        "links": [
          {
            "text": "Search PubMed",
            "url": "https://www.ncbi.nlm.nih.gov/pubmed?term=3-Benzoylpropionic+acid%20AND%20human%5Bmh%5D%20AND%20%28Occupational%20Diseases%20%5Bmh%5D%20OR%20Occupational%20Exposure%20%5Bmh%5D%29%20%20AND%20%28tox%5Bsb%5D%29&cmd=search"
          }
        ],
        "cross_references": []
      }
    },
    "exposure_assessment": {
      "vapor_pressure": {
        "original_name": "Vapor Pressure",
        "value": "9.73E-05 mm Hg",
        "links": [],
        "cross_references": []
      }
    },
    "diseases_processes_and_activities_linked_to_this_agent": {
      "other_information": {
        "original_name": "Other Information",
        "value": "No other related information on this agent was found.",
        "links": [],
        "cross_references": []
      }
    }
  },
  "cross_references": [
    {
      "type": "name_match",
      "text": "benzene",
      "confidence": 1.0,
      "uuid": "b05124de-5f34-4c14-8f04-ccb20c3780d9",
      "name": "Benzene",
      "url": "https://haz-map.com/Agents/5",
      "category": "agents"
    },
    {
      "type": "name_match",
      "text": "propionic acid",
      "confidence": 1.0,
      "uuid": "519c4d0a-ac6f-4f79-a08f-47ebc278e0b4",
      "name": "Propionic acid",
      "url": "https://haz-map.com/Agents/609",
      "category": "agents"
    },
    {
      "type": "name_match",
      "text": "butyric acid",
      "confidence": 1.0,
      "uuid": "a59c4184-bd52-40af-8450-80d14bbee018",
      "name": "Butyric acid",
      "url": "https://haz-map.com/Agents/1391",
      "category": "agents"
    },
    {
      "type": "name_match",
      "text": "ht",
      "confidence": 1.0,
      "uuid": "764df367-8d53-4a11-81a2-31ccfe122a8d",
      "name": "HT",
      "url": "https://haz-map.com/Agents/2168",
      "category": "agents"
    },
    {
      "type": "name_match",
      "text": "3-benzoylpropionic acid",
      "confidence": 1.0,
      "uuid": "650067e9-0c06-4795-92a0-757b1e8ec372",
      "name": "3-Benzoylpropionic acid",
      "url": "https://haz-map.com/Agents/19760",
      "category": "agents"
    },
    {
      "type": "name_match",
      "text": "4-phenylbutyric acid",
      "confidence": 1.0,
      "uuid": "7387f4b1-daab-4f0e-a3ab-f6cbb2a71951",
      "name": "4-Phenylbutyric acid",
      "url": "https://haz-map.com/Agents/20084",
      "category": "agents"
    },
    {
      "type": "fuzzy_match",
      "text": "crystalline",
      "matched_name": "Silica, crystalline",
      "confidence": 0.7061403508771931,
      "uuid": "f920e8a2-46df-41b7-af8d-0368a777251e",
      "category": "agents",
      "url": "https://haz-map.com/Agents/427"
    }
  ],
  "all_links": [
    {
      "text": "Search PubMed",
      "url": "https://www.ncbi.nlm.nih.gov/pubmed?term=3-Benzoylpropionic+acid%20AND%20human%5Bmh%5D%20AND%20%28Occupational%20Diseases%20%5Bmh%5D%20OR%20Occupational%20Exposure%20%5Bmh%5D%29%20%20AND%20%28tox%5Bsb%5D%29&cmd=search"
    }
  ]
}