{
  "metadata": {
    "scraped_from": "https://haz-map.com/Agents/2968",
    "entity_name": "2,3-Dichloropropanol",
    "category": "agents",
    "uuid": "6514d887-f12c-4ae7-999a-048a6b03e3f5",
    "scraped_at": "2025-07-23T19:21:51.087602"
  },
  "parsed_at": "2025-07-24T01:08:54.959729",
  "title": "2,3-Dichloropropanol",
  "sections": {
    "general": {
      "agent_name": {
        "original_name": "Agent Name",
        "value": "2,3-Dichloropropanol",
        "links": [],
        "cross_references": [
          {
            "type": "name_match",
            "text": "2,3-dichloropropanol",
            "confidence": 1.0,
            "uuid": "6514d887-f12c-4ae7-999a-048a6b03e3f5",
            "name": "2,3-Dichloropropanol",
            "url": "https://haz-map.com/Agents/2968",
            "category": "agents"
          }
        ]
      },
      "cas_number": {
        "original_name": "CAS Number",
        "value": "616-23-9",
        "links": [],
        "cross_references": []
      },
      "formula": {
        "original_name": "Formula",
        "value": "C3-H6-Cl2-O",
        "links": [],
        "cross_references": []
      },
      "major_category": {
        "original_name": "Major Category",
        "value": "Other Classes",
        "links": [],
        "cross_references": []
      },
      "synonyms": {
        "original_name": "Synonyms",
        "value": "1,2-Dichloro-3-propanol; 1-Propanol, 2,3-dichloro-; 2,3-Dichloro-1-propanol; 2,3-Dichloropropyl alcohol; Glycerol 1,2-dichlorohydrin; Glycerol alpha,beta-dichlorohydrin; alpha,beta-Dichlorohydrin; 2,3-Dichloropropan-1-ol; [ChemIDplus] UN2750",
        "links": [],
        "cross_references": []
      },
      "category": {
        "original_name": "Category",
        "value": "Halogenated Alcohols",
        "links": [],
        "cross_references": []
      },
      "description": {
        "original_name": "Description",
        "value": "Colorless to amber liquid with an ethereal odor; [CAMEO]",
        "links": [],
        "cross_references": []
      },
      "sourcesuses": {
        "original_name": "Sources/Uses",
        "value": "Used for the production of epichlorohydrin; [HSDB]",
        "links": [],
        "cross_references": [
          {
            "type": "name_match",
            "text": "epichlorohydrin",
            "confidence": 1.0,
            "uuid": "6c558d8c-7186-4668-b74f-11b4ae98369c",
            "name": "Epichlorohydrin",
            "url": "https://haz-map.com/Agents/358",
            "category": "agents"
          }
        ]
      },
      "comments": {
        "original_name": "Comments",
        "value": "Irritating to skin; Severely irritating to eyes; Poisonous by ingestion and skin contact; Moderately toxic by inhalation; \"Two middle aged men developed severe hepatic injury just after cleaning a dichloropropanol tank at a plant producing dichloropropanol. They died from hepatic failure 4 and 11 days respectively, after carrying out the work. Liver specimens taken at autopsy from one of the cases showed submassive hepatic necrosis.\" [HSDB] Toxic after ingestion or skin absorption; An irritant; May cause serious injury to eyes; [MSDSonline]",
        "links": [],
        "cross_references": []
      },
      "reference_link_1": {
        "original_name": "Reference Link #1",
        "value": "Tocxicity of dichloropropanols",
        "links": [
          {
            "text": "Tocxicity of dichloropropanols",
            "url": "https://pubmed.ncbi.nlm.nih.gov/12235957/"
          }
        ],
        "cross_references": []
      },
      "biomedical_references": {
        "original_name": "Biomedical References",
        "value": "Search PubMed",
        "links": [
          {
            "text": "Search PubMed",
            "url": "https://www.ncbi.nlm.nih.gov/pubmed?term=2%2c3-Dichloropropanol%20AND%20human%5Bmh%5D%20AND%20%28Occupational%20Diseases%20%5Bmh%5D%20OR%20Occupational%20Exposure%20%5Bmh%5D%29%20%20AND%20%28tox%5Bsb%5D%29&cmd=search"
          }
        ],
        "cross_references": []
      }
    },
    "exposure_assessment": {
      "vapor_pressure": {
        "original_name": "Vapor Pressure",
        "value": "0.184 mm Hg",
        "links": [],
        "cross_references": []
      },
      "lethal_concentration": {
        "original_name": "Lethal Concentration",
        "value": "LCLo (rat) = 500 ppm/4h",
        "links": [],
        "cross_references": []
      },
      "explanatory_notes": {
        "original_name": "Explanatory Notes",
        "value": "VP from ChemIDplus;",
        "links": [],
        "cross_references": []
      },
      "reference_link_2": {
        "original_name": "Reference Link #2",
        "value": "Liver Injury Induced by Dichloropropanols",
        "links": [
          {
            "text": "Liver Injury Induced by Dichloropropanols",
            "url": "https://pubmed.ncbi.nlm.nih.gov/7927113/"
          }
        ],
        "cross_references": []
      }
    },
    "adverse_effects": {
      "hepatotoxin": {
        "original_name": "Hepatotoxin",
        "value": "Occupational hepatotoxin (principal effect)",
        "links": [],
        "cross_references": []
      }
    },
    "diseases_processes_and_activities_linked_to_this_agent": {
      "diseases": {
        "original_name": "Diseases",
        "value": "Occupational diseases associated with exposure to this agent: Hepatitis, chemical",
        "links": [
          {
            "text": "Hepatitis, chemical",
            "url": "https://haz-map.com/Diseases/82"
          }
        ],
        "cross_references": [
          {
            "type": "url_match",
            "text": "Hepatitis, chemical",
            "url": "https://haz-map.com/Diseases/82",
            "confidence": 1.0,
            "uuid": "9d97f591-2a9e-42f5-a554-8437ce659476",
            "name": "Hepatitis, chemical",
            "category": "diseases"
          },
          {
            "type": "name_match",
            "text": "mica",
            "confidence": 1.0,
            "uuid": "433f26f1-c399-4596-b179-ce3843cfd465",
            "name": "Mica",
            "url": "https://haz-map.com/Agents/621",
            "category": "agents"
          }
        ]
      }
    }
  },
  "cross_references": [
    {
      "type": "url_match",
      "text": "Hepatitis, chemical",
      "url": "https://haz-map.com/Diseases/82",
      "confidence": 1.0,
      "uuid": "9d97f591-2a9e-42f5-a554-8437ce659476",
      "name": "Hepatitis, chemical",
      "category": "diseases"
    },
    {
      "type": "name_match",
      "text": "epichlorohydrin",
      "confidence": 1.0,
      "uuid": "6c558d8c-7186-4668-b74f-11b4ae98369c",
      "name": "Epichlorohydrin",
      "url": "https://haz-map.com/Agents/358",
      "category": "agents"
    },
    {
      "type": "name_match",
      "text": "mica",
      "confidence": 1.0,
      "uuid": "433f26f1-c399-4596-b179-ce3843cfd465",
      "name": "Mica",
      "url": "https://haz-map.com/Agents/621",
      "category": "agents"
    },
    {
      "type": "name_match",
      "text": "2,3-dichloropropanol",
      "confidence": 1.0,
      "uuid": "6514d887-f12c-4ae7-999a-048a6b03e3f5",
      "name": "2,3-Dichloropropanol",
      "url": "https://haz-map.com/Agents/2968",
      "category": "agents"
    }
  ],
  "all_links": [
    {
      "text": "Tocxicity of dichloropropanols",
      "url": "https://pubmed.ncbi.nlm.nih.gov/12235957/"
    },
    {
      "text": "Search PubMed",
      "url": "https://www.ncbi.nlm.nih.gov/pubmed?term=2%2c3-Dichloropropanol%20AND%20human%5Bmh%5D%20AND%20%28Occupational%20Diseases%20%5Bmh%5D%20OR%20Occupational%20Exposure%20%5Bmh%5D%29%20%20AND%20%28tox%5Bsb%5D%29&cmd=search"
    },
    {
      "text": "Liver Injury Induced by Dichloropropanols",
      "url": "https://pubmed.ncbi.nlm.nih.gov/7927113/"
    },
    {
      "text": "Hepatitis, chemical",
      "url": "https://haz-map.com/Diseases/82"
    }
  ]
}