{
  "metadata": {
    "scraped_from": "https://haz-map.com/Agents/1927",
    "entity_name": "2,4-Dinitrophenylhydrazine",
    "category": "agents",
    "uuid": "65809d4b-8c8a-4cfd-beb0-12de959db0c9",
    "scraped_at": "2025-07-23T19:06:54.370574"
  },
  "parsed_at": "2025-07-24T00:51:03.741609",
  "title": "2,4-Dinitrophenylhydrazine",
  "sections": {
    "general": {
      "agent_name": {
        "original_name": "Agent Name",
        "value": "2,4-Dinitrophenylhydrazine",
        "links": [],
        "cross_references": [
          {
            "type": "name_match",
            "text": "hydrazine",
            "confidence": 1.0,
            "uuid": "72217956-0601-43f2-9d74-0d90d38fd09d",
            "name": "Hydrazine",
            "url": "https://haz-map.com/Agents/55",
            "category": "agents"
          },
          {
            "type": "name_match",
            "text": "phenylhydrazine",
            "confidence": 1.0,
            "uuid": "a9358f5a-6111-4142-a55c-101310e67591",
            "name": "Phenylhydrazine",
            "url": "https://haz-map.com/Agents/137",
            "category": "agents"
          },
          {
            "type": "name_match",
            "text": "2,4-d",
            "confidence": 1.0,
            "uuid": "bed35f54-2d93-4ffd-a3ee-723ab365faf1",
            "name": "2,4-D",
            "url": "https://haz-map.com/Agents/389",
            "category": "agents"
          },
          {
            "type": "name_match",
            "text": "2,4-dinitrophenylhydrazine",
            "confidence": 1.0,
            "uuid": "65809d4b-8c8a-4cfd-beb0-12de959db0c9",
            "name": "2,4-Dinitrophenylhydrazine",
            "url": "https://haz-map.com/Agents/1927",
            "category": "agents"
          }
        ]
      },
      "cas_number": {
        "original_name": "CAS Number",
        "value": "119-26-6",
        "links": [],
        "cross_references": []
      },
      "formula": {
        "original_name": "Formula",
        "value": "C6-H6-N4-O4",
        "links": [],
        "cross_references": []
      },
      "major_category": {
        "original_name": "Major Category",
        "value": "Other Uses",
        "links": [],
        "cross_references": []
      },
      "synonyms": {
        "original_name": "Synonyms",
        "value": "1-Hydrazino-2,4-dinitrobenzene; 2,4-Dinitrofenylhydrazin [Czech]; 2,4-Dinitrophenylhydrazine; 2,4-DNPH; [ChemIDplus] UN3380 (Desensitized explosive, solid); [MSDSonline]",
        "links": [],
        "cross_references": [
          {
            "type": "name_match",
            "text": "benzene",
            "confidence": 1.0,
            "uuid": "b05124de-5f34-4c14-8f04-ccb20c3780d9",
            "name": "Benzene",
            "url": "https://haz-map.com/Agents/5",
            "category": "agents"
          },
          {
            "type": "name_match",
            "text": "hydrazine",
            "confidence": 1.0,
            "uuid": "72217956-0601-43f2-9d74-0d90d38fd09d",
            "name": "Hydrazine",
            "url": "https://haz-map.com/Agents/55",
            "category": "agents"
          },
          {
            "type": "name_match",
            "text": "phenylhydrazine",
            "confidence": 1.0,
            "uuid": "a9358f5a-6111-4142-a55c-101310e67591",
            "name": "Phenylhydrazine",
            "url": "https://haz-map.com/Agents/137",
            "category": "agents"
          },
          {
            "type": "name_match",
            "text": "2,4-d",
            "confidence": 1.0,
            "uuid": "bed35f54-2d93-4ffd-a3ee-723ab365faf1",
            "name": "2,4-D",
            "url": "https://haz-map.com/Agents/389",
            "category": "agents"
          },
          {
            "type": "name_match",
            "text": "nitrobenzene",
            "confidence": 1.0,
            "uuid": "4488262c-4790-4774-a462-bf0cc71ff40c",
            "name": "Nitrobenzene",
            "url": "https://haz-map.com/Agents/569",
            "category": "agents"
          },
          {
            "type": "name_match",
            "text": "2,4-dinitrophenylhydrazine",
            "confidence": 1.0,
            "uuid": "65809d4b-8c8a-4cfd-beb0-12de959db0c9",
            "name": "2,4-Dinitrophenylhydrazine",
            "url": "https://haz-map.com/Agents/1927",
            "category": "agents"
          },
          {
            "type": "name_match",
            "text": "dinitrobenzene",
            "confidence": 1.0,
            "uuid": "49a0ec1f-8ee6-407d-8c6a-4edfe755be12",
            "name": "Dinitrobenzene",
            "url": "https://haz-map.com/Agents/4975",
            "category": "agents"
          },
          {
            "type": "name_match",
            "text": "nitrofen",
            "confidence": 1.0,
            "uuid": "edffc9d8-cb1b-4889-af6e-b0efc2a70f02",
            "name": "Nitrofen",
            "url": "https://haz-map.com/Agents/6349",
            "category": "agents"
          },
          {
            "type": "fuzzy_match",
            "text": "4-dinitrobenzene",
            "matched_name": "1-Iodo-2,4-dinitrobenzene",
            "confidence": 0.7128571428571429,
            "uuid": "a1c1d4e3-4010-4b18-9418-1deab926f871",
            "category": "agents",
            "url": "https://haz-map.com/Agents/19373"
          }
        ]
      },
      "category": {
        "original_name": "Category",
        "value": "Explosives",
        "links": [],
        "cross_references": []
      },
      "description": {
        "original_name": "Description",
        "value": "Blue-red flourescent crystals; [Sax] Red powder; [MSDSonline]",
        "links": [],
        "cross_references": []
      },
      "sourcesuses": {
        "original_name": "Sources/Uses",
        "value": "\"A dangerous explosive\"; [Sax] Used as a reagent for aldehydes and ketones; [Merck Index, 3283]",
        "links": [],
        "cross_references": [
          {
            "type": "name_match",
            "text": "aldehydes",
            "confidence": 1.0,
            "uuid": "60ff52e0-7c53-4dd0-99cf-f775cfcfed59",
            "name": "ALDEHYDES",
            "url": "https://haz-map.com/Agents/719",
            "category": "agents"
          }
        ]
      },
      "comments": {
        "original_name": "Comments",
        "value": "Emits nitrogen oxides when heated to decomposition; Toxic by ingestion; An eye irritant; [Sax] Highly flammable; Explosive when dry; [MSDSonline]",
        "links": [],
        "cross_references": [
          {
            "type": "name_match",
            "text": "nitrogen",
            "confidence": 1.0,
            "uuid": "db5e90a9-06d2-45b9-8b81-f345a89b0bc0",
            "name": "Nitrogen",
            "url": "https://haz-map.com/Agents/1072",
            "category": "agents"
          }
        ]
      },
      "biomedical_references": {
        "original_name": "Biomedical References",
        "value": "Search PubMed",
        "links": [
          {
            "text": "Search PubMed",
            "url": "https://www.ncbi.nlm.nih.gov/pubmed?term=2%2c4-Dinitrophenylhydrazine%20AND%20human%5Bmh%5D%20AND%20%28Occupational%20Diseases%20%5Bmh%5D%20OR%20Occupational%20Exposure%20%5Bmh%5D%29%20%20AND%20%28tox%5Bsb%5D%29&cmd=search"
          }
        ],
        "cross_references": []
      }
    },
    "exposure_assessment": {
      "vapor_pressure": {
        "original_name": "Vapor Pressure",
        "value": "1.25E-05 mm Hg",
        "links": [],
        "cross_references": []
      },
      "explanatory_notes": {
        "original_name": "Explanatory Notes",
        "value": "mp = 198 degrees C (decomposes); [Sax]",
        "links": [],
        "cross_references": []
      },
      "nfpa": {
        "original_name": "NFPA",
        "value": "high ambient temp required",
        "links": [],
        "cross_references": []
      }
    },
    "diseases_processes_and_activities_linked_to_this_agent": {
      "other_information": {
        "original_name": "Other Information",
        "value": "No other related information on this agent was found.",
        "links": [],
        "cross_references": []
      }
    }
  },
  "cross_references": [
    {
      "type": "name_match",
      "text": "benzene",
      "confidence": 1.0,
      "uuid": "b05124de-5f34-4c14-8f04-ccb20c3780d9",
      "name": "Benzene",
      "url": "https://haz-map.com/Agents/5",
      "category": "agents"
    },
    {
      "type": "name_match",
      "text": "hydrazine",
      "confidence": 1.0,
      "uuid": "72217956-0601-43f2-9d74-0d90d38fd09d",
      "name": "Hydrazine",
      "url": "https://haz-map.com/Agents/55",
      "category": "agents"
    },
    {
      "type": "name_match",
      "text": "phenylhydrazine",
      "confidence": 1.0,
      "uuid": "a9358f5a-6111-4142-a55c-101310e67591",
      "name": "Phenylhydrazine",
      "url": "https://haz-map.com/Agents/137",
      "category": "agents"
    },
    {
      "type": "name_match",
      "text": "2,4-d",
      "confidence": 1.0,
      "uuid": "bed35f54-2d93-4ffd-a3ee-723ab365faf1",
      "name": "2,4-D",
      "url": "https://haz-map.com/Agents/389",
      "category": "agents"
    },
    {
      "type": "name_match",
      "text": "nitrobenzene",
      "confidence": 1.0,
      "uuid": "4488262c-4790-4774-a462-bf0cc71ff40c",
      "name": "Nitrobenzene",
      "url": "https://haz-map.com/Agents/569",
      "category": "agents"
    },
    {
      "type": "name_match",
      "text": "aldehydes",
      "confidence": 1.0,
      "uuid": "60ff52e0-7c53-4dd0-99cf-f775cfcfed59",
      "name": "ALDEHYDES",
      "url": "https://haz-map.com/Agents/719",
      "category": "agents"
    },
    {
      "type": "name_match",
      "text": "nitrogen",
      "confidence": 1.0,
      "uuid": "db5e90a9-06d2-45b9-8b81-f345a89b0bc0",
      "name": "Nitrogen",
      "url": "https://haz-map.com/Agents/1072",
      "category": "agents"
    },
    {
      "type": "name_match",
      "text": "2,4-dinitrophenylhydrazine",
      "confidence": 1.0,
      "uuid": "65809d4b-8c8a-4cfd-beb0-12de959db0c9",
      "name": "2,4-Dinitrophenylhydrazine",
      "url": "https://haz-map.com/Agents/1927",
      "category": "agents"
    },
    {
      "type": "name_match",
      "text": "dinitrobenzene",
      "confidence": 1.0,
      "uuid": "49a0ec1f-8ee6-407d-8c6a-4edfe755be12",
      "name": "Dinitrobenzene",
      "url": "https://haz-map.com/Agents/4975",
      "category": "agents"
    },
    {
      "type": "name_match",
      "text": "nitrofen",
      "confidence": 1.0,
      "uuid": "edffc9d8-cb1b-4889-af6e-b0efc2a70f02",
      "name": "Nitrofen",
      "url": "https://haz-map.com/Agents/6349",
      "category": "agents"
    },
    {
      "type": "fuzzy_match",
      "text": "4-dinitrobenzene",
      "matched_name": "1-Iodo-2,4-dinitrobenzene",
      "confidence": 0.7128571428571429,
      "uuid": "a1c1d4e3-4010-4b18-9418-1deab926f871",
      "category": "agents",
      "url": "https://haz-map.com/Agents/19373"
    }
  ],
  "all_links": [
    {
      "text": "Search PubMed",
      "url": "https://www.ncbi.nlm.nih.gov/pubmed?term=2%2c4-Dinitrophenylhydrazine%20AND%20human%5Bmh%5D%20AND%20%28Occupational%20Diseases%20%5Bmh%5D%20OR%20Occupational%20Exposure%20%5Bmh%5D%29%20%20AND%20%28tox%5Bsb%5D%29&cmd=search"
    }
  ]
}