{
  "metadata": {
    "scraped_from": "https://haz-map.com/Agents/14562",
    "entity_name": "Butyl heptanoate",
    "category": "agents",
    "uuid": "65b87f91-be8c-4c54-8b56-0b1843a1d79d",
    "scraped_at": "2025-07-23T21:24:16.065965"
  },
  "parsed_at": "2025-07-24T00:52:15.519644",
  "title": "Butyl heptanoate",
  "sections": {
    "general": {
      "agent_name": {
        "original_name": "Agent Name",
        "value": "Butyl heptanoate",
        "links": [],
        "cross_references": [
          {
            "type": "name_match",
            "text": "butyl heptanoate",
            "confidence": 1.0,
            "uuid": "65b87f91-be8c-4c54-8b56-0b1843a1d79d",
            "name": "Butyl heptanoate",
            "url": "https://haz-map.com/Agents/14562",
            "category": "agents"
          }
        ]
      },
      "cas_number": {
        "original_name": "CAS Number",
        "value": "5454-28-4",
        "links": [],
        "cross_references": []
      },
      "formula": {
        "original_name": "Formula",
        "value": "C11-H22-O2",
        "links": [],
        "cross_references": []
      },
      "major_category": {
        "original_name": "Major Category",
        "value": "Solvents",
        "links": [],
        "cross_references": []
      },
      "synonyms": {
        "original_name": "Synonyms",
        "value": "Butyl heptoate; Butyl heptylate; Heptanoic acid, butyl ester; [ChemIDplus] UN1993",
        "links": [],
        "cross_references": [
          {
            "type": "name_match",
            "text": "heptanoic acid",
            "confidence": 1.0,
            "uuid": "444139c3-7c22-42b0-9a4d-aa112802f397",
            "name": "Heptanoic acid",
            "url": "https://haz-map.com/Agents/5498",
            "category": "agents"
          }
        ]
      },
      "category": {
        "original_name": "Category",
        "value": "Esters (<C12)",
        "links": [],
        "cross_references": []
      },
      "description": {
        "original_name": "Description",
        "value": "Liquid; [Sigma-Aldrich MSDS]",
        "links": [],
        "cross_references": []
      },
      "sourcesuses": {
        "original_name": "Sources/Uses",
        "value": "Used as a flavoring agent; [FDA]",
        "links": [],
        "cross_references": []
      },
      "comments": {
        "original_name": "Comments",
        "value": "Safe when used as a flavoring agent in food; [JECFA] May cause irritation; [Sigma-Aldrich MSDS] See \"2-Ethylhexyl acetate.\"",
        "links": [],
        "cross_references": [
          {
            "type": "name_match",
            "text": "2-ethylhexyl acetate",
            "confidence": 1.0,
            "uuid": "256f4321-2128-4494-ac5a-c5e0f0d0214e",
            "name": "2-Ethylhexyl acetate",
            "url": "https://haz-map.com/Agents/3394",
            "category": "agents"
          }
        ]
      },
      "biomedical_references": {
        "original_name": "Biomedical References",
        "value": "Search PubMed",
        "links": [
          {
            "text": "Search PubMed",
            "url": "https://www.ncbi.nlm.nih.gov/pubmed?term=Butyl+heptanoate%20AND%20human%5Bmh%5D%20AND%20%28Occupational%20Diseases%20%5Bmh%5D%20OR%20Occupational%20Exposure%20%5Bmh%5D%29%20%20AND%20%28tox%5Bsb%5D%29&cmd=search"
          }
        ],
        "cross_references": []
      }
    },
    "exposure_assessment": {
      "vapor_pressure": {
        "original_name": "Vapor Pressure",
        "value": "0.08 mm Hg",
        "links": [],
        "cross_references": []
      },
      "explanatory_notes": {
        "original_name": "Explanatory Notes",
        "value": "The Guide in the Emergency Response Guidebook is for \"Combustible liquid, n.o.s.\" VP from ChemIDplus;",
        "links": [],
        "cross_references": []
      }
    },
    "adverse_effects": {
      "neurotoxin": {
        "original_name": "Neurotoxin",
        "value": "Acute solvent syndrome",
        "links": [],
        "cross_references": []
      }
    },
    "diseases_processes_and_activities_linked_to_this_agent": {
      "diseases": {
        "original_name": "Diseases",
        "value": "Occupational diseases associated with exposure to this agent: Solvents, acute toxic effect",
        "links": [
          {
            "text": "Solvents, acute toxic effect",
            "url": "https://haz-map.com/Diseases/326"
          }
        ],
        "cross_references": [
          {
            "type": "url_match",
            "text": "Solvents, acute toxic effect",
            "url": "https://haz-map.com/Diseases/326",
            "confidence": 1.0,
            "uuid": "581e90e3-9d0c-45f0-aa6c-3468c28da129",
            "name": "Solvents, acute toxic effect",
            "category": "diseases"
          }
        ]
      }
    }
  },
  "cross_references": [
    {
      "type": "url_match",
      "text": "Solvents, acute toxic effect",
      "url": "https://haz-map.com/Diseases/326",
      "confidence": 1.0,
      "uuid": "581e90e3-9d0c-45f0-aa6c-3468c28da129",
      "name": "Solvents, acute toxic effect",
      "category": "diseases"
    },
    {
      "type": "name_match",
      "text": "2-ethylhexyl acetate",
      "confidence": 1.0,
      "uuid": "256f4321-2128-4494-ac5a-c5e0f0d0214e",
      "name": "2-Ethylhexyl acetate",
      "url": "https://haz-map.com/Agents/3394",
      "category": "agents"
    },
    {
      "type": "name_match",
      "text": "heptanoic acid",
      "confidence": 1.0,
      "uuid": "444139c3-7c22-42b0-9a4d-aa112802f397",
      "name": "Heptanoic acid",
      "url": "https://haz-map.com/Agents/5498",
      "category": "agents"
    },
    {
      "type": "name_match",
      "text": "butyl heptanoate",
      "confidence": 1.0,
      "uuid": "65b87f91-be8c-4c54-8b56-0b1843a1d79d",
      "name": "Butyl heptanoate",
      "url": "https://haz-map.com/Agents/14562",
      "category": "agents"
    }
  ],
  "all_links": [
    {
      "text": "Search PubMed",
      "url": "https://www.ncbi.nlm.nih.gov/pubmed?term=Butyl+heptanoate%20AND%20human%5Bmh%5D%20AND%20%28Occupational%20Diseases%20%5Bmh%5D%20OR%20Occupational%20Exposure%20%5Bmh%5D%29%20%20AND%20%28tox%5Bsb%5D%29&cmd=search"
    },
    {
      "text": "Solvents, acute toxic effect",
      "url": "https://haz-map.com/Diseases/326"
    }
  ]
}