{
  "metadata": {
    "scraped_from": "https://haz-map.com/Agents/4280",
    "entity_name": "Chlorbenside",
    "category": "agents",
    "uuid": "65dbb84b-21a6-4dfc-8dea-f4fdd715f091",
    "scraped_at": "2025-07-23T19:39:24.370727"
  },
  "parsed_at": "2025-07-24T00:59:16.904784",
  "title": "Chlorbenside",
  "sections": {
    "general": {
      "agent_name": {
        "original_name": "Agent Name",
        "value": "Chlorbenside",
        "links": [],
        "cross_references": [
          {
            "type": "name_match",
            "text": "chlorbenside",
            "confidence": 1.0,
            "uuid": "65dbb84b-21a6-4dfc-8dea-f4fdd715f091",
            "name": "Chlorbenside",
            "url": "https://haz-map.com/Agents/4280",
            "category": "agents"
          }
        ]
      },
      "cas_number": {
        "original_name": "CAS Number",
        "value": "103-17-3",
        "links": [],
        "cross_references": []
      },
      "formula": {
        "original_name": "Formula",
        "value": "C13-H10-Cl2-S",
        "links": [],
        "cross_references": []
      },
      "major_category": {
        "original_name": "Major Category",
        "value": "Pesticides",
        "links": [],
        "cross_references": []
      },
      "synonyms": {
        "original_name": "Synonyms",
        "value": "(4-Chloor-benzyl)-(4-chloor-fenyl)-sulfide [Dutch]; (4-Chlor-benzyl)-(4-chlor-phenyl)-sulfid [German]; (4-Cloro-benzil)-(4-cloro-fenil)-solfuro [Italian]; 1-Chloro-4-(((4-chlorophenyl)methyl)thio)benzene; 4-Chlorobenzyl 4-chlorophenyl sulphide; 4-Chlorophenyl 4'-chlorobenzyl sulfide; Benzene, 1-chloro-4-(((4-chlorophenyl)methyl)thio)-; CP 20; Chloorbenzide [Dutch]; Chloracid; Chloracid (VAN); Chloracide; Chlorbensid [German]; Chlorbenxide; Chlorbenzide; Chlorocid; Chloroparacide; Chlorosulfacide; Chlorparacide; Chlorsulphacide; ENT 20,696; HRS 860; Mitox; RD 2195; Sulfide, p-chlorobenzyl p-chlorophenyl; Sulfure de 4-chlorobenzyle et de 4-chlorophenyle [French]; p-Chlorobenzyl p-chlorophenyl sulfide; p-Chlorobenzyl p-chlorophenyl sulphide; [ChemIDplus]",
        "links": [],
        "cross_references": [
          {
            "type": "name_match",
            "text": "benzene",
            "confidence": 1.0,
            "uuid": "b05124de-5f34-4c14-8f04-ccb20c3780d9",
            "name": "Benzene",
            "url": "https://haz-map.com/Agents/5",
            "category": "agents"
          },
          {
            "type": "name_match",
            "text": "tali",
            "confidence": 1.0,
            "uuid": "8c3a0f99-2143-4122-b539-ec5cc49596b0",
            "name": "Tali",
            "url": "https://haz-map.com/Agents/1128",
            "category": "agents"
          },
          {
            "type": "name_match",
            "text": "sulfur",
            "confidence": 1.0,
            "uuid": "5aabdef6-71c8-44c8-b762-feaabff50696",
            "name": "Sulfur",
            "url": "https://haz-map.com/Agents/1942",
            "category": "agents"
          },
          {
            "type": "name_match",
            "text": "benzyl sulfide",
            "confidence": 1.0,
            "uuid": "15f42592-5d59-4fa8-a1bb-9a3d758b7034",
            "name": "Benzyl sulfide",
            "url": "https://haz-map.com/Agents/7999",
            "category": "agents"
          },
          {
            "type": "name_match",
            "text": "benzil",
            "confidence": 1.0,
            "uuid": "09aecf89-f193-4e35-b1cb-48004196e00d",
            "name": "Benzil",
            "url": "https://haz-map.com/Agents/12189",
            "category": "agents"
          },
          {
            "type": "name_match",
            "text": "phenyl sulfide",
            "confidence": 1.0,
            "uuid": "57f91bec-789e-4483-bbc7-394ed3fee3c1",
            "name": "Phenyl sulfide",
            "url": "https://haz-map.com/Agents/16554",
            "category": "agents"
          }
        ]
      },
      "category": {
        "original_name": "Category",
        "value": "Organochlorine Pesticides",
        "links": [],
        "cross_references": [
          {
            "type": "name_match",
            "text": "chlorine",
            "confidence": 1.0,
            "uuid": "8a67a545-61fb-4d71-865e-ff2725a0b999",
            "name": "Chlorine",
            "url": "https://haz-map.com/Agents/89",
            "category": "agents"
          },
          {
            "type": "name_match",
            "text": "chlorin",
            "confidence": 1.0,
            "uuid": "4a566fec-ec7e-42b0-9f14-ec586335e694",
            "name": "Chlorin",
            "url": "https://haz-map.com/Agents/20422",
            "category": "agents"
          }
        ]
      },
      "description": {
        "original_name": "Description",
        "value": "Solid with an odor like almonds; [Hawley] Colorless solid; [HSDB]",
        "links": [],
        "cross_references": []
      },
      "sourcesuses": {
        "original_name": "Sources/Uses",
        "value": "Used as acaricide (especially for eggs and larvae) in fruits, ornamentals, and nursery stock; [HSDB]",
        "links": [],
        "cross_references": []
      },
      "comments": {
        "original_name": "Comments",
        "value": "A skin irritant; [Hawley] A mild skin and eye irritant; May be absorbed through skin; [HSDB] May cause irritation; [MSDSonline]",
        "links": [],
        "cross_references": []
      },
      "restricted": {
        "original_name": "Restricted",
        "value": "No longer registered as a pesticide for use in the US; [HSDB]",
        "links": [],
        "cross_references": []
      },
      "biomedical_references": {
        "original_name": "Biomedical References",
        "value": "Search PubMed",
        "links": [
          {
            "text": "Search PubMed",
            "url": "https://www.ncbi.nlm.nih.gov/pubmed?term=Chlorbenside%20AND%20human%5Bmh%5D%20AND%20%28Occupational%20Diseases%20%5Bmh%5D%20OR%20Occupational%20Exposure%20%5Bmh%5D%29%20%20AND%20%28tox%5Bsb%5D%29&cmd=search"
          }
        ],
        "cross_references": []
      }
    },
    "exposure_assessment": {
      "vapor_pressure": {
        "original_name": "Vapor Pressure",
        "value": "1.78E-05 mm Hg",
        "links": [],
        "cross_references": []
      }
    },
    "adverse_effects": {
      "other_poison": {
        "original_name": "Other Poison",
        "value": "Organochlorine",
        "links": [],
        "cross_references": [
          {
            "type": "name_match",
            "text": "chlorine",
            "confidence": 1.0,
            "uuid": "8a67a545-61fb-4d71-865e-ff2725a0b999",
            "name": "Chlorine",
            "url": "https://haz-map.com/Agents/89",
            "category": "agents"
          },
          {
            "type": "name_match",
            "text": "chlorin",
            "confidence": 1.0,
            "uuid": "4a566fec-ec7e-42b0-9f14-ec586335e694",
            "name": "Chlorin",
            "url": "https://haz-map.com/Agents/20422",
            "category": "agents"
          }
        ]
      }
    },
    "diseases_processes_and_activities_linked_to_this_agent": {
      "diseases": {
        "original_name": "Diseases",
        "value": "Occupational diseases associated with exposure to this agent: Organochlorine insecticides, acute poisoning",
        "links": [
          {
            "text": "Organochlorine insecticides, acute poisoning",
            "url": "https://haz-map.com/Diseases/165"
          }
        ],
        "cross_references": [
          {
            "type": "url_match",
            "text": "Organochlorine insecticides, acute poisoning",
            "url": "https://haz-map.com/Diseases/165",
            "confidence": 1.0,
            "uuid": "45193447-c4e4-4c0d-9be3-1adb006864c3",
            "name": "Organochlorine insecticides, acute poisoning",
            "category": "diseases"
          },
          {
            "type": "name_match",
            "text": "chlorine",
            "confidence": 1.0,
            "uuid": "8a67a545-61fb-4d71-865e-ff2725a0b999",
            "name": "Chlorine",
            "url": "https://haz-map.com/Agents/89",
            "category": "agents"
          },
          {
            "type": "name_match",
            "text": "chlorin",
            "confidence": 1.0,
            "uuid": "4a566fec-ec7e-42b0-9f14-ec586335e694",
            "name": "Chlorin",
            "url": "https://haz-map.com/Agents/20422",
            "category": "agents"
          }
        ]
      },
      "processes": {
        "original_name": "Processes",
        "value": "Industrial Processes with risk of exposure: Farming (Pesticides)",
        "links": [
          {
            "text": "Farming (Pesticides)",
            "url": "https://haz-map.com/Processes/218"
          }
        ],
        "cross_references": [
          {
            "type": "url_match",
            "text": "Farming (Pesticides)",
            "url": "https://haz-map.com/Processes/218",
            "confidence": 1.0,
            "uuid": "cf1e5815-c9bb-4917-82a5-391848170b7e",
            "name": "Farming (Pesticides)",
            "category": "processes"
          }
        ]
      }
    }
  },
  "cross_references": [
    {
      "type": "url_match",
      "text": "Organochlorine insecticides, acute poisoning",
      "url": "https://haz-map.com/Diseases/165",
      "confidence": 1.0,
      "uuid": "45193447-c4e4-4c0d-9be3-1adb006864c3",
      "name": "Organochlorine insecticides, acute poisoning",
      "category": "diseases"
    },
    {
      "type": "url_match",
      "text": "Farming (Pesticides)",
      "url": "https://haz-map.com/Processes/218",
      "confidence": 1.0,
      "uuid": "cf1e5815-c9bb-4917-82a5-391848170b7e",
      "name": "Farming (Pesticides)",
      "category": "processes"
    },
    {
      "type": "name_match",
      "text": "benzene",
      "confidence": 1.0,
      "uuid": "b05124de-5f34-4c14-8f04-ccb20c3780d9",
      "name": "Benzene",
      "url": "https://haz-map.com/Agents/5",
      "category": "agents"
    },
    {
      "type": "name_match",
      "text": "chlorine",
      "confidence": 1.0,
      "uuid": "8a67a545-61fb-4d71-865e-ff2725a0b999",
      "name": "Chlorine",
      "url": "https://haz-map.com/Agents/89",
      "category": "agents"
    },
    {
      "type": "name_match",
      "text": "tali",
      "confidence": 1.0,
      "uuid": "8c3a0f99-2143-4122-b539-ec5cc49596b0",
      "name": "Tali",
      "url": "https://haz-map.com/Agents/1128",
      "category": "agents"
    },
    {
      "type": "name_match",
      "text": "sulfur",
      "confidence": 1.0,
      "uuid": "5aabdef6-71c8-44c8-b762-feaabff50696",
      "name": "Sulfur",
      "url": "https://haz-map.com/Agents/1942",
      "category": "agents"
    },
    {
      "type": "name_match",
      "text": "chlorbenside",
      "confidence": 1.0,
      "uuid": "65dbb84b-21a6-4dfc-8dea-f4fdd715f091",
      "name": "Chlorbenside",
      "url": "https://haz-map.com/Agents/4280",
      "category": "agents"
    },
    {
      "type": "name_match",
      "text": "benzyl sulfide",
      "confidence": 1.0,
      "uuid": "15f42592-5d59-4fa8-a1bb-9a3d758b7034",
      "name": "Benzyl sulfide",
      "url": "https://haz-map.com/Agents/7999",
      "category": "agents"
    },
    {
      "type": "name_match",
      "text": "benzil",
      "confidence": 1.0,
      "uuid": "09aecf89-f193-4e35-b1cb-48004196e00d",
      "name": "Benzil",
      "url": "https://haz-map.com/Agents/12189",
      "category": "agents"
    },
    {
      "type": "name_match",
      "text": "phenyl sulfide",
      "confidence": 1.0,
      "uuid": "57f91bec-789e-4483-bbc7-394ed3fee3c1",
      "name": "Phenyl sulfide",
      "url": "https://haz-map.com/Agents/16554",
      "category": "agents"
    },
    {
      "type": "name_match",
      "text": "chlorin",
      "confidence": 1.0,
      "uuid": "4a566fec-ec7e-42b0-9f14-ec586335e694",
      "name": "Chlorin",
      "url": "https://haz-map.com/Agents/20422",
      "category": "agents"
    }
  ],
  "all_links": [
    {
      "text": "Search PubMed",
      "url": "https://www.ncbi.nlm.nih.gov/pubmed?term=Chlorbenside%20AND%20human%5Bmh%5D%20AND%20%28Occupational%20Diseases%20%5Bmh%5D%20OR%20Occupational%20Exposure%20%5Bmh%5D%29%20%20AND%20%28tox%5Bsb%5D%29&cmd=search"
    },
    {
      "text": "Organochlorine insecticides, acute poisoning",
      "url": "https://haz-map.com/Diseases/165"
    },
    {
      "text": "Farming (Pesticides)",
      "url": "https://haz-map.com/Processes/218"
    }
  ]
}