{
  "metadata": {
    "scraped_from": "https://haz-map.com/Agents/3054",
    "entity_name": "2-(1,1-Dimethylethyl)-5-methylphenol",
    "category": "agents",
    "uuid": "65fad177-de8c-420c-8c77-0b364123468a",
    "scraped_at": "2025-07-23T19:23:22.935956"
  },
  "parsed_at": "2025-07-24T01:02:38.939519",
  "title": "2-(1,1-Dimethylethyl)-5-methylphenol",
  "sections": {
    "general": {
      "agent_name": {
        "original_name": "Agent Name",
        "value": "2-(1,1-Dimethylethyl)-5-methylphenol",
        "links": [],
        "cross_references": [
          {
            "type": "name_match",
            "text": "phenol",
            "confidence": 1.0,
            "uuid": "03141a03-a7df-4f51-9a37-adde1a7c4b31",
            "name": "Phenol",
            "url": "https://haz-map.com/Agents/84",
            "category": "agents"
          },
          {
            "type": "name_match",
            "text": "2-(1,1-dimethylethyl)-5-methylphenol",
            "confidence": 1.0,
            "uuid": "65fad177-de8c-420c-8c77-0b364123468a",
            "name": "2-(1,1-Dimethylethyl)-5-methylphenol",
            "url": "https://haz-map.com/Agents/3054",
            "category": "agents"
          }
        ]
      },
      "cas_number": {
        "original_name": "CAS Number",
        "value": "88-60-8",
        "links": [],
        "cross_references": []
      },
      "formula": {
        "original_name": "Formula",
        "value": "C11-H16-O",
        "links": [],
        "cross_references": []
      },
      "major_category": {
        "original_name": "Major Category",
        "value": "Other Classes",
        "links": [],
        "cross_references": []
      },
      "synonyms": {
        "original_name": "Synonyms",
        "value": "2-tert-Butyl-5-methylphenol; 3-Methyl-6-tert-butylphenol; 5-Methyl-2-tert-butylphenol; 6-tert-Butyl-3-methylphenol; 6-tert-Butyl-m-cresol; Benzene, 1-tert-butyl-2-hydroxy-4-methyl-; Phenol, 2-(1,1-dimethylethyl)-5-methyl-; m-Cresol, 6-tert-butyl-; [ChemIDplus] UN3145",
        "links": [],
        "cross_references": [
          {
            "type": "name_match",
            "text": "benzene",
            "confidence": 1.0,
            "uuid": "b05124de-5f34-4c14-8f04-ccb20c3780d9",
            "name": "Benzene",
            "url": "https://haz-map.com/Agents/5",
            "category": "agents"
          },
          {
            "type": "name_match",
            "text": "phenol",
            "confidence": 1.0,
            "uuid": "03141a03-a7df-4f51-9a37-adde1a7c4b31",
            "name": "Phenol",
            "url": "https://haz-map.com/Agents/84",
            "category": "agents"
          },
          {
            "type": "name_match",
            "text": "2-tert-butylphenol",
            "confidence": 1.0,
            "uuid": "599bc414-5782-4c38-b3cb-9c995ba556fd",
            "name": "2-tert-Butylphenol",
            "url": "https://haz-map.com/Agents/3169",
            "category": "agents"
          },
          {
            "type": "name_match",
            "text": "m-cresol",
            "confidence": 1.0,
            "uuid": "33975f23-f0cb-49a7-a631-36f1ad4f95de",
            "name": "m-Cresol",
            "url": "https://haz-map.com/Agents/15395",
            "category": "agents"
          }
        ]
      },
      "category": {
        "original_name": "Category",
        "value": "Phenols",
        "links": [],
        "cross_references": [
          {
            "type": "name_match",
            "text": "phenol",
            "confidence": 1.0,
            "uuid": "03141a03-a7df-4f51-9a37-adde1a7c4b31",
            "name": "Phenol",
            "url": "https://haz-map.com/Agents/84",
            "category": "agents"
          }
        ]
      },
      "description": {
        "original_name": "Description",
        "value": "Colorless to pale yellow liquid; Color may darken on exposure to light, air, or heat; [CHEMINFO]",
        "links": [],
        "cross_references": [
          {
            "type": "name_match",
            "text": "ht",
            "confidence": 1.0,
            "uuid": "764df367-8d53-4a11-81a2-31ccfe122a8d",
            "name": "HT",
            "url": "https://haz-map.com/Agents/2168",
            "category": "agents"
          }
        ]
      },
      "sourcesuses": {
        "original_name": "Sources/Uses",
        "value": "Used to make musk ambrette (fixative in perfumes), bridged phenol compounds (rubber antioxidants), and phenolic antioxidants (for thermoplastics); Also used as an antioxidant and stabilizer for coumarone-indene resins and polyvinyl ethers and as a stabilizer for trichloro- and perchloroethylene; [HSDB]",
        "links": [],
        "cross_references": [
          {
            "type": "name_match",
            "text": "phenol",
            "confidence": 1.0,
            "uuid": "03141a03-a7df-4f51-9a37-adde1a7c4b31",
            "name": "Phenol",
            "url": "https://haz-map.com/Agents/84",
            "category": "agents"
          },
          {
            "type": "name_match",
            "text": "indene",
            "confidence": 1.0,
            "uuid": "abe76b78-2986-4d49-b6e5-d1ce49774b99",
            "name": "Indene",
            "url": "https://haz-map.com/Agents/520",
            "category": "agents"
          },
          {
            "type": "name_match",
            "text": "ethylene",
            "confidence": 1.0,
            "uuid": "958eacc0-5135-4b62-bb93-6df972bf552f",
            "name": "Ethylene",
            "url": "https://haz-map.com/Agents/1076",
            "category": "agents"
          },
          {
            "type": "name_match",
            "text": "coumarone-indene resins",
            "confidence": 1.0,
            "uuid": "7b4ef64e-bba7-417a-ac3d-7b575b738edc",
            "name": "Coumarone-indene resins",
            "url": "https://haz-map.com/Agents/13316",
            "category": "agents"
          },
          {
            "type": "name_match",
            "text": "musk ambrette",
            "confidence": 1.0,
            "uuid": "22acaac2-5f04-466f-95b4-94bcecf8ad05",
            "name": "Musk ambrette",
            "url": "https://haz-map.com/Agents/15723",
            "category": "agents"
          }
        ]
      },
      "comments": {
        "original_name": "Comments",
        "value": "A corrosive substance that can cause injury to the skin and eyes (based on animal studies); [CHEMINFO] An irritant; Harmful if swallowed; [Aldrich MSDS]",
        "links": [],
        "cross_references": []
      },
      "biomedical_references": {
        "original_name": "Biomedical References",
        "value": "Search PubMed",
        "links": [
          {
            "text": "Search PubMed",
            "url": "https://www.ncbi.nlm.nih.gov/pubmed?term=2-(1%2c1-Dimethylethyl)-5-methylphenol%20AND%20human%5Bmh%5D%20AND%20%28Occupational%20Diseases%20%5Bmh%5D%20OR%20Occupational%20Exposure%20%5Bmh%5D%29%20%20AND%20%28tox%5Bsb%5D%29&cmd=search"
          }
        ],
        "cross_references": []
      }
    },
    "exposure_assessment": {
      "vapor_pressure": {
        "original_name": "Vapor Pressure",
        "value": "0.024 mm Hg",
        "links": [],
        "cross_references": []
      },
      "explanatory_notes": {
        "original_name": "Explanatory Notes",
        "value": "Flash point = 114 deg C; [CHEMINFO] The Guide in the Emergency Response Guidebook is for \"Alkyl phenols, liquid, n.o.s. (including C2 - C12 homologues).\"",
        "links": [],
        "cross_references": [
          {
            "type": "name_match",
            "text": "phenol",
            "confidence": 1.0,
            "uuid": "03141a03-a7df-4f51-9a37-adde1a7c4b31",
            "name": "Phenol",
            "url": "https://haz-map.com/Agents/84",
            "category": "agents"
          },
          {
            "type": "name_match",
            "text": "ash",
            "confidence": 1.0,
            "uuid": "68b360f1-5ad0-4337-bea0-d7adca2961b5",
            "name": "Ash",
            "url": "https://haz-map.com/Agents/965",
            "category": "agents"
          }
        ]
      },
      "nfpa": {
        "original_name": "NFPA",
        "value": "high ambient temp required",
        "links": [],
        "cross_references": []
      }
    },
    "adverse_effects": {
      "hepatotoxin": {
        "original_name": "Hepatotoxin",
        "value": "Hepatoxic (a) from occupational exposure (secondary effect) or (b) in animal studies or in humans after ingestion",
        "links": [],
        "cross_references": []
      },
      "dermatotoxin": {
        "original_name": "Dermatotoxin",
        "value": "Skin burns",
        "links": [],
        "cross_references": [
          {
            "type": "name_match",
            "text": "burn",
            "confidence": 1.0,
            "uuid": "63665de5-6376-4918-8dbf-4c10c4d63837",
            "name": "burn",
            "url": "https://haz-map.com/Findings/204",
            "category": "findings"
          }
        ]
      }
    },
    "diseases_processes_and_activities_linked_to_this_agent": {
      "processes": {
        "original_name": "Processes",
        "value": "Industrial Processes with risk of exposure: Plastic Composites Manufacturing",
        "links": [
          {
            "text": "Plastic Composites Manufacturing",
            "url": "https://haz-map.com/Processes/222"
          }
        ],
        "cross_references": [
          {
            "type": "url_match",
            "text": "Plastic Composites Manufacturing",
            "url": "https://haz-map.com/Processes/222",
            "confidence": 1.0,
            "uuid": "d4461b82-dc77-4172-8e3d-0a5e3b213911",
            "name": "Plastic Composites Manufacturing",
            "category": "processes"
          }
        ]
      }
    }
  },
  "cross_references": [
    {
      "type": "url_match",
      "text": "Plastic Composites Manufacturing",
      "url": "https://haz-map.com/Processes/222",
      "confidence": 1.0,
      "uuid": "d4461b82-dc77-4172-8e3d-0a5e3b213911",
      "name": "Plastic Composites Manufacturing",
      "category": "processes"
    },
    {
      "type": "name_match",
      "text": "burn",
      "confidence": 1.0,
      "uuid": "63665de5-6376-4918-8dbf-4c10c4d63837",
      "name": "burn",
      "url": "https://haz-map.com/Findings/204",
      "category": "findings"
    },
    {
      "type": "name_match",
      "text": "benzene",
      "confidence": 1.0,
      "uuid": "b05124de-5f34-4c14-8f04-ccb20c3780d9",
      "name": "Benzene",
      "url": "https://haz-map.com/Agents/5",
      "category": "agents"
    },
    {
      "type": "name_match",
      "text": "phenol",
      "confidence": 1.0,
      "uuid": "03141a03-a7df-4f51-9a37-adde1a7c4b31",
      "name": "Phenol",
      "url": "https://haz-map.com/Agents/84",
      "category": "agents"
    },
    {
      "type": "name_match",
      "text": "indene",
      "confidence": 1.0,
      "uuid": "abe76b78-2986-4d49-b6e5-d1ce49774b99",
      "name": "Indene",
      "url": "https://haz-map.com/Agents/520",
      "category": "agents"
    },
    {
      "type": "name_match",
      "text": "ash",
      "confidence": 1.0,
      "uuid": "68b360f1-5ad0-4337-bea0-d7adca2961b5",
      "name": "Ash",
      "url": "https://haz-map.com/Agents/965",
      "category": "agents"
    },
    {
      "type": "name_match",
      "text": "ethylene",
      "confidence": 1.0,
      "uuid": "958eacc0-5135-4b62-bb93-6df972bf552f",
      "name": "Ethylene",
      "url": "https://haz-map.com/Agents/1076",
      "category": "agents"
    },
    {
      "type": "name_match",
      "text": "ht",
      "confidence": 1.0,
      "uuid": "764df367-8d53-4a11-81a2-31ccfe122a8d",
      "name": "HT",
      "url": "https://haz-map.com/Agents/2168",
      "category": "agents"
    },
    {
      "type": "name_match",
      "text": "2-(1,1-dimethylethyl)-5-methylphenol",
      "confidence": 1.0,
      "uuid": "65fad177-de8c-420c-8c77-0b364123468a",
      "name": "2-(1,1-Dimethylethyl)-5-methylphenol",
      "url": "https://haz-map.com/Agents/3054",
      "category": "agents"
    },
    {
      "type": "name_match",
      "text": "2-tert-butylphenol",
      "confidence": 1.0,
      "uuid": "599bc414-5782-4c38-b3cb-9c995ba556fd",
      "name": "2-tert-Butylphenol",
      "url": "https://haz-map.com/Agents/3169",
      "category": "agents"
    },
    {
      "type": "name_match",
      "text": "coumarone-indene resins",
      "confidence": 1.0,
      "uuid": "7b4ef64e-bba7-417a-ac3d-7b575b738edc",
      "name": "Coumarone-indene resins",
      "url": "https://haz-map.com/Agents/13316",
      "category": "agents"
    },
    {
      "type": "name_match",
      "text": "m-cresol",
      "confidence": 1.0,
      "uuid": "33975f23-f0cb-49a7-a631-36f1ad4f95de",
      "name": "m-Cresol",
      "url": "https://haz-map.com/Agents/15395",
      "category": "agents"
    },
    {
      "type": "name_match",
      "text": "musk ambrette",
      "confidence": 1.0,
      "uuid": "22acaac2-5f04-466f-95b4-94bcecf8ad05",
      "name": "Musk ambrette",
      "url": "https://haz-map.com/Agents/15723",
      "category": "agents"
    }
  ],
  "all_links": [
    {
      "text": "Search PubMed",
      "url": "https://www.ncbi.nlm.nih.gov/pubmed?term=2-(1%2c1-Dimethylethyl)-5-methylphenol%20AND%20human%5Bmh%5D%20AND%20%28Occupational%20Diseases%20%5Bmh%5D%20OR%20Occupational%20Exposure%20%5Bmh%5D%29%20%20AND%20%28tox%5Bsb%5D%29&cmd=search"
    },
    {
      "text": "Plastic Composites Manufacturing",
      "url": "https://haz-map.com/Processes/222"
    }
  ]
}