{
  "metadata": {
    "scraped_from": "https://haz-map.com/Agents/11242",
    "entity_name": "5,5-Dimethyl-1,3-cyclohexanedione",
    "category": "agents",
    "uuid": "660ad562-c259-439c-80ab-1b53c4048a63",
    "scraped_at": "2025-07-23T20:57:09.958405"
  },
  "parsed_at": "2025-07-24T01:18:47.925832",
  "title": "5,5-Dimethyl-1,3-cyclohexanedione",
  "sections": {
    "general": {
      "agent_name": {
        "original_name": "Agent Name",
        "value": "5,5-Dimethyl-1,3-cyclohexanedione",
        "links": [],
        "cross_references": [
          {
            "type": "name_match",
            "text": "cyclohexane",
            "confidence": 1.0,
            "uuid": "366fabd7-ac2f-461c-969f-62dfe3bf2377",
            "name": "Cyclohexane",
            "url": "https://haz-map.com/Agents/384",
            "category": "agents"
          },
          {
            "type": "name_match",
            "text": "1,3-cyclohexanedione",
            "confidence": 1.0,
            "uuid": "47cfe9e4-ecb6-41f3-a2dc-76b19f3522a9",
            "name": "1,3-Cyclohexanedione",
            "url": "https://haz-map.com/Agents/9767",
            "category": "agents"
          },
          {
            "type": "name_match",
            "text": "5,5-dimethyl-1,3-cyclohexanedione",
            "confidence": 1.0,
            "uuid": "660ad562-c259-439c-80ab-1b53c4048a63",
            "name": "5,5-Dimethyl-1,3-cyclohexanedione",
            "url": "https://haz-map.com/Agents/11242",
            "category": "agents"
          }
        ]
      },
      "cas_number": {
        "original_name": "CAS Number",
        "value": "126-81-8",
        "links": [],
        "cross_references": []
      },
      "formula": {
        "original_name": "Formula",
        "value": "C8-H12-O2",
        "links": [],
        "cross_references": []
      },
      "major_category": {
        "original_name": "Major Category",
        "value": "Other Classes",
        "links": [],
        "cross_references": []
      },
      "synonyms": {
        "original_name": "Synonyms",
        "value": "1,1-Dimethyl-3,5-cyclohexanedione; 1,1-Dimethyl-3,5-diketocyclohexane; 5,5-Dimethyldihydroresorcinol; 5,5-Dimethylhydroresorcinol; Cyclomethone; Dimedon; Dimedone; LU 274; Medon; Methon; Methone; 1,3-Cyclohexanedione, 5,5-dimethyl-; 5,5-Dimethylcyclohexane-1,3-dione; [ChemIDplus]",
        "links": [],
        "cross_references": [
          {
            "type": "name_match",
            "text": "cyclohexane",
            "confidence": 1.0,
            "uuid": "366fabd7-ac2f-461c-969f-62dfe3bf2377",
            "name": "Cyclohexane",
            "url": "https://haz-map.com/Agents/384",
            "category": "agents"
          },
          {
            "type": "name_match",
            "text": "methylcyclohexane",
            "confidence": 1.0,
            "uuid": "958aa4b7-cbdf-4756-82f7-6b627d212422",
            "name": "Methylcyclohexane",
            "url": "https://haz-map.com/Agents/557",
            "category": "agents"
          },
          {
            "type": "name_match",
            "text": "resorcinol",
            "confidence": 1.0,
            "uuid": "ae206fe4-b82a-4fe5-80a6-c479c171146e",
            "name": "Resorcinol",
            "url": "https://haz-map.com/Agents/617",
            "category": "agents"
          },
          {
            "type": "name_match",
            "text": "ethylcyclohexane",
            "confidence": 1.0,
            "uuid": "69a79758-f136-47c2-86d8-130b138f4a83",
            "name": "Ethylcyclohexane",
            "url": "https://haz-map.com/Agents/8339",
            "category": "agents"
          },
          {
            "type": "name_match",
            "text": "1,3-cyclohexanedione",
            "confidence": 1.0,
            "uuid": "47cfe9e4-ecb6-41f3-a2dc-76b19f3522a9",
            "name": "1,3-Cyclohexanedione",
            "url": "https://haz-map.com/Agents/9767",
            "category": "agents"
          },
          {
            "type": "name_match",
            "text": "orcinol",
            "confidence": 1.0,
            "uuid": "ec7be405-d3a6-4ffe-a998-44bdf8777b2a",
            "name": "Orcinol",
            "url": "https://haz-map.com/Agents/16285",
            "category": "agents"
          }
        ]
      },
      "category": {
        "original_name": "Category",
        "value": "Aliphatic Ketones, Other",
        "links": [],
        "cross_references": []
      },
      "description": {
        "original_name": "Description",
        "value": "Solid; [Merck Index] White crystalline powder; [Alfa Aesar MSDS]",
        "links": [],
        "cross_references": [
          {
            "type": "fuzzy_match",
            "text": "crystalline",
            "matched_name": "Silica, crystalline",
            "confidence": 0.7061403508771931,
            "uuid": "f920e8a2-46df-41b7-af8d-0368a777251e",
            "category": "agents",
            "url": "https://haz-map.com/Agents/427"
          }
        ]
      },
      "sourcesuses": {
        "original_name": "Sources/Uses",
        "value": "Used to identify aldehydes; [Merck Index]",
        "links": [],
        "cross_references": [
          {
            "type": "name_match",
            "text": "aldehydes",
            "confidence": 1.0,
            "uuid": "60ff52e0-7c53-4dd0-99cf-f775cfcfed59",
            "name": "ALDEHYDES",
            "url": "https://haz-map.com/Agents/719",
            "category": "agents"
          }
        ]
      },
      "comments": {
        "original_name": "Comments",
        "value": "May cause irritation; [Sigma-Aldrich MSDS] See \"o-Methylcyclohexanone.\"",
        "links": [],
        "cross_references": [
          {
            "type": "name_match",
            "text": "cyclohexanone",
            "confidence": 1.0,
            "uuid": "cadadacc-fd16-4dd4-9b2c-b1d70f77d75e",
            "name": "Cyclohexanone",
            "url": "https://haz-map.com/Agents/139",
            "category": "agents"
          },
          {
            "type": "name_match",
            "text": "o-methylcyclohexanone",
            "confidence": 1.0,
            "uuid": "5314358b-091e-4729-b5ec-614aa005eb15",
            "name": "o-Methylcyclohexanone",
            "url": "https://haz-map.com/Agents/559",
            "category": "agents"
          }
        ]
      },
      "biomedical_references": {
        "original_name": "Biomedical References",
        "value": "Search PubMed",
        "links": [
          {
            "text": "Search PubMed",
            "url": "https://www.ncbi.nlm.nih.gov/pubmed?term=5%2c5-Dimethyl-1%2c3-cyclohexanedione%20AND%20human%5Bmh%5D%20AND%20%28Occupational%20Diseases%20%5Bmh%5D%20OR%20Occupational%20Exposure%20%5Bmh%5D%29%20%20AND%20%28tox%5Bsb%5D%29&cmd=search"
          }
        ],
        "cross_references": []
      }
    },
    "exposure_assessment": {
      "vapor_pressure": {
        "original_name": "Vapor Pressure",
        "value": "0.064 mm Hg",
        "links": [],
        "cross_references": []
      },
      "explanatory_notes": {
        "original_name": "Explanatory Notes",
        "value": "VP from ChemIDplus;",
        "links": [],
        "cross_references": []
      }
    },
    "diseases_processes_and_activities_linked_to_this_agent": {
      "other_information": {
        "original_name": "Other Information",
        "value": "No other related information on this agent was found.",
        "links": [],
        "cross_references": []
      }
    }
  },
  "cross_references": [
    {
      "type": "name_match",
      "text": "cyclohexanone",
      "confidence": 1.0,
      "uuid": "cadadacc-fd16-4dd4-9b2c-b1d70f77d75e",
      "name": "Cyclohexanone",
      "url": "https://haz-map.com/Agents/139",
      "category": "agents"
    },
    {
      "type": "name_match",
      "text": "cyclohexane",
      "confidence": 1.0,
      "uuid": "366fabd7-ac2f-461c-969f-62dfe3bf2377",
      "name": "Cyclohexane",
      "url": "https://haz-map.com/Agents/384",
      "category": "agents"
    },
    {
      "type": "name_match",
      "text": "methylcyclohexane",
      "confidence": 1.0,
      "uuid": "958aa4b7-cbdf-4756-82f7-6b627d212422",
      "name": "Methylcyclohexane",
      "url": "https://haz-map.com/Agents/557",
      "category": "agents"
    },
    {
      "type": "name_match",
      "text": "o-methylcyclohexanone",
      "confidence": 1.0,
      "uuid": "5314358b-091e-4729-b5ec-614aa005eb15",
      "name": "o-Methylcyclohexanone",
      "url": "https://haz-map.com/Agents/559",
      "category": "agents"
    },
    {
      "type": "name_match",
      "text": "resorcinol",
      "confidence": 1.0,
      "uuid": "ae206fe4-b82a-4fe5-80a6-c479c171146e",
      "name": "Resorcinol",
      "url": "https://haz-map.com/Agents/617",
      "category": "agents"
    },
    {
      "type": "name_match",
      "text": "aldehydes",
      "confidence": 1.0,
      "uuid": "60ff52e0-7c53-4dd0-99cf-f775cfcfed59",
      "name": "ALDEHYDES",
      "url": "https://haz-map.com/Agents/719",
      "category": "agents"
    },
    {
      "type": "name_match",
      "text": "ethylcyclohexane",
      "confidence": 1.0,
      "uuid": "69a79758-f136-47c2-86d8-130b138f4a83",
      "name": "Ethylcyclohexane",
      "url": "https://haz-map.com/Agents/8339",
      "category": "agents"
    },
    {
      "type": "name_match",
      "text": "1,3-cyclohexanedione",
      "confidence": 1.0,
      "uuid": "47cfe9e4-ecb6-41f3-a2dc-76b19f3522a9",
      "name": "1,3-Cyclohexanedione",
      "url": "https://haz-map.com/Agents/9767",
      "category": "agents"
    },
    {
      "type": "name_match",
      "text": "5,5-dimethyl-1,3-cyclohexanedione",
      "confidence": 1.0,
      "uuid": "660ad562-c259-439c-80ab-1b53c4048a63",
      "name": "5,5-Dimethyl-1,3-cyclohexanedione",
      "url": "https://haz-map.com/Agents/11242",
      "category": "agents"
    },
    {
      "type": "name_match",
      "text": "orcinol",
      "confidence": 1.0,
      "uuid": "ec7be405-d3a6-4ffe-a998-44bdf8777b2a",
      "name": "Orcinol",
      "url": "https://haz-map.com/Agents/16285",
      "category": "agents"
    },
    {
      "type": "fuzzy_match",
      "text": "crystalline",
      "matched_name": "Silica, crystalline",
      "confidence": 0.7061403508771931,
      "uuid": "f920e8a2-46df-41b7-af8d-0368a777251e",
      "category": "agents",
      "url": "https://haz-map.com/Agents/427"
    }
  ],
  "all_links": [
    {
      "text": "Search PubMed",
      "url": "https://www.ncbi.nlm.nih.gov/pubmed?term=5%2c5-Dimethyl-1%2c3-cyclohexanedione%20AND%20human%5Bmh%5D%20AND%20%28Occupational%20Diseases%20%5Bmh%5D%20OR%20Occupational%20Exposure%20%5Bmh%5D%29%20%20AND%20%28tox%5Bsb%5D%29&cmd=search"
    }
  ]
}