{
  "metadata": {
    "scraped_from": "https://haz-map.com/Agents/6646",
    "entity_name": "p-Chlorophenyl phenyl ether",
    "category": "agents",
    "uuid": "66a0d8f5-a331-449b-9984-78a10ced9333",
    "scraped_at": "2025-07-23T20:03:55.843665"
  },
  "parsed_at": "2025-07-24T00:53:33.619610",
  "title": "p-Chlorophenyl phenyl ether",
  "sections": {
    "general": {
      "agent_name": {
        "original_name": "Agent Name",
        "value": "p-Chlorophenyl phenyl ether",
        "links": [],
        "cross_references": [
          {
            "type": "name_match",
            "text": "phenyl ether",
            "confidence": 1.0,
            "uuid": "063d5590-1868-48d4-a62d-7f1f2e8cf6d4",
            "name": "Phenyl ether",
            "url": "https://haz-map.com/Agents/591",
            "category": "agents"
          },
          {
            "type": "name_match",
            "text": "p-chlorophenyl phenyl ether",
            "confidence": 1.0,
            "uuid": "66a0d8f5-a331-449b-9984-78a10ced9333",
            "name": "p-Chlorophenyl phenyl ether",
            "url": "https://haz-map.com/Agents/6646",
            "category": "agents"
          }
        ]
      },
      "cas_number": {
        "original_name": "CAS Number",
        "value": "7005-72-3",
        "links": [],
        "cross_references": []
      },
      "formula": {
        "original_name": "Formula",
        "value": "C12-H9-Cl-O",
        "links": [],
        "cross_references": []
      },
      "major_category": {
        "original_name": "Major Category",
        "value": "Other Classes",
        "links": [],
        "cross_references": []
      },
      "synonyms": {
        "original_name": "Synonyms",
        "value": "1-Chloro-4-phenoxybenzene; 4-Chlorodiphenyl ether; 4-Chlorophenyl phenyl ether; 4-Monochlorodiphenyl oxide; Benzene, 1-chloro-4-phenoxy-; Chlorodiphenyl ether; Ether, p-chlorophenyl phenyl; Monochlorodiphenyl oxide; p-Chlorodiphenyl oxide; [ChemIDplus]",
        "links": [],
        "cross_references": [
          {
            "type": "name_match",
            "text": "benzene",
            "confidence": 1.0,
            "uuid": "b05124de-5f34-4c14-8f04-ccb20c3780d9",
            "name": "Benzene",
            "url": "https://haz-map.com/Agents/5",
            "category": "agents"
          },
          {
            "type": "name_match",
            "text": "phenyl ether",
            "confidence": 1.0,
            "uuid": "063d5590-1868-48d4-a62d-7f1f2e8cf6d4",
            "name": "Phenyl ether",
            "url": "https://haz-map.com/Agents/591",
            "category": "agents"
          }
        ]
      },
      "category": {
        "original_name": "Category",
        "value": "Halogenated Polyaromatics",
        "links": [],
        "cross_references": []
      },
      "description": {
        "original_name": "Description",
        "value": "Liquid; [CAMEO] Colorless liquid; [MSDSonline]",
        "links": [],
        "cross_references": []
      },
      "sourcesuses": {
        "original_name": "Sources/Uses",
        "value": "Used as dielectric fluid; [HSDB]",
        "links": [],
        "cross_references": []
      },
      "comments": {
        "original_name": "Comments",
        "value": "May form unstable pyrophoric peroxides on exposure to air; [CAMEO] See \"Hexachlorodiphenyloxide.\"",
        "links": [],
        "cross_references": [
          {
            "type": "name_match",
            "text": "hexachlorodiphenyloxide",
            "confidence": 1.0,
            "uuid": "93feffa0-5761-4294-917d-a8416393d224",
            "name": "Hexachlorodiphenyloxide",
            "url": "https://haz-map.com/Agents/349",
            "category": "agents"
          }
        ]
      },
      "biomedical_references": {
        "original_name": "Biomedical References",
        "value": "Search PubMed",
        "links": [
          {
            "text": "Search PubMed",
            "url": "https://www.ncbi.nlm.nih.gov/pubmed?term=p-Chlorophenyl+phenyl+ether%20AND%20human%5Bmh%5D%20AND%20%28Occupational%20Diseases%20%5Bmh%5D%20OR%20Occupational%20Exposure%20%5Bmh%5D%29%20%20AND%20%28tox%5Bsb%5D%29&cmd=search"
          }
        ],
        "cross_references": []
      }
    },
    "exposure_assessment": {
      "vapor_pressure": {
        "original_name": "Vapor Pressure",
        "value": "0.0027 mm Hg",
        "links": [],
        "cross_references": []
      }
    },
    "adverse_effects": {
      "hepatotoxin": {
        "original_name": "Hepatotoxin",
        "value": "Hepatoxic (a) from occupational exposure (secondary effect) or (b) in animal studies or in humans after ingestion",
        "links": [],
        "cross_references": []
      }
    },
    "diseases_processes_and_activities_linked_to_this_agent": {
      "other_information": {
        "original_name": "Other Information",
        "value": "No other related information on this agent was found.",
        "links": [],
        "cross_references": []
      }
    }
  },
  "cross_references": [
    {
      "type": "name_match",
      "text": "benzene",
      "confidence": 1.0,
      "uuid": "b05124de-5f34-4c14-8f04-ccb20c3780d9",
      "name": "Benzene",
      "url": "https://haz-map.com/Agents/5",
      "category": "agents"
    },
    {
      "type": "name_match",
      "text": "hexachlorodiphenyloxide",
      "confidence": 1.0,
      "uuid": "93feffa0-5761-4294-917d-a8416393d224",
      "name": "Hexachlorodiphenyloxide",
      "url": "https://haz-map.com/Agents/349",
      "category": "agents"
    },
    {
      "type": "name_match",
      "text": "phenyl ether",
      "confidence": 1.0,
      "uuid": "063d5590-1868-48d4-a62d-7f1f2e8cf6d4",
      "name": "Phenyl ether",
      "url": "https://haz-map.com/Agents/591",
      "category": "agents"
    },
    {
      "type": "name_match",
      "text": "p-chlorophenyl phenyl ether",
      "confidence": 1.0,
      "uuid": "66a0d8f5-a331-449b-9984-78a10ced9333",
      "name": "p-Chlorophenyl phenyl ether",
      "url": "https://haz-map.com/Agents/6646",
      "category": "agents"
    }
  ],
  "all_links": [
    {
      "text": "Search PubMed",
      "url": "https://www.ncbi.nlm.nih.gov/pubmed?term=p-Chlorophenyl+phenyl+ether%20AND%20human%5Bmh%5D%20AND%20%28Occupational%20Diseases%20%5Bmh%5D%20OR%20Occupational%20Exposure%20%5Bmh%5D%29%20%20AND%20%28tox%5Bsb%5D%29&cmd=search"
    }
  ]
}