{
  "metadata": {
    "scraped_from": "https://haz-map.com/Agents/11993",
    "entity_name": "Asparagine",
    "category": "agents",
    "uuid": "6708df1f-36ef-4238-81c2-439abc89b2b7",
    "scraped_at": "2025-07-23T21:04:45.206591"
  },
  "parsed_at": "2025-07-24T00:54:40.839577",
  "title": "Asparagine",
  "sections": {
    "general": {
      "agent_name": {
        "original_name": "Agent Name",
        "value": "Asparagine",
        "links": [],
        "cross_references": [
          {
            "type": "name_match",
            "text": "asparagine",
            "confidence": 1.0,
            "uuid": "6708df1f-36ef-4238-81c2-439abc89b2b7",
            "name": "Asparagine",
            "url": "https://haz-map.com/Agents/11993",
            "category": "agents"
          }
        ]
      },
      "cas_number": {
        "original_name": "CAS Number",
        "value": "70-47-3",
        "links": [],
        "cross_references": []
      },
      "formula": {
        "original_name": "Formula",
        "value": "C4-H8-N2-O3",
        "links": [],
        "cross_references": []
      },
      "major_category": {
        "original_name": "Major Category",
        "value": "Biological Agents",
        "links": [],
        "cross_references": []
      },
      "synonyms": {
        "original_name": "Synonyms",
        "value": "(-)-Asparagine; (S)-2,4-Diamino-4-oxobutanoic acid; (S)-Asparagine; 2,4-Diamino-4-oxobutanoic acid, (S)-; 2-Aminosuccinamic acid, L-; Agedoite; Altheine; Asparagine acid; Asparamide; Aspartamic acid; Aspartic acid beta-amide; Butanoic acid, 2,4-diamino-4-oxo-, (S)-; Crystal VI; L-2,4-Diamino-4-oxobutanoic acid; L-Asparagine; L-Asparatamine; L-beta-Asparagine (VAN); alpha-Aminosuccinamic acid; Asparagine, L-; [ChemIDplus] Asn; N; [Merck Index] L-Asparagine anhydrous; [Alfa Aesar MSDS]",
        "links": [],
        "cross_references": [
          {
            "type": "name_match",
            "text": "2,4-d",
            "confidence": 1.0,
            "uuid": "bed35f54-2d93-4ffd-a3ee-723ab365faf1",
            "name": "2,4-D",
            "url": "https://haz-map.com/Agents/389",
            "category": "agents"
          },
          {
            "type": "name_match",
            "text": "asparagine",
            "confidence": 1.0,
            "uuid": "6708df1f-36ef-4238-81c2-439abc89b2b7",
            "name": "Asparagine",
            "url": "https://haz-map.com/Agents/11993",
            "category": "agents"
          },
          {
            "type": "name_match",
            "text": "aspartic acid",
            "confidence": 1.0,
            "uuid": "7b12254f-ffdd-453d-82ba-a9d7ff06cc85",
            "name": "Aspartic acid",
            "url": "https://haz-map.com/Agents/15084",
            "category": "agents"
          },
          {
            "type": "name_match",
            "text": "succinamic acid",
            "confidence": 1.0,
            "uuid": "a069aa75-f72f-4155-ac07-86c09b7744be",
            "name": "Succinamic acid",
            "url": "https://haz-map.com/Agents/20746",
            "category": "agents"
          }
        ]
      },
      "category": {
        "original_name": "Category",
        "value": "Amino Acids and Derivatives",
        "links": [],
        "cross_references": []
      },
      "description": {
        "original_name": "Description",
        "value": "Solid; [Merck Index] White hygroscopic powder; [Alfa Aesar MSDS]",
        "links": [],
        "cross_references": []
      },
      "sourcesuses": {
        "original_name": "Sources/Uses",
        "value": "Amino acid not essential for humans; [Merck Index] Used in biochemical research, to make culture media, in the synthesis of acrylamide, and in medicine; [HSDB] Used as a flavor enhancer, flavoring agent or adjuvant, and nutritional supplement; [FDA]",
        "links": [],
        "cross_references": [
          {
            "type": "name_match",
            "text": "acrylamide",
            "confidence": 1.0,
            "uuid": "d3df7c05-3ce6-4db9-98d8-978d9ceacf02",
            "name": "Acrylamide",
            "url": "https://haz-map.com/Agents/57",
            "category": "agents"
          },
          {
            "type": "name_match",
            "text": "mica",
            "confidence": 1.0,
            "uuid": "433f26f1-c399-4596-b179-ce3843cfd465",
            "name": "Mica",
            "url": "https://haz-map.com/Agents/621",
            "category": "agents"
          }
        ]
      },
      "comments": {
        "original_name": "Comments",
        "value": "Causes weight loss, effects on phosphatases, lipids (including transport), and transaminases, changes in brain, kidney, and testicular weights, hyperglycemia, and changes in potassium in 90-day constant oral studies of rats; [RTECS] May cause irritation; [Alfa Aesar MSDS]",
        "links": [],
        "cross_references": [
          {
            "type": "name_match",
            "text": "weight loss",
            "confidence": 1.0,
            "uuid": "9b7baca4-cf1b-4e78-99d2-2377fbac8f8b",
            "name": "weight loss",
            "url": "https://haz-map.com/Findings/3",
            "category": "findings"
          },
          {
            "type": "name_match",
            "text": "potassium",
            "confidence": 1.0,
            "uuid": "41542f50-8311-43c8-9ec6-078665bee9df",
            "name": "Potassium",
            "url": "https://haz-map.com/Agents/1526",
            "category": "agents"
          },
          {
            "type": "name_match",
            "text": "ht",
            "confidence": 1.0,
            "uuid": "764df367-8d53-4a11-81a2-31ccfe122a8d",
            "name": "HT",
            "url": "https://haz-map.com/Agents/2168",
            "category": "agents"
          }
        ]
      },
      "biomedical_references": {
        "original_name": "Biomedical References",
        "value": "Search PubMed",
        "links": [
          {
            "text": "Search PubMed",
            "url": "https://www.ncbi.nlm.nih.gov/pubmed?term=Asparagine%20AND%20human%5Bmh%5D%20AND%20%28Occupational%20Diseases%20%5Bmh%5D%20OR%20Occupational%20Exposure%20%5Bmh%5D%29%20%20AND%20%28tox%5Bsb%5D%29&cmd=search"
          }
        ],
        "cross_references": []
      }
    },
    "exposure_assessment": {
      "vapor_pressure": {
        "original_name": "Vapor Pressure",
        "value": "4.84E-08 mm Hg",
        "links": [],
        "cross_references": []
      }
    },
    "diseases_processes_and_activities_linked_to_this_agent": {
      "other_information": {
        "original_name": "Other Information",
        "value": "No other related information on this agent was found.",
        "links": [],
        "cross_references": []
      }
    }
  },
  "cross_references": [
    {
      "type": "name_match",
      "text": "weight loss",
      "confidence": 1.0,
      "uuid": "9b7baca4-cf1b-4e78-99d2-2377fbac8f8b",
      "name": "weight loss",
      "url": "https://haz-map.com/Findings/3",
      "category": "findings"
    },
    {
      "type": "name_match",
      "text": "acrylamide",
      "confidence": 1.0,
      "uuid": "d3df7c05-3ce6-4db9-98d8-978d9ceacf02",
      "name": "Acrylamide",
      "url": "https://haz-map.com/Agents/57",
      "category": "agents"
    },
    {
      "type": "name_match",
      "text": "2,4-d",
      "confidence": 1.0,
      "uuid": "bed35f54-2d93-4ffd-a3ee-723ab365faf1",
      "name": "2,4-D",
      "url": "https://haz-map.com/Agents/389",
      "category": "agents"
    },
    {
      "type": "name_match",
      "text": "mica",
      "confidence": 1.0,
      "uuid": "433f26f1-c399-4596-b179-ce3843cfd465",
      "name": "Mica",
      "url": "https://haz-map.com/Agents/621",
      "category": "agents"
    },
    {
      "type": "name_match",
      "text": "potassium",
      "confidence": 1.0,
      "uuid": "41542f50-8311-43c8-9ec6-078665bee9df",
      "name": "Potassium",
      "url": "https://haz-map.com/Agents/1526",
      "category": "agents"
    },
    {
      "type": "name_match",
      "text": "ht",
      "confidence": 1.0,
      "uuid": "764df367-8d53-4a11-81a2-31ccfe122a8d",
      "name": "HT",
      "url": "https://haz-map.com/Agents/2168",
      "category": "agents"
    },
    {
      "type": "name_match",
      "text": "asparagine",
      "confidence": 1.0,
      "uuid": "6708df1f-36ef-4238-81c2-439abc89b2b7",
      "name": "Asparagine",
      "url": "https://haz-map.com/Agents/11993",
      "category": "agents"
    },
    {
      "type": "name_match",
      "text": "aspartic acid",
      "confidence": 1.0,
      "uuid": "7b12254f-ffdd-453d-82ba-a9d7ff06cc85",
      "name": "Aspartic acid",
      "url": "https://haz-map.com/Agents/15084",
      "category": "agents"
    },
    {
      "type": "name_match",
      "text": "succinamic acid",
      "confidence": 1.0,
      "uuid": "a069aa75-f72f-4155-ac07-86c09b7744be",
      "name": "Succinamic acid",
      "url": "https://haz-map.com/Agents/20746",
      "category": "agents"
    }
  ],
  "all_links": [
    {
      "text": "Search PubMed",
      "url": "https://www.ncbi.nlm.nih.gov/pubmed?term=Asparagine%20AND%20human%5Bmh%5D%20AND%20%28Occupational%20Diseases%20%5Bmh%5D%20OR%20Occupational%20Exposure%20%5Bmh%5D%29%20%20AND%20%28tox%5Bsb%5D%29&cmd=search"
    }
  ]
}