{
  "metadata": {
    "scraped_from": "https://haz-map.com/Agents/7158",
    "entity_name": "p-Nitrophenol sodium salt",
    "category": "agents",
    "uuid": "671dd7d3-0d06-4a84-8857-e32b2a85d9a2",
    "scraped_at": "2025-07-23T20:09:45.209650"
  },
  "parsed_at": "2025-07-24T01:03:53.798090",
  "title": "p-Nitrophenol sodium salt",
  "sections": {
    "general": {
      "agent_name": {
        "original_name": "Agent Name",
        "value": "p-Nitrophenol sodium salt",
        "links": [],
        "cross_references": [
          {
            "type": "name_match",
            "text": "phenol",
            "confidence": 1.0,
            "uuid": "03141a03-a7df-4f51-9a37-adde1a7c4b31",
            "name": "Phenol",
            "url": "https://haz-map.com/Agents/84",
            "category": "agents"
          },
          {
            "type": "name_match",
            "text": "sodium",
            "confidence": 1.0,
            "uuid": "1adffc42-a4d8-44d5-81d6-7dbd96ef8a6f",
            "name": "Sodium",
            "url": "https://haz-map.com/Agents/1527",
            "category": "agents"
          },
          {
            "type": "name_match",
            "text": "p-nitrophenol sodium salt",
            "confidence": 1.0,
            "uuid": "671dd7d3-0d06-4a84-8857-e32b2a85d9a2",
            "name": "p-Nitrophenol sodium salt",
            "url": "https://haz-map.com/Agents/7158",
            "category": "agents"
          }
        ]
      },
      "cas_number": {
        "original_name": "CAS Number",
        "value": "824-78-2",
        "links": [],
        "cross_references": []
      },
      "formula": {
        "original_name": "Formula",
        "value": "C6-H5-N-O3.Na",
        "links": [],
        "cross_references": []
      },
      "major_category": {
        "original_name": "Major Category",
        "value": "Nitrogen Compounds",
        "links": [],
        "cross_references": [
          {
            "type": "name_match",
            "text": "nitrogen",
            "confidence": 1.0,
            "uuid": "db5e90a9-06d2-45b9-8b81-f345a89b0bc0",
            "name": "Nitrogen",
            "url": "https://haz-map.com/Agents/1072",
            "category": "agents"
          }
        ]
      },
      "synonyms": {
        "original_name": "Synonyms",
        "value": "4-Nitrophenol sodium salt; PNSP; Phenol, 4-nitro-, sodium salt; Phenol, p-nitro-, sodium salt; Sodium 4-nitrophenolate; Sodium 4-nitrophenoxide; Sodium nitrophenate; Sodium p-nitrophenate; Sodium p-nitrophenol; Sodium p-nitrophenolate; Sodium p-nitrophenoxide; para-Nitro sodium phenolate; [ChemIDplus]",
        "links": [],
        "cross_references": [
          {
            "type": "name_match",
            "text": "phenol",
            "confidence": 1.0,
            "uuid": "03141a03-a7df-4f51-9a37-adde1a7c4b31",
            "name": "Phenol",
            "url": "https://haz-map.com/Agents/84",
            "category": "agents"
          },
          {
            "type": "name_match",
            "text": "4-nitrophenol",
            "confidence": 1.0,
            "uuid": "a31aad6a-4b43-4bf1-a51b-253bca4056a3",
            "name": "4-Nitrophenol",
            "url": "https://haz-map.com/Agents/780",
            "category": "agents"
          },
          {
            "type": "name_match",
            "text": "sodium",
            "confidence": 1.0,
            "uuid": "1adffc42-a4d8-44d5-81d6-7dbd96ef8a6f",
            "name": "Sodium",
            "url": "https://haz-map.com/Agents/1527",
            "category": "agents"
          },
          {
            "type": "name_match",
            "text": "sodium phenolate",
            "confidence": 1.0,
            "uuid": "8dee4ef7-2845-4783-801a-51435146cb40",
            "name": "Sodium phenolate",
            "url": "https://haz-map.com/Agents/7150",
            "category": "agents"
          }
        ]
      },
      "category": {
        "original_name": "Category",
        "value": "Nitrophenols",
        "links": [],
        "cross_references": [
          {
            "type": "name_match",
            "text": "phenol",
            "confidence": 1.0,
            "uuid": "03141a03-a7df-4f51-9a37-adde1a7c4b31",
            "name": "Phenol",
            "url": "https://haz-map.com/Agents/84",
            "category": "agents"
          }
        ]
      },
      "description": {
        "original_name": "Description",
        "value": "Yellow solid; [HSDB] Dihydrate: Orange powder; [MSDSonline]",
        "links": [],
        "cross_references": []
      },
      "sourcesuses": {
        "original_name": "Sources/Uses",
        "value": "Used to make parathion and methylparathion; [HSDB]",
        "links": [],
        "cross_references": [
          {
            "type": "name_match",
            "text": "parathion",
            "confidence": 1.0,
            "uuid": "bc765d26-99df-48ea-b08b-a4f4d640fa6e",
            "name": "Parathion",
            "url": "https://haz-map.com/Agents/243",
            "category": "agents"
          }
        ]
      },
      "comments": {
        "original_name": "Comments",
        "value": "Causes somnolence in lethal-dose feeding studies and methemoglobinemia in inhalation studies of rats; [RTECS] Emergency treatment: \"Phenol and related agents\"; Causes methemoglobinemia and injury to liver and kidneys; [HSDB] Highly flammable; An irritant; [MSDSonline] See \"4-Nitrophenol.\"",
        "links": [],
        "cross_references": [
          {
            "type": "name_match",
            "text": "phenol",
            "confidence": 1.0,
            "uuid": "03141a03-a7df-4f51-9a37-adde1a7c4b31",
            "name": "Phenol",
            "url": "https://haz-map.com/Agents/84",
            "category": "agents"
          },
          {
            "type": "name_match",
            "text": "4-nitrophenol",
            "confidence": 1.0,
            "uuid": "a31aad6a-4b43-4bf1-a51b-253bca4056a3",
            "name": "4-Nitrophenol",
            "url": "https://haz-map.com/Agents/780",
            "category": "agents"
          },
          {
            "type": "name_match",
            "text": "methemoglobin",
            "confidence": 1.0,
            "uuid": "afb7ebf5-d2a3-4e60-8d2e-3a19456344ee",
            "name": "Methemoglobin",
            "url": "https://haz-map.com/Agents/15467",
            "category": "agents"
          },
          {
            "type": "fuzzy_match",
            "text": "methemoglobinemia",
            "matched_name": "Methemoglobinemia, acute",
            "confidence": 0.7208333333333333,
            "uuid": "473a44bd-cf11-4710-a769-e8e2b25ba317",
            "category": "diseases",
            "url": "https://haz-map.com/Diseases/210"
          }
        ]
      },
      "biomedical_references": {
        "original_name": "Biomedical References",
        "value": "Search PubMed",
        "links": [
          {
            "text": "Search PubMed",
            "url": "https://www.ncbi.nlm.nih.gov/pubmed?term=p-Nitrophenol+sodium+salt%20AND%20human%5Bmh%5D%20AND%20%28Occupational%20Diseases%20%5Bmh%5D%20OR%20Occupational%20Exposure%20%5Bmh%5D%29%20%20AND%20%28tox%5Bsb%5D%29&cmd=search"
          }
        ],
        "cross_references": []
      }
    },
    "exposure_assessment": {
      "vapor_pressure": {
        "original_name": "Vapor Pressure",
        "value": "4E-10 mm Hg",
        "links": [],
        "cross_references": []
      },
      "lethal_concentration": {
        "original_name": "Lethal Concentration",
        "value": "LCLo (rat) > 4,700 mg/m3",
        "links": [],
        "cross_references": []
      }
    },
    "adverse_effects": {
      "methemoglobinemia": {
        "original_name": "Methemoglobinemia",
        "value": "MetHgb is secondary toxic effect",
        "links": [],
        "cross_references": []
      },
      "hepatotoxin": {
        "original_name": "Hepatotoxin",
        "value": "Hepatoxic (a) from occupational exposure (secondary effect) or (b) in animal studies or in humans after ingestion",
        "links": [],
        "cross_references": []
      }
    },
    "diseases_processes_and_activities_linked_to_this_agent": {
      "other_information": {
        "original_name": "Other Information",
        "value": "No other related information on this agent was found.",
        "links": [],
        "cross_references": []
      }
    }
  },
  "cross_references": [
    {
      "type": "name_match",
      "text": "phenol",
      "confidence": 1.0,
      "uuid": "03141a03-a7df-4f51-9a37-adde1a7c4b31",
      "name": "Phenol",
      "url": "https://haz-map.com/Agents/84",
      "category": "agents"
    },
    {
      "type": "name_match",
      "text": "parathion",
      "confidence": 1.0,
      "uuid": "bc765d26-99df-48ea-b08b-a4f4d640fa6e",
      "name": "Parathion",
      "url": "https://haz-map.com/Agents/243",
      "category": "agents"
    },
    {
      "type": "name_match",
      "text": "4-nitrophenol",
      "confidence": 1.0,
      "uuid": "a31aad6a-4b43-4bf1-a51b-253bca4056a3",
      "name": "4-Nitrophenol",
      "url": "https://haz-map.com/Agents/780",
      "category": "agents"
    },
    {
      "type": "name_match",
      "text": "nitrogen",
      "confidence": 1.0,
      "uuid": "db5e90a9-06d2-45b9-8b81-f345a89b0bc0",
      "name": "Nitrogen",
      "url": "https://haz-map.com/Agents/1072",
      "category": "agents"
    },
    {
      "type": "name_match",
      "text": "sodium",
      "confidence": 1.0,
      "uuid": "1adffc42-a4d8-44d5-81d6-7dbd96ef8a6f",
      "name": "Sodium",
      "url": "https://haz-map.com/Agents/1527",
      "category": "agents"
    },
    {
      "type": "name_match",
      "text": "sodium phenolate",
      "confidence": 1.0,
      "uuid": "8dee4ef7-2845-4783-801a-51435146cb40",
      "name": "Sodium phenolate",
      "url": "https://haz-map.com/Agents/7150",
      "category": "agents"
    },
    {
      "type": "name_match",
      "text": "p-nitrophenol sodium salt",
      "confidence": 1.0,
      "uuid": "671dd7d3-0d06-4a84-8857-e32b2a85d9a2",
      "name": "p-Nitrophenol sodium salt",
      "url": "https://haz-map.com/Agents/7158",
      "category": "agents"
    },
    {
      "type": "name_match",
      "text": "methemoglobin",
      "confidence": 1.0,
      "uuid": "afb7ebf5-d2a3-4e60-8d2e-3a19456344ee",
      "name": "Methemoglobin",
      "url": "https://haz-map.com/Agents/15467",
      "category": "agents"
    },
    {
      "type": "fuzzy_match",
      "text": "methemoglobinemia",
      "matched_name": "Methemoglobinemia, acute",
      "confidence": 0.7208333333333333,
      "uuid": "473a44bd-cf11-4710-a769-e8e2b25ba317",
      "category": "diseases",
      "url": "https://haz-map.com/Diseases/210"
    }
  ],
  "all_links": [
    {
      "text": "Search PubMed",
      "url": "https://www.ncbi.nlm.nih.gov/pubmed?term=p-Nitrophenol+sodium+salt%20AND%20human%5Bmh%5D%20AND%20%28Occupational%20Diseases%20%5Bmh%5D%20OR%20Occupational%20Exposure%20%5Bmh%5D%29%20%20AND%20%28tox%5Bsb%5D%29&cmd=search"
    }
  ]
}