{
  "metadata": {
    "scraped_from": "https://haz-map.com/Agents/11494",
    "entity_name": "2,3-Dimethylpentan-2-ol",
    "category": "agents",
    "uuid": "6731f275-e19f-4da3-839e-71cb187b74d1",
    "scraped_at": "2025-07-23T21:00:03.979961"
  },
  "parsed_at": "2025-07-24T01:11:04.036478",
  "title": "2,3-Dimethylpentan-2-ol",
  "sections": {
    "general": {
      "agent_name": {
        "original_name": "Agent Name",
        "value": "2,3-Dimethylpentan-2-ol",
        "links": [],
        "cross_references": [
          {
            "type": "name_match",
            "text": "2,3-dimethylpentan-2-ol",
            "confidence": 1.0,
            "uuid": "6731f275-e19f-4da3-839e-71cb187b74d1",
            "name": "2,3-Dimethylpentan-2-ol",
            "url": "https://haz-map.com/Agents/11494",
            "category": "agents"
          }
        ]
      },
      "cas_number": {
        "original_name": "CAS Number",
        "value": "4911-70-0",
        "links": [],
        "cross_references": []
      },
      "formula": {
        "original_name": "Formula",
        "value": "C7-H16-O",
        "links": [],
        "cross_references": []
      },
      "major_category": {
        "original_name": "Major Category",
        "value": "Solvents",
        "links": [],
        "cross_references": []
      },
      "synonyms": {
        "original_name": "Synonyms",
        "value": "2,3-Dimethyl-2-pentanol; 2-Pentanol, 2,3-dimethyl- (8CI)(9CI); [ChemIDplus]",
        "links": [],
        "cross_references": [
          {
            "type": "name_match",
            "text": "2-pentanol",
            "confidence": 1.0,
            "uuid": "50f8d728-2f7d-4c2c-99d6-98c425268e54",
            "name": "2-Pentanol",
            "url": "https://haz-map.com/Agents/8529",
            "category": "agents"
          }
        ]
      },
      "category": {
        "original_name": "Category",
        "value": "Alcohols (<C12)",
        "links": [],
        "cross_references": []
      },
      "biomedical_references": {
        "original_name": "Biomedical References",
        "value": "Search PubMed",
        "links": [
          {
            "text": "Search PubMed",
            "url": "https://www.ncbi.nlm.nih.gov/pubmed?term=2%2c3-Dimethylpentan-2-ol%20AND%20human%5Bmh%5D%20AND%20%28Occupational%20Diseases%20%5Bmh%5D%20OR%20Occupational%20Exposure%20%5Bmh%5D%29%20%20AND%20%28tox%5Bsb%5D%29&cmd=search"
          }
        ],
        "cross_references": []
      }
    },
    "exposure_assessment": {
      "vapor_pressure": {
        "original_name": "Vapor Pressure",
        "value": "4.54 mm Hg",
        "links": [],
        "cross_references": []
      },
      "explanatory_notes": {
        "original_name": "Explanatory Notes",
        "value": "VP from ChemIDplus;",
        "links": [],
        "cross_references": []
      }
    },
    "adverse_effects": {
      "neurotoxin": {
        "original_name": "Neurotoxin",
        "value": "Acute solvent syndrome",
        "links": [],
        "cross_references": []
      }
    },
    "diseases_processes_and_activities_linked_to_this_agent": {
      "diseases": {
        "original_name": "Diseases",
        "value": "Occupational diseases associated with exposure to this agent: Solvents, acute toxic effect",
        "links": [
          {
            "text": "Solvents, acute toxic effect",
            "url": "https://haz-map.com/Diseases/326"
          }
        ],
        "cross_references": [
          {
            "type": "url_match",
            "text": "Solvents, acute toxic effect",
            "url": "https://haz-map.com/Diseases/326",
            "confidence": 1.0,
            "uuid": "581e90e3-9d0c-45f0-aa6c-3468c28da129",
            "name": "Solvents, acute toxic effect",
            "category": "diseases"
          }
        ]
      }
    }
  },
  "cross_references": [
    {
      "type": "url_match",
      "text": "Solvents, acute toxic effect",
      "url": "https://haz-map.com/Diseases/326",
      "confidence": 1.0,
      "uuid": "581e90e3-9d0c-45f0-aa6c-3468c28da129",
      "name": "Solvents, acute toxic effect",
      "category": "diseases"
    },
    {
      "type": "name_match",
      "text": "2-pentanol",
      "confidence": 1.0,
      "uuid": "50f8d728-2f7d-4c2c-99d6-98c425268e54",
      "name": "2-Pentanol",
      "url": "https://haz-map.com/Agents/8529",
      "category": "agents"
    },
    {
      "type": "name_match",
      "text": "2,3-dimethylpentan-2-ol",
      "confidence": 1.0,
      "uuid": "6731f275-e19f-4da3-839e-71cb187b74d1",
      "name": "2,3-Dimethylpentan-2-ol",
      "url": "https://haz-map.com/Agents/11494",
      "category": "agents"
    }
  ],
  "all_links": [
    {
      "text": "Search PubMed",
      "url": "https://www.ncbi.nlm.nih.gov/pubmed?term=2%2c3-Dimethylpentan-2-ol%20AND%20human%5Bmh%5D%20AND%20%28Occupational%20Diseases%20%5Bmh%5D%20OR%20Occupational%20Exposure%20%5Bmh%5D%29%20%20AND%20%28tox%5Bsb%5D%29&cmd=search"
    },
    {
      "text": "Solvents, acute toxic effect",
      "url": "https://haz-map.com/Diseases/326"
    }
  ]
}