{
  "metadata": {
    "scraped_from": "https://haz-map.com/Agents/2662",
    "entity_name": "Methyl isopropenyl ketone",
    "category": "agents",
    "uuid": "67a97800-a495-4328-8614-a729309f2e4a",
    "scraped_at": "2025-07-23T19:17:15.247468"
  },
  "parsed_at": "2025-07-24T01:14:10.312525",
  "title": "Methyl isopropenyl ketone",
  "sections": {
    "general": {
      "agent_name": {
        "original_name": "Agent Name",
        "value": "Methyl isopropenyl ketone",
        "links": [],
        "cross_references": [
          {
            "type": "name_match",
            "text": "methyl isopropenyl ketone",
            "confidence": 1.0,
            "uuid": "67a97800-a495-4328-8614-a729309f2e4a",
            "name": "Methyl isopropenyl ketone",
            "url": "https://haz-map.com/Agents/2662",
            "category": "agents"
          }
        ]
      },
      "cas_number": {
        "original_name": "CAS Number",
        "value": "814-78-8",
        "links": [],
        "cross_references": []
      },
      "formula": {
        "original_name": "Formula",
        "value": "C5-H8-O",
        "links": [],
        "cross_references": []
      },
      "major_category": {
        "original_name": "Major Category",
        "value": "Plastics & Rubber",
        "links": [],
        "cross_references": []
      },
      "synonyms": {
        "original_name": "Synonyms",
        "value": "2-Methyl-1-buten-3-one; 2-Methyl-1-butene-3-one; 3-Buten-2-one, 3-methyl-; 3-Butene-2-one, 3-methyl; 3-Methyl-3-buten-2-on [German]; 3-Methyl-3-buten-2-one; 3-Methyl-3-butene-2-one; 3-Methylene-2-butanone; Isopropenyl methyl ketone; Ketone, methyl isopropenyl; Methyl butenone; Methyl isopropenyl ketone; Propen-2-yl methyl ketone; [ChemIDplus] UN1246",
        "links": [],
        "cross_references": [
          {
            "type": "name_match",
            "text": "2-butanone",
            "confidence": 1.0,
            "uuid": "7755b6c7-e823-404c-b6cc-3fe49558cf7d",
            "name": "2-Butanone",
            "url": "https://haz-map.com/Agents/320",
            "category": "agents"
          },
          {
            "type": "name_match",
            "text": "ethylene",
            "confidence": 1.0,
            "uuid": "958eacc0-5135-4b62-bb93-6df972bf552f",
            "name": "Ethylene",
            "url": "https://haz-map.com/Agents/1076",
            "category": "agents"
          },
          {
            "type": "name_match",
            "text": "methyl isopropenyl ketone",
            "confidence": 1.0,
            "uuid": "67a97800-a495-4328-8614-a729309f2e4a",
            "name": "Methyl isopropenyl ketone",
            "url": "https://haz-map.com/Agents/2662",
            "category": "agents"
          },
          {
            "type": "name_match",
            "text": "2-methyl-1-butene",
            "confidence": 1.0,
            "uuid": "63d2e314-2103-4901-b05e-ba07ac6ad3b8",
            "name": "2-Methyl-1-butene",
            "url": "https://haz-map.com/Agents/3127",
            "category": "agents"
          }
        ]
      },
      "category": {
        "original_name": "Category",
        "value": "Other Monomers",
        "links": [],
        "cross_references": []
      },
      "description": {
        "original_name": "Description",
        "value": "Clear liquid with pleasant odor; [Hawley]",
        "links": [],
        "cross_references": []
      },
      "sourcesuses": {
        "original_name": "Sources/Uses",
        "value": "Used to make plastics; [HSDB]",
        "links": [],
        "cross_references": []
      },
      "comments": {
        "original_name": "Comments",
        "value": "Highly toxic by inhalation, skin absorption, and ingestion; A skin, eye, and respiratory tract irritant; Strong lachrymator; [HSDB] Readily polymerizes; Explosive in air at 1.8-9.0%; [Hawley] Methyl isopropenyl ketone, stabilized (UN1246) has warning of explosive polymerization; [ERG 2016]",
        "links": [],
        "cross_references": [
          {
            "type": "name_match",
            "text": "methyl isopropenyl ketone",
            "confidence": 1.0,
            "uuid": "67a97800-a495-4328-8614-a729309f2e4a",
            "name": "Methyl isopropenyl ketone",
            "url": "https://haz-map.com/Agents/2662",
            "category": "agents"
          }
        ]
      },
      "biomedical_references": {
        "original_name": "Biomedical References",
        "value": "Search PubMed",
        "links": [
          {
            "text": "Search PubMed",
            "url": "https://www.ncbi.nlm.nih.gov/pubmed?term=Methyl+isopropenyl+ketone%20AND%20human%5Bmh%5D%20AND%20%28Occupational%20Diseases%20%5Bmh%5D%20OR%20Occupational%20Exposure%20%5Bmh%5D%29%20%20AND%20%28tox%5Bsb%5D%29&cmd=search"
          }
        ],
        "cross_references": []
      }
    },
    "exposure_assessment": {
      "vapor_pressure": {
        "original_name": "Vapor Pressure",
        "value": "42 mm Hg",
        "links": [],
        "cross_references": []
      },
      "lethal_concentration": {
        "original_name": "Lethal Concentration",
        "value": "LCLo (rat) = 125 ppm/4h",
        "links": [],
        "cross_references": []
      },
      "explosive_polymerization": {
        "original_name": "Explosive Polymerization",
        "value": "Yes",
        "links": [],
        "cross_references": []
      },
      "explanatory_notes": {
        "original_name": "Explanatory Notes",
        "value": "Flash point = 9 deg C; [HSDB]",
        "links": [],
        "cross_references": [
          {
            "type": "name_match",
            "text": "ash",
            "confidence": 1.0,
            "uuid": "68b360f1-5ad0-4337-bea0-d7adca2961b5",
            "name": "Ash",
            "url": "https://haz-map.com/Agents/965",
            "category": "agents"
          }
        ]
      },
      "nfpa": {
        "original_name": "NFPA",
        "value": "may ignite at ambient temp",
        "links": [],
        "cross_references": []
      }
    },
    "adverse_effects": {
      "lachrymator": {
        "original_name": "Lachrymator",
        "value": "Yes",
        "links": [],
        "cross_references": []
      }
    },
    "diseases_processes_and_activities_linked_to_this_agent": {
      "other_information": {
        "original_name": "Other Information",
        "value": "No other related information on this agent was found.",
        "links": [],
        "cross_references": []
      }
    }
  },
  "cross_references": [
    {
      "type": "name_match",
      "text": "2-butanone",
      "confidence": 1.0,
      "uuid": "7755b6c7-e823-404c-b6cc-3fe49558cf7d",
      "name": "2-Butanone",
      "url": "https://haz-map.com/Agents/320",
      "category": "agents"
    },
    {
      "type": "name_match",
      "text": "ash",
      "confidence": 1.0,
      "uuid": "68b360f1-5ad0-4337-bea0-d7adca2961b5",
      "name": "Ash",
      "url": "https://haz-map.com/Agents/965",
      "category": "agents"
    },
    {
      "type": "name_match",
      "text": "ethylene",
      "confidence": 1.0,
      "uuid": "958eacc0-5135-4b62-bb93-6df972bf552f",
      "name": "Ethylene",
      "url": "https://haz-map.com/Agents/1076",
      "category": "agents"
    },
    {
      "type": "name_match",
      "text": "methyl isopropenyl ketone",
      "confidence": 1.0,
      "uuid": "67a97800-a495-4328-8614-a729309f2e4a",
      "name": "Methyl isopropenyl ketone",
      "url": "https://haz-map.com/Agents/2662",
      "category": "agents"
    },
    {
      "type": "name_match",
      "text": "2-methyl-1-butene",
      "confidence": 1.0,
      "uuid": "63d2e314-2103-4901-b05e-ba07ac6ad3b8",
      "name": "2-Methyl-1-butene",
      "url": "https://haz-map.com/Agents/3127",
      "category": "agents"
    }
  ],
  "all_links": [
    {
      "text": "Search PubMed",
      "url": "https://www.ncbi.nlm.nih.gov/pubmed?term=Methyl+isopropenyl+ketone%20AND%20human%5Bmh%5D%20AND%20%28Occupational%20Diseases%20%5Bmh%5D%20OR%20Occupational%20Exposure%20%5Bmh%5D%29%20%20AND%20%28tox%5Bsb%5D%29&cmd=search"
    }
  ]
}