{
  "metadata": {
    "scraped_from": "https://haz-map.com/Agents/5028",
    "entity_name": "2,2'-Dibenzothiazyl disulfide",
    "category": "agents",
    "uuid": "67c31828-e846-406d-a04e-adf8f7dc89ec",
    "scraped_at": "2025-07-23T19:48:17.039663"
  },
  "parsed_at": "2025-07-24T00:53:06.957315",
  "title": "2,2'-Dibenzothiazyl disulfide",
  "sections": {
    "general": {
      "agent_name": {
        "original_name": "Agent Name",
        "value": "2,2'-Dibenzothiazyl disulfide",
        "links": [],
        "cross_references": [
          {
            "type": "name_match",
            "text": "2,2'-dibenzothiazyl disulfide",
            "confidence": 1.0,
            "uuid": "67c31828-e846-406d-a04e-adf8f7dc89ec",
            "name": "2,2'-Dibenzothiazyl disulfide",
            "url": "https://haz-map.com/Agents/5028",
            "category": "agents"
          }
        ]
      },
      "alternative_name": {
        "original_name": "Alternative Name",
        "value": "MBTS",
        "links": [],
        "cross_references": []
      },
      "cas_number": {
        "original_name": "CAS Number",
        "value": "120-78-5",
        "links": [],
        "cross_references": []
      },
      "formula": {
        "original_name": "Formula",
        "value": "C14-H8-N2-S4",
        "links": [],
        "cross_references": []
      },
      "major_category": {
        "original_name": "Major Category",
        "value": "Plastics & Rubber",
        "links": [],
        "cross_references": []
      },
      "synonyms": {
        "original_name": "Synonyms",
        "value": "MBTS; 2,2'-Benzothiazyl disulfide; 2,2'-Bis(benzothiazolyl) disulfide; 2,2'-Dibenzothiazyldisulfide; 2,2'-Dithiobis(benzothiazole); 2-Benzothiazolyl disulfide; 2-Benzothiazyl disulfide; 2-Mercaptobenzothiazole disulfide; 2-Mercaptobenzothiazyl disulfide; Accel TM; Altax; Benzothiazole disulfide; Benzothiazole, 2,2'-dithiobis-; Benzothiazolyl disulfide; Benzothiazyl disulfide; Bis(2-benzothiazolyl) disulfide; Bis(2-benzothiazyl) disulfide; Bis(benzothiazolyl) disulfide; Di-2-benzothiazolyl disulfide; Dibenzothiazolyl disulfide; Dibenzothiazolyl disulphide; Dibenzothiazyl disulfide; Dibenzoylthiazyl disulfide; Dibenzthiazyl disulfide; Dithiobis(benzothiazole); Dwusiarczek dwubenzotiazylu [Polish]; Ekagom GS; MBTS; MBTS rubber accelerator; Mercaptobenzthiazyl ether; Pneumax DM; Royal MBTS; Thiofide; Vulcafor MBTS; Vulkacit DM; Vulkacit DM/C; Vulkacit DM/MGC; [ChemIDplus] MBTS; [Marks, p. 98-9]",
        "links": [],
        "cross_references": [
          {
            "type": "name_match",
            "text": "mercaptobenzothiazole",
            "confidence": 1.0,
            "uuid": "69fdbc1b-da83-4a93-bf41-d6db5fda95a4",
            "name": "Mercaptobenzothiazole",
            "url": "https://haz-map.com/Agents/845",
            "category": "agents"
          },
          {
            "type": "name_match",
            "text": "benzothiazole",
            "confidence": 1.0,
            "uuid": "6c7cc5de-c267-4997-9bab-ec67f286b5bb",
            "name": "Benzothiazole",
            "url": "https://haz-map.com/Agents/3866",
            "category": "agents"
          },
          {
            "type": "name_match",
            "text": "thiazole",
            "confidence": 1.0,
            "uuid": "239903f2-a226-4a4b-bc83-285f21b9610c",
            "name": "Thiazole",
            "url": "https://haz-map.com/Agents/17380",
            "category": "agents"
          }
        ]
      },
      "category": {
        "original_name": "Category",
        "value": "Rubber Additives",
        "links": [],
        "cross_references": []
      },
      "description": {
        "original_name": "Description",
        "value": "Pale yellow or cream to off-white odorless solid; [HSDB] Colorless to pale yellow powder; [MSDSonline]",
        "links": [],
        "cross_references": []
      },
      "sourcesuses": {
        "original_name": "Sources/Uses",
        "value": "Used as rubber accelerator, polychloroprene plasticizer/retarder, and neoprene retarder; Also used for general mechanicals and white stocks; [HSDB] Used as cure modifier for neoprene type W and as oxidation cure activator in butyl; Used for extruded and molded products, tires, tubes, wire, cable, and sponge; [Hawley] Workers may be exposed in metals, home, health, laboratory, and building industries; [Kanerva, p. 1779]",
        "links": [],
        "cross_references": [
          {
            "type": "name_match",
            "text": "polychloroprene",
            "confidence": 1.0,
            "uuid": "32a36595-f24a-4e65-bdea-1f1a8a72e0a8",
            "name": "Polychloroprene",
            "url": "https://haz-map.com/Agents/6748",
            "category": "agents"
          },
          {
            "type": "name_match",
            "text": "bes",
            "confidence": 1.0,
            "uuid": "3074c0ff-c637-46e9-9a00-5b14f02c2d53",
            "name": "BES",
            "url": "https://haz-map.com/Agents/15755",
            "category": "agents"
          }
        ]
      },
      "comments": {
        "original_name": "Comments",
        "value": "A skin, eye, and respiratory tract irritant; May cause skin sensitization; Can be absorbed through skin; [ICSC] May cause skin sensitization; [HSDB] A skin and eye irritant; [CAMEO] May cause skin sensitization; [eChemPortal: ESIS] May cause irritation; May cause skin and respiratory sensitization after prolonged contact; [MSDSonline] See \"Mercapto mix.\"",
        "links": [],
        "cross_references": [
          {
            "type": "name_match",
            "text": "mercapto mix",
            "confidence": 1.0,
            "uuid": "e69e5a94-c068-42a0-9f2f-83847dab4247",
            "name": "Mercapto mix",
            "url": "https://haz-map.com/Agents/848",
            "category": "agents"
          }
        ]
      },
      "biomedical_references": {
        "original_name": "Biomedical References",
        "value": "Search PubMed",
        "links": [
          {
            "text": "Search PubMed",
            "url": "https://www.ncbi.nlm.nih.gov/pubmed?term=2%2c2%26%2339%3b-Dibenzothiazyl+disulfide%20AND%20human%5Bmh%5D%20AND%20%28Occupational%20Diseases%20%5Bmh%5D%20OR%20Occupational%20Exposure%20%5Bmh%5D%29%20%20AND%20%28tox%5Bsb%5D%29&cmd=search"
          }
        ],
        "cross_references": []
      }
    },
    "exposure_assessment": {
      "vapor_pressure": {
        "original_name": "Vapor Pressure",
        "value": "2.54E-10 mm Hg",
        "links": [],
        "cross_references": []
      }
    },
    "adverse_effects": {
      "skin_sensitizer": {
        "original_name": "Skin Sensitizer",
        "value": "Yes",
        "links": [],
        "cross_references": []
      }
    },
    "diseases_processes_and_activities_linked_to_this_agent": {
      "diseases": {
        "original_name": "Diseases",
        "value": "Occupational diseases associated with exposure to this agent: Contact dermatitis, allergic",
        "links": [
          {
            "text": "Contact dermatitis, allergic",
            "url": "https://haz-map.com/Diseases/18"
          }
        ],
        "cross_references": [
          {
            "type": "url_match",
            "text": "Contact dermatitis, allergic",
            "url": "https://haz-map.com/Diseases/18",
            "confidence": 1.0,
            "uuid": "c9499de0-9aa1-41bf-8753-cd5b28a63e29",
            "name": "Contact dermatitis, allergic",
            "category": "diseases"
          },
          {
            "type": "name_match",
            "text": "dermatitis",
            "confidence": 1.0,
            "uuid": "fe9c05f2-b19f-4ceb-ac7a-ffb7d7a0cae0",
            "name": "dermatitis",
            "url": "https://haz-map.com/Findings/59",
            "category": "findings"
          }
        ]
      },
      "processes": {
        "original_name": "Processes",
        "value": "Industrial Processes with risk of exposure: Metal Machining Photographic Processing Plastic Composites Manufacturing Using Disinfectants or Biocides Working with Glues and Adhesives",
        "links": [
          {
            "text": "Metal Machining",
            "url": "https://haz-map.com/Processes/35"
          },
          {
            "text": "Photographic Processing",
            "url": "https://haz-map.com/Processes/231"
          },
          {
            "text": "Plastic Composites Manufacturing",
            "url": "https://haz-map.com/Processes/222"
          },
          {
            "text": "Using Disinfectants or Biocides",
            "url": "https://haz-map.com/Processes/167"
          },
          {
            "text": "Working with Glues and Adhesives",
            "url": "https://haz-map.com/Processes/155"
          }
        ],
        "cross_references": [
          {
            "type": "url_match",
            "text": "Metal Machining",
            "url": "https://haz-map.com/Processes/35",
            "confidence": 1.0,
            "uuid": "742028ba-ba09-4d7c-bb80-f70af1454300",
            "name": "Metal Machining",
            "category": "processes"
          },
          {
            "type": "url_match",
            "text": "Plastic Composites Manufacturing",
            "url": "https://haz-map.com/Processes/222",
            "confidence": 1.0,
            "uuid": "d4461b82-dc77-4172-8e3d-0a5e3b213911",
            "name": "Plastic Composites Manufacturing",
            "category": "processes"
          },
          {
            "type": "url_match",
            "text": "Using Disinfectants or Biocides",
            "url": "https://haz-map.com/Processes/167",
            "confidence": 1.0,
            "uuid": "7accb745-ad60-4ef8-9039-8ac4febb8fd8",
            "name": "Using Disinfectants or Biocides",
            "category": "processes"
          },
          {
            "type": "url_match",
            "text": "Working with Glues and Adhesives",
            "url": "https://haz-map.com/Processes/155",
            "confidence": 1.0,
            "uuid": "acb9084f-52e8-4687-bd6a-bced94bda834",
            "name": "Working with Glues and Adhesives",
            "category": "processes"
          }
        ]
      }
    }
  },
  "cross_references": [
    {
      "type": "url_match",
      "text": "Contact dermatitis, allergic",
      "url": "https://haz-map.com/Diseases/18",
      "confidence": 1.0,
      "uuid": "c9499de0-9aa1-41bf-8753-cd5b28a63e29",
      "name": "Contact dermatitis, allergic",
      "category": "diseases"
    },
    {
      "type": "url_match",
      "text": "Metal Machining",
      "url": "https://haz-map.com/Processes/35",
      "confidence": 1.0,
      "uuid": "742028ba-ba09-4d7c-bb80-f70af1454300",
      "name": "Metal Machining",
      "category": "processes"
    },
    {
      "type": "url_match",
      "text": "Plastic Composites Manufacturing",
      "url": "https://haz-map.com/Processes/222",
      "confidence": 1.0,
      "uuid": "d4461b82-dc77-4172-8e3d-0a5e3b213911",
      "name": "Plastic Composites Manufacturing",
      "category": "processes"
    },
    {
      "type": "url_match",
      "text": "Using Disinfectants or Biocides",
      "url": "https://haz-map.com/Processes/167",
      "confidence": 1.0,
      "uuid": "7accb745-ad60-4ef8-9039-8ac4febb8fd8",
      "name": "Using Disinfectants or Biocides",
      "category": "processes"
    },
    {
      "type": "url_match",
      "text": "Working with Glues and Adhesives",
      "url": "https://haz-map.com/Processes/155",
      "confidence": 1.0,
      "uuid": "acb9084f-52e8-4687-bd6a-bced94bda834",
      "name": "Working with Glues and Adhesives",
      "category": "processes"
    },
    {
      "type": "name_match",
      "text": "dermatitis",
      "confidence": 1.0,
      "uuid": "fe9c05f2-b19f-4ceb-ac7a-ffb7d7a0cae0",
      "name": "dermatitis",
      "url": "https://haz-map.com/Findings/59",
      "category": "findings"
    },
    {
      "type": "name_match",
      "text": "mercaptobenzothiazole",
      "confidence": 1.0,
      "uuid": "69fdbc1b-da83-4a93-bf41-d6db5fda95a4",
      "name": "Mercaptobenzothiazole",
      "url": "https://haz-map.com/Agents/845",
      "category": "agents"
    },
    {
      "type": "name_match",
      "text": "mercapto mix",
      "confidence": 1.0,
      "uuid": "e69e5a94-c068-42a0-9f2f-83847dab4247",
      "name": "Mercapto mix",
      "url": "https://haz-map.com/Agents/848",
      "category": "agents"
    },
    {
      "type": "name_match",
      "text": "benzothiazole",
      "confidence": 1.0,
      "uuid": "6c7cc5de-c267-4997-9bab-ec67f286b5bb",
      "name": "Benzothiazole",
      "url": "https://haz-map.com/Agents/3866",
      "category": "agents"
    },
    {
      "type": "name_match",
      "text": "2,2'-dibenzothiazyl disulfide",
      "confidence": 1.0,
      "uuid": "67c31828-e846-406d-a04e-adf8f7dc89ec",
      "name": "2,2'-Dibenzothiazyl disulfide",
      "url": "https://haz-map.com/Agents/5028",
      "category": "agents"
    },
    {
      "type": "name_match",
      "text": "polychloroprene",
      "confidence": 1.0,
      "uuid": "32a36595-f24a-4e65-bdea-1f1a8a72e0a8",
      "name": "Polychloroprene",
      "url": "https://haz-map.com/Agents/6748",
      "category": "agents"
    },
    {
      "type": "name_match",
      "text": "bes",
      "confidence": 1.0,
      "uuid": "3074c0ff-c637-46e9-9a00-5b14f02c2d53",
      "name": "BES",
      "url": "https://haz-map.com/Agents/15755",
      "category": "agents"
    },
    {
      "type": "name_match",
      "text": "thiazole",
      "confidence": 1.0,
      "uuid": "239903f2-a226-4a4b-bc83-285f21b9610c",
      "name": "Thiazole",
      "url": "https://haz-map.com/Agents/17380",
      "category": "agents"
    }
  ],
  "all_links": [
    {
      "text": "Search PubMed",
      "url": "https://www.ncbi.nlm.nih.gov/pubmed?term=2%2c2%26%2339%3b-Dibenzothiazyl+disulfide%20AND%20human%5Bmh%5D%20AND%20%28Occupational%20Diseases%20%5Bmh%5D%20OR%20Occupational%20Exposure%20%5Bmh%5D%29%20%20AND%20%28tox%5Bsb%5D%29&cmd=search"
    },
    {
      "text": "Contact dermatitis, allergic",
      "url": "https://haz-map.com/Diseases/18"
    },
    {
      "text": "Metal Machining",
      "url": "https://haz-map.com/Processes/35"
    },
    {
      "text": "Photographic Processing",
      "url": "https://haz-map.com/Processes/231"
    },
    {
      "text": "Plastic Composites Manufacturing",
      "url": "https://haz-map.com/Processes/222"
    },
    {
      "text": "Using Disinfectants or Biocides",
      "url": "https://haz-map.com/Processes/167"
    },
    {
      "text": "Working with Glues and Adhesives",
      "url": "https://haz-map.com/Processes/155"
    }
  ]
}