{
  "metadata": {
    "scraped_from": "https://haz-map.com/Agents/19922",
    "entity_name": "3-Methyl-1-pentyn-3-ol",
    "category": "agents",
    "uuid": "67fccbca-3723-4456-bc04-ed3facca1484",
    "scraped_at": "2025-07-23T22:15:25.591389"
  },
  "parsed_at": "2025-07-24T01:03:22.244164",
  "title": "3-Methyl-1-pentyn-3-ol",
  "sections": {
    "general": {
      "agent_name": {
        "original_name": "Agent Name",
        "value": "3-Methyl-1-pentyn-3-ol",
        "links": [],
        "cross_references": [
          {
            "type": "name_match",
            "text": "3-methyl-1-pentyn-3-ol",
            "confidence": 1.0,
            "uuid": "67fccbca-3723-4456-bc04-ed3facca1484",
            "name": "3-Methyl-1-pentyn-3-ol",
            "url": "https://haz-map.com/Agents/19922",
            "category": "agents"
          }
        ]
      },
      "cas_number": {
        "original_name": "CAS Number",
        "value": "77-75-8",
        "links": [],
        "cross_references": []
      },
      "formula": {
        "original_name": "Formula",
        "value": "C6-H10-O",
        "links": [],
        "cross_references": []
      },
      "major_category": {
        "original_name": "Major Category",
        "value": "Other Classes",
        "links": [],
        "cross_references": []
      },
      "synonyms": {
        "original_name": "Synonyms",
        "value": "2-Butanol, 2-ethynyl-; 2-Ethinylbutanol-2; 2-Ethynyl-2-butanol; 3-Methyl-pentin-(1)-ol-(3) [German]; 3-Methylpent-1-yn-3-ol; 3-Methylpentin-3-ol; 3-Methylpentyn-3-ol; 3-Metil-pentin-3-ol [Italian]; Allotropal; alpha-Ethyl-alpha-methylpropargyl alcohol; Aniphor; Anti-stress; Apridol; Atemorin; Atempol; Citodorm; Comesa; Dalgol; Dormalest; Dormidin; Dormigen; Dormiphen; Dormison; Dormocit; Dormosan; Ethinylmethylethylcarbinol; Ethyl ethynyl methyl carbinol; Formison; Hexofen; Imnudorm; Insomnol; Macarol; Mecarol; Melpintol; Meparfynol; Mepentil; Methylethylacetylenylcarbinol; Methylethylethynylcarbinol; Methylparafynol; Methylpentinol; Methylpentynol; Methylpentynolum [INN-Latin]; Metilparafinolo; Metilpentinol [INN-Spanish]; Metilpentinolo; Metilpentinolo [DCIT]; Miramel; N-Oblivon; Noxokratin; Oblevil; Oblivon; Olfine P; Olosot; Olvadon; Pentadorm; Pentinol; Pentyrest; Perlopal; Riposon; Sedapercut; Seral; Sintyal; Somnesin; Sonnormon; 1-Pentyn-3-ol, 3-methyl-; [ChemIDplus] UN1987",
        "links": [],
        "cross_references": [
          {
            "type": "name_match",
            "text": "propargyl alcohol",
            "confidence": 1.0,
            "uuid": "3d09c39f-98a1-4935-9f5b-743a774a7b60",
            "name": "Propargyl alcohol",
            "url": "https://haz-map.com/Agents/608",
            "category": "agents"
          },
          {
            "type": "name_match",
            "text": "tali",
            "confidence": 1.0,
            "uuid": "8c3a0f99-2143-4122-b539-ec5cc49596b0",
            "name": "Tali",
            "url": "https://haz-map.com/Agents/1128",
            "category": "agents"
          },
          {
            "type": "name_match",
            "text": "morin",
            "confidence": 1.0,
            "uuid": "fce4adcc-4265-4f5f-8f8c-903d2c08f942",
            "name": "Morin",
            "url": "https://haz-map.com/Agents/9933",
            "category": "agents"
          },
          {
            "type": "name_match",
            "text": "tempol",
            "confidence": 1.0,
            "uuid": "48c0f770-65ae-4372-9934-aa37d1c3a463",
            "name": "Tempol",
            "url": "https://haz-map.com/Agents/10525",
            "category": "agents"
          },
          {
            "type": "name_match",
            "text": "tempo",
            "confidence": 1.0,
            "uuid": "55930a45-7786-4f0a-a7e8-bd4064508b68",
            "name": "TEMPO",
            "url": "https://haz-map.com/Agents/17879",
            "category": "agents"
          }
        ]
      },
      "category": {
        "original_name": "Category",
        "value": "Alcohols and Polyols, Other",
        "links": [],
        "cross_references": []
      },
      "description": {
        "original_name": "Description",
        "value": "Liquid with an acrid odor; [Merck Index] Clear slightly yellow liquid; [Acros Organics MSDS]",
        "links": [],
        "cross_references": [
          {
            "type": "name_match",
            "text": "ht",
            "confidence": 1.0,
            "uuid": "764df367-8d53-4a11-81a2-31ccfe122a8d",
            "name": "HT",
            "url": "https://haz-map.com/Agents/2168",
            "category": "agents"
          }
        ]
      },
      "sourcesuses": {
        "original_name": "Sources/Uses",
        "value": "Used as a hypnotic and sedative; [Merck Index] Used as an intermediate; [ECHA REACH Registrations]",
        "links": [],
        "cross_references": []
      },
      "comments": {
        "original_name": "Comments",
        "value": "Causes somnolence and convulsions in subcutaneous lethal-dose studies of mice; [RTECS] May cause serious eye injury; Harmful by ingestion; [ECHA REACH Registrations] May cause irritation and CNS depression; Harmful by ingestion; [Acros Organics MSDS]",
        "links": [],
        "cross_references": [
          {
            "type": "name_match",
            "text": "convulsion",
            "confidence": 1.0,
            "uuid": "af2c36f8-707a-48e3-a62b-1aa07adc9b72",
            "name": "convulsion",
            "url": "https://haz-map.com/Findings/14",
            "category": "findings"
          }
        ]
      },
      "biomedical_references": {
        "original_name": "Biomedical References",
        "value": "Search PubMed",
        "links": [
          {
            "text": "Search PubMed",
            "url": "https://www.ncbi.nlm.nih.gov/pubmed?term=3-Methyl-1-pentyn-3-ol%20AND%20human%5Bmh%5D%20AND%20%28Occupational%20Diseases%20%5Bmh%5D%20OR%20Occupational%20Exposure%20%5Bmh%5D%29%20%20AND%20%28tox%5Bsb%5D%29&cmd=search"
          }
        ],
        "cross_references": []
      }
    },
    "exposure_assessment": {
      "vapor_pressure": {
        "original_name": "Vapor Pressure",
        "value": "5.25 mm Hg",
        "links": [],
        "cross_references": []
      },
      "explanatory_notes": {
        "original_name": "Explanatory Notes",
        "value": "The Guide in the Emergency Response Guidebook is for \"Alcohols, n.o.s.\"",
        "links": [],
        "cross_references": []
      },
      "nfpa": {
        "original_name": "NFPA",
        "value": "high ambient temp required",
        "links": [],
        "cross_references": []
      }
    },
    "adverse_effects": {
      "neurotoxin": {
        "original_name": "Neurotoxin",
        "value": "Acute solvent syndrome",
        "links": [],
        "cross_references": []
      }
    },
    "diseases_processes_and_activities_linked_to_this_agent": {
      "diseases": {
        "original_name": "Diseases",
        "value": "Occupational diseases associated with exposure to this agent: Solvents, acute toxic effect",
        "links": [
          {
            "text": "Solvents, acute toxic effect",
            "url": "https://haz-map.com/Diseases/326"
          }
        ],
        "cross_references": [
          {
            "type": "url_match",
            "text": "Solvents, acute toxic effect",
            "url": "https://haz-map.com/Diseases/326",
            "confidence": 1.0,
            "uuid": "581e90e3-9d0c-45f0-aa6c-3468c28da129",
            "name": "Solvents, acute toxic effect",
            "category": "diseases"
          }
        ]
      }
    }
  },
  "cross_references": [
    {
      "type": "url_match",
      "text": "Solvents, acute toxic effect",
      "url": "https://haz-map.com/Diseases/326",
      "confidence": 1.0,
      "uuid": "581e90e3-9d0c-45f0-aa6c-3468c28da129",
      "name": "Solvents, acute toxic effect",
      "category": "diseases"
    },
    {
      "type": "name_match",
      "text": "convulsion",
      "confidence": 1.0,
      "uuid": "af2c36f8-707a-48e3-a62b-1aa07adc9b72",
      "name": "convulsion",
      "url": "https://haz-map.com/Findings/14",
      "category": "findings"
    },
    {
      "type": "name_match",
      "text": "propargyl alcohol",
      "confidence": 1.0,
      "uuid": "3d09c39f-98a1-4935-9f5b-743a774a7b60",
      "name": "Propargyl alcohol",
      "url": "https://haz-map.com/Agents/608",
      "category": "agents"
    },
    {
      "type": "name_match",
      "text": "tali",
      "confidence": 1.0,
      "uuid": "8c3a0f99-2143-4122-b539-ec5cc49596b0",
      "name": "Tali",
      "url": "https://haz-map.com/Agents/1128",
      "category": "agents"
    },
    {
      "type": "name_match",
      "text": "ht",
      "confidence": 1.0,
      "uuid": "764df367-8d53-4a11-81a2-31ccfe122a8d",
      "name": "HT",
      "url": "https://haz-map.com/Agents/2168",
      "category": "agents"
    },
    {
      "type": "name_match",
      "text": "morin",
      "confidence": 1.0,
      "uuid": "fce4adcc-4265-4f5f-8f8c-903d2c08f942",
      "name": "Morin",
      "url": "https://haz-map.com/Agents/9933",
      "category": "agents"
    },
    {
      "type": "name_match",
      "text": "tempol",
      "confidence": 1.0,
      "uuid": "48c0f770-65ae-4372-9934-aa37d1c3a463",
      "name": "Tempol",
      "url": "https://haz-map.com/Agents/10525",
      "category": "agents"
    },
    {
      "type": "name_match",
      "text": "tempo",
      "confidence": 1.0,
      "uuid": "55930a45-7786-4f0a-a7e8-bd4064508b68",
      "name": "TEMPO",
      "url": "https://haz-map.com/Agents/17879",
      "category": "agents"
    },
    {
      "type": "name_match",
      "text": "3-methyl-1-pentyn-3-ol",
      "confidence": 1.0,
      "uuid": "67fccbca-3723-4456-bc04-ed3facca1484",
      "name": "3-Methyl-1-pentyn-3-ol",
      "url": "https://haz-map.com/Agents/19922",
      "category": "agents"
    }
  ],
  "all_links": [
    {
      "text": "Search PubMed",
      "url": "https://www.ncbi.nlm.nih.gov/pubmed?term=3-Methyl-1-pentyn-3-ol%20AND%20human%5Bmh%5D%20AND%20%28Occupational%20Diseases%20%5Bmh%5D%20OR%20Occupational%20Exposure%20%5Bmh%5D%29%20%20AND%20%28tox%5Bsb%5D%29&cmd=search"
    },
    {
      "text": "Solvents, acute toxic effect",
      "url": "https://haz-map.com/Diseases/326"
    }
  ]
}