{
  "metadata": {
    "scraped_from": "https://haz-map.com/Agents/21478",
    "entity_name": "Phorone",
    "category": "agents",
    "uuid": "6837b4a0-f73c-43aa-baad-d360d59492e2",
    "scraped_at": "2025-07-23T22:44:44.307737"
  },
  "parsed_at": "2025-07-24T01:13:59.559501",
  "title": "Phorone",
  "sections": {
    "general": {
      "agent_name": {
        "original_name": "Agent Name",
        "value": "Phorone",
        "links": [],
        "cross_references": [
          {
            "type": "name_match",
            "text": "phorone",
            "confidence": 1.0,
            "uuid": "6837b4a0-f73c-43aa-baad-d360d59492e2",
            "name": "Phorone",
            "url": "https://haz-map.com/Agents/21478",
            "category": "agents"
          }
        ]
      },
      "cas_number": {
        "original_name": "CAS Number",
        "value": "504-20-1",
        "links": [],
        "cross_references": []
      },
      "formula": {
        "original_name": "Formula",
        "value": "C9-H14-O",
        "links": [],
        "cross_references": []
      },
      "major_category": {
        "original_name": "Major Category",
        "value": "Other Classes",
        "links": [],
        "cross_references": []
      },
      "synonyms": {
        "original_name": "Synonyms",
        "value": "2,6-Dimethyl-2,5-heptadien-4-one; Diisobutenyl ketone; Diisopropylidene acetone; Foron; Phoron [German]; 2,5-Heptadien-4-one, 2,6-dimethyl-; 2,6-Dimethylhepta-2,5-dien-4-one; [ChemIDplus] sym-Diisopropylidene acetone; [CAMEO] UN1993",
        "links": [],
        "cross_references": [
          {
            "type": "name_match",
            "text": "acetone",
            "confidence": 1.0,
            "uuid": "31b7bdae-eb37-44cc-9c56-b6dfc1908d64",
            "name": "Acetone",
            "url": "https://haz-map.com/Agents/138",
            "category": "agents"
          }
        ]
      },
      "category": {
        "original_name": "Category",
        "value": "Aliphatic Ketones, Other",
        "links": [],
        "cross_references": []
      },
      "description": {
        "original_name": "Description",
        "value": "Yellow liquid or yellowish-green solid; mp = 28 deg C; [Merck Index] Clear dark yellow liquid; mp = 23-26 deg C; [Sigma-Aldrich MSDS]",
        "links": [],
        "cross_references": []
      },
      "sourcesuses": {
        "original_name": "Sources/Uses",
        "value": "\"An industrial solvent.\" [ChemIDplus] Used as a solvent for lacquers and coatings; [CAMEO]",
        "links": [],
        "cross_references": []
      },
      "comments": {
        "original_name": "Comments",
        "value": "Causes diffuse hepatitis, other liver changes, and effects on proteins, transaminases, and mitochondrial function in acute intraperitoneal studies of rats; [RTECS] No listed effects of short-term or long-term exposure; Contact with skin or eyes may cause redness and pain; Inhalation may cause cough, shortness of breath, and sore throat; [ICSC]",
        "links": [],
        "cross_references": [
          {
            "type": "name_match",
            "text": "cough",
            "confidence": 1.0,
            "uuid": "c18f3d8e-9c2e-4cef-ace6-8008147b34b1",
            "name": "cough",
            "url": "https://haz-map.com/Findings/4",
            "category": "findings"
          }
        ]
      },
      "biomedical_references": {
        "original_name": "Biomedical References",
        "value": "Search PubMed",
        "links": [
          {
            "text": "Search PubMed",
            "url": "https://www.ncbi.nlm.nih.gov/pubmed?term=Phorone%20AND%20human%5Bmh%5D%20AND%20%28Occupational%20Diseases%20%5Bmh%5D%20OR%20Occupational%20Exposure%20%5Bmh%5D%29%20%20AND%20%28tox%5Bsb%5D%29&cmd=search"
          }
        ],
        "cross_references": []
      }
    },
    "exposure_assessment": {
      "vapor_pressure": {
        "original_name": "Vapor Pressure",
        "value": "0.38 mm Hg",
        "links": [],
        "cross_references": []
      },
      "explanatory_notes": {
        "original_name": "Explanatory Notes",
        "value": "The Guide in the Emergency Response Guidebook is for \"Combustible liquid, n.o.s.\"",
        "links": [],
        "cross_references": []
      },
      "nfpa": {
        "original_name": "NFPA",
        "value": "high ambient temp required",
        "links": [],
        "cross_references": []
      }
    },
    "adverse_effects": {
      "hepatotoxin": {
        "original_name": "Hepatotoxin",
        "value": "Hepatoxic (a) from occupational exposure (secondary effect) or (b) in animal studies or in humans after ingestion",
        "links": [],
        "cross_references": []
      }
    },
    "diseases_processes_and_activities_linked_to_this_agent": {
      "processes": {
        "original_name": "Processes",
        "value": "Industrial Processes with risk of exposure: Painting (Solvents)",
        "links": [
          {
            "text": "Painting (Solvents)",
            "url": "https://haz-map.com/Processes/142"
          }
        ],
        "cross_references": [
          {
            "type": "url_match",
            "text": "Painting (Solvents)",
            "url": "https://haz-map.com/Processes/142",
            "confidence": 1.0,
            "uuid": "ca747481-4da1-4550-a546-f0d43a41b46c",
            "name": "Painting (Solvents)",
            "category": "processes"
          },
          {
            "type": "name_match",
            "text": "painting",
            "confidence": 1.0,
            "uuid": "19816ce9-9edf-4a86-8e64-b0cbf7dcf520",
            "name": "Painting",
            "url": "https://haz-map.com/Activities/9",
            "category": "activities"
          }
        ]
      }
    }
  },
  "cross_references": [
    {
      "type": "url_match",
      "text": "Painting (Solvents)",
      "url": "https://haz-map.com/Processes/142",
      "confidence": 1.0,
      "uuid": "ca747481-4da1-4550-a546-f0d43a41b46c",
      "name": "Painting (Solvents)",
      "category": "processes"
    },
    {
      "type": "name_match",
      "text": "painting",
      "confidence": 1.0,
      "uuid": "19816ce9-9edf-4a86-8e64-b0cbf7dcf520",
      "name": "Painting",
      "url": "https://haz-map.com/Activities/9",
      "category": "activities"
    },
    {
      "type": "name_match",
      "text": "cough",
      "confidence": 1.0,
      "uuid": "c18f3d8e-9c2e-4cef-ace6-8008147b34b1",
      "name": "cough",
      "url": "https://haz-map.com/Findings/4",
      "category": "findings"
    },
    {
      "type": "name_match",
      "text": "acetone",
      "confidence": 1.0,
      "uuid": "31b7bdae-eb37-44cc-9c56-b6dfc1908d64",
      "name": "Acetone",
      "url": "https://haz-map.com/Agents/138",
      "category": "agents"
    },
    {
      "type": "name_match",
      "text": "phorone",
      "confidence": 1.0,
      "uuid": "6837b4a0-f73c-43aa-baad-d360d59492e2",
      "name": "Phorone",
      "url": "https://haz-map.com/Agents/21478",
      "category": "agents"
    }
  ],
  "all_links": [
    {
      "text": "Search PubMed",
      "url": "https://www.ncbi.nlm.nih.gov/pubmed?term=Phorone%20AND%20human%5Bmh%5D%20AND%20%28Occupational%20Diseases%20%5Bmh%5D%20OR%20Occupational%20Exposure%20%5Bmh%5D%29%20%20AND%20%28tox%5Bsb%5D%29&cmd=search"
    },
    {
      "text": "Painting (Solvents)",
      "url": "https://haz-map.com/Processes/142"
    }
  ]
}