{
  "metadata": {
    "scraped_from": "https://haz-map.com/Agents/7226",
    "entity_name": "beta-Methyl styrene",
    "category": "agents",
    "uuid": "685179d4-09b9-4792-b1f0-1476d024dfd0",
    "scraped_at": "2025-07-23T20:10:35.497844"
  },
  "parsed_at": "2025-07-24T01:10:42.623386",
  "title": "beta-Methyl styrene",
  "sections": {
    "general": {
      "agent_name": {
        "original_name": "Agent Name",
        "value": "beta-Methyl styrene",
        "links": [],
        "cross_references": [
          {
            "type": "name_match",
            "text": "styrene",
            "confidence": 1.0,
            "uuid": "03c5632f-5079-4688-82bd-0dacf3d0d36a",
            "name": "Styrene",
            "url": "https://haz-map.com/Agents/32",
            "category": "agents"
          },
          {
            "type": "name_match",
            "text": "beta-methyl styrene",
            "confidence": 1.0,
            "uuid": "685179d4-09b9-4792-b1f0-1476d024dfd0",
            "name": "beta-Methyl styrene",
            "url": "https://haz-map.com/Agents/7226",
            "category": "agents"
          }
        ]
      },
      "cas_number": {
        "original_name": "CAS Number",
        "value": "637-50-3",
        "links": [],
        "cross_references": []
      },
      "formula": {
        "original_name": "Formula",
        "value": "C9-H10",
        "links": [],
        "cross_references": []
      },
      "major_category": {
        "original_name": "Major Category",
        "value": "Plastics & Rubber",
        "links": [],
        "cross_references": []
      },
      "synonyms": {
        "original_name": "Synonyms",
        "value": "1-Phenyl-1-propene; 1-Phenylpropene; 1-Propene, 1-phenyl-; 1-Propenylbenzene; Benzene, propenyl-; Isoallylbenzene; Propenyl benzene; Propenylbenzene; beta-Methylstyrene; beta-Methylstyrol; [ChemIDplus]",
        "links": [],
        "cross_references": [
          {
            "type": "name_match",
            "text": "benzene",
            "confidence": 1.0,
            "uuid": "b05124de-5f34-4c14-8f04-ccb20c3780d9",
            "name": "Benzene",
            "url": "https://haz-map.com/Agents/5",
            "category": "agents"
          },
          {
            "type": "name_match",
            "text": "styrene",
            "confidence": 1.0,
            "uuid": "03c5632f-5079-4688-82bd-0dacf3d0d36a",
            "name": "Styrene",
            "url": "https://haz-map.com/Agents/32",
            "category": "agents"
          },
          {
            "type": "name_match",
            "text": "allylbenzene",
            "confidence": 1.0,
            "uuid": "b007b983-fc24-44de-abf2-227c514f1069",
            "name": "Allylbenzene",
            "url": "https://haz-map.com/Agents/9700",
            "category": "agents"
          }
        ]
      },
      "category": {
        "original_name": "Category",
        "value": "Styrenes",
        "links": [],
        "cross_references": [
          {
            "type": "name_match",
            "text": "styrene",
            "confidence": 1.0,
            "uuid": "03c5632f-5079-4688-82bd-0dacf3d0d36a",
            "name": "Styrene",
            "url": "https://haz-map.com/Agents/32",
            "category": "agents"
          }
        ]
      },
      "description": {
        "original_name": "Description",
        "value": "Clear faintly yellow liquid; Stabilized with 0.01% butylated hydroxytoluene; [MSDSonline]",
        "links": [],
        "cross_references": [
          {
            "type": "name_match",
            "text": "toluene",
            "confidence": 1.0,
            "uuid": "0a34d5de-e924-4c47-aff5-7ae8e48c6772",
            "name": "Toluene",
            "url": "https://haz-map.com/Agents/83",
            "category": "agents"
          },
          {
            "type": "name_match",
            "text": "butylated hydroxytoluene",
            "confidence": 1.0,
            "uuid": "30b3b14d-abf5-4589-a525-777c122abd63",
            "name": "Butylated hydroxytoluene",
            "url": "https://haz-map.com/Agents/393",
            "category": "agents"
          },
          {
            "type": "name_match",
            "text": "butylate",
            "confidence": 1.0,
            "uuid": "b12d0560-252c-45cd-b876-db833a25c2a7",
            "name": "Butylate",
            "url": "https://haz-map.com/Agents/4040",
            "category": "agents"
          }
        ]
      },
      "sourcesuses": {
        "original_name": "Sources/Uses",
        "value": "An impurity of alpha-methylstyrene; [HSDB]",
        "links": [],
        "cross_references": [
          {
            "type": "name_match",
            "text": "styrene",
            "confidence": 1.0,
            "uuid": "03c5632f-5079-4688-82bd-0dacf3d0d36a",
            "name": "Styrene",
            "url": "https://haz-map.com/Agents/32",
            "category": "agents"
          }
        ]
      },
      "comments": {
        "original_name": "Comments",
        "value": "An irritant; [MSDSonline] See \"alpha-Methyl styrene.\"",
        "links": [],
        "cross_references": [
          {
            "type": "name_match",
            "text": "styrene",
            "confidence": 1.0,
            "uuid": "03c5632f-5079-4688-82bd-0dacf3d0d36a",
            "name": "Styrene",
            "url": "https://haz-map.com/Agents/32",
            "category": "agents"
          },
          {
            "type": "name_match",
            "text": "alpha-methyl styrene",
            "confidence": 1.0,
            "uuid": "bc083844-a403-4827-9ee5-8b7e5b3715e9",
            "name": "alpha-Methyl styrene",
            "url": "https://haz-map.com/Agents/556",
            "category": "agents"
          }
        ]
      },
      "biomedical_references": {
        "original_name": "Biomedical References",
        "value": "Search PubMed",
        "links": [
          {
            "text": "Search PubMed",
            "url": "https://www.ncbi.nlm.nih.gov/pubmed?term=beta-Methyl+styrene%20AND%20human%5Bmh%5D%20AND%20%28Occupational%20Diseases%20%5Bmh%5D%20OR%20Occupational%20Exposure%20%5Bmh%5D%29%20%20AND%20%28tox%5Bsb%5D%29&cmd=search"
          }
        ],
        "cross_references": []
      }
    },
    "exposure_assessment": {
      "vapor_pressure": {
        "original_name": "Vapor Pressure",
        "value": "0.97 mm Hg",
        "links": [],
        "cross_references": []
      },
      "explanatory_notes": {
        "original_name": "Explanatory Notes",
        "value": "VP from ChemIDplus;",
        "links": [],
        "cross_references": []
      }
    },
    "adverse_effects": {
      "neurotoxin": {
        "original_name": "Neurotoxin",
        "value": "Acute solvent syndrome",
        "links": [],
        "cross_references": []
      }
    },
    "diseases_processes_and_activities_linked_to_this_agent": {
      "diseases": {
        "original_name": "Diseases",
        "value": "Occupational diseases associated with exposure to this agent: Solvents, acute toxic effect",
        "links": [
          {
            "text": "Solvents, acute toxic effect",
            "url": "https://haz-map.com/Diseases/326"
          }
        ],
        "cross_references": [
          {
            "type": "url_match",
            "text": "Solvents, acute toxic effect",
            "url": "https://haz-map.com/Diseases/326",
            "confidence": 1.0,
            "uuid": "581e90e3-9d0c-45f0-aa6c-3468c28da129",
            "name": "Solvents, acute toxic effect",
            "category": "diseases"
          }
        ]
      }
    }
  },
  "cross_references": [
    {
      "type": "url_match",
      "text": "Solvents, acute toxic effect",
      "url": "https://haz-map.com/Diseases/326",
      "confidence": 1.0,
      "uuid": "581e90e3-9d0c-45f0-aa6c-3468c28da129",
      "name": "Solvents, acute toxic effect",
      "category": "diseases"
    },
    {
      "type": "name_match",
      "text": "benzene",
      "confidence": 1.0,
      "uuid": "b05124de-5f34-4c14-8f04-ccb20c3780d9",
      "name": "Benzene",
      "url": "https://haz-map.com/Agents/5",
      "category": "agents"
    },
    {
      "type": "name_match",
      "text": "styrene",
      "confidence": 1.0,
      "uuid": "03c5632f-5079-4688-82bd-0dacf3d0d36a",
      "name": "Styrene",
      "url": "https://haz-map.com/Agents/32",
      "category": "agents"
    },
    {
      "type": "name_match",
      "text": "toluene",
      "confidence": 1.0,
      "uuid": "0a34d5de-e924-4c47-aff5-7ae8e48c6772",
      "name": "Toluene",
      "url": "https://haz-map.com/Agents/83",
      "category": "agents"
    },
    {
      "type": "name_match",
      "text": "butylated hydroxytoluene",
      "confidence": 1.0,
      "uuid": "30b3b14d-abf5-4589-a525-777c122abd63",
      "name": "Butylated hydroxytoluene",
      "url": "https://haz-map.com/Agents/393",
      "category": "agents"
    },
    {
      "type": "name_match",
      "text": "alpha-methyl styrene",
      "confidence": 1.0,
      "uuid": "bc083844-a403-4827-9ee5-8b7e5b3715e9",
      "name": "alpha-Methyl styrene",
      "url": "https://haz-map.com/Agents/556",
      "category": "agents"
    },
    {
      "type": "name_match",
      "text": "butylate",
      "confidence": 1.0,
      "uuid": "b12d0560-252c-45cd-b876-db833a25c2a7",
      "name": "Butylate",
      "url": "https://haz-map.com/Agents/4040",
      "category": "agents"
    },
    {
      "type": "name_match",
      "text": "beta-methyl styrene",
      "confidence": 1.0,
      "uuid": "685179d4-09b9-4792-b1f0-1476d024dfd0",
      "name": "beta-Methyl styrene",
      "url": "https://haz-map.com/Agents/7226",
      "category": "agents"
    },
    {
      "type": "name_match",
      "text": "allylbenzene",
      "confidence": 1.0,
      "uuid": "b007b983-fc24-44de-abf2-227c514f1069",
      "name": "Allylbenzene",
      "url": "https://haz-map.com/Agents/9700",
      "category": "agents"
    }
  ],
  "all_links": [
    {
      "text": "Search PubMed",
      "url": "https://www.ncbi.nlm.nih.gov/pubmed?term=beta-Methyl+styrene%20AND%20human%5Bmh%5D%20AND%20%28Occupational%20Diseases%20%5Bmh%5D%20OR%20Occupational%20Exposure%20%5Bmh%5D%29%20%20AND%20%28tox%5Bsb%5D%29&cmd=search"
    },
    {
      "text": "Solvents, acute toxic effect",
      "url": "https://haz-map.com/Diseases/326"
    }
  ]
}