{
  "metadata": {
    "scraped_from": "https://haz-map.com/Agents/3934",
    "entity_name": "Tetramethylthiuram monosulfide",
    "category": "agents",
    "uuid": "68581b6b-ed7b-4e8a-83cd-277f37fbfd04",
    "scraped_at": "2025-07-23T19:34:49.919721"
  },
  "parsed_at": "2025-07-24T01:08:06.942175",
  "title": "Tetramethylthiuram monosulfide",
  "sections": {
    "general": {
      "agent_name": {
        "original_name": "Agent Name",
        "value": "Tetramethylthiuram monosulfide",
        "links": [],
        "cross_references": [
          {
            "type": "name_match",
            "text": "tetramethylthiuram monosulfide",
            "confidence": 1.0,
            "uuid": "68581b6b-ed7b-4e8a-83cd-277f37fbfd04",
            "name": "Tetramethylthiuram monosulfide",
            "url": "https://haz-map.com/Agents/3934",
            "category": "agents"
          }
        ]
      },
      "alternative_name": {
        "original_name": "Alternative Name",
        "value": "TMTM",
        "links": [],
        "cross_references": []
      },
      "cas_number": {
        "original_name": "CAS Number",
        "value": "97-74-5",
        "links": [],
        "cross_references": []
      },
      "formula": {
        "original_name": "Formula",
        "value": "C6-H12-N2-S3",
        "links": [],
        "cross_references": []
      },
      "major_category": {
        "original_name": "Major Category",
        "value": "Plastics & Rubber",
        "links": [],
        "cross_references": []
      },
      "synonyms": {
        "original_name": "Synonyms",
        "value": "Aceto TMTM; Bis(dimethylthiocarbamoyl)sulfide; CP 2113; Carbamic acid, dimethyldithio-, anhydrosulfide; Carbamic anhydride, tetramethyltrithio-; Carbamodithioic acid, dimethyl-, anhydrosulfide; Cyuram MS; Ekagom TM; Formamide, 1,1'-thiobis(N,N-dimethylthio-; Mono-thiurad; Monosulfure de tetramethylthiurame [French]; Monothiuram; N,N,N',N'-Tetramethylthiuram monosulfide; Pennac MS; Sulfide, bis((dimethylamino)thioxomethyl); TMTM; TMTMS; Tetramethyldithiocarbamic acid anhydrosulfide; Tetramethylthiuram sulfide; Tetramethylthiuramide sulfide; Tetramethylthiurammonium sulfide; Tetramethylthiuramonosulfide; Thiuram MM; Thiuram monosulfide, tetramethyl-; Unads; Vulkacit MS; Vulkacit Thiuram MS; Vulkacit thiuram MS/C; [ChemIDplus]",
        "links": [],
        "cross_references": [
          {
            "type": "name_match",
            "text": "formamide",
            "confidence": 1.0,
            "uuid": "70c12f11-5fdc-417f-a614-4b4de0f81d0b",
            "name": "Formamide",
            "url": "https://haz-map.com/Agents/496",
            "category": "agents"
          },
          {
            "type": "name_match",
            "text": "sulfur",
            "confidence": 1.0,
            "uuid": "5aabdef6-71c8-44c8-b762-feaabff50696",
            "name": "Sulfur",
            "url": "https://haz-map.com/Agents/1942",
            "category": "agents"
          },
          {
            "type": "name_match",
            "text": "tetramethylthiuram monosulfide",
            "confidence": 1.0,
            "uuid": "68581b6b-ed7b-4e8a-83cd-277f37fbfd04",
            "name": "Tetramethylthiuram monosulfide",
            "url": "https://haz-map.com/Agents/3934",
            "category": "agents"
          },
          {
            "type": "name_match",
            "text": "ammonium sulfide",
            "confidence": 1.0,
            "uuid": "0af75147-f9dd-416a-9c70-678dc68d9a5c",
            "name": "Ammonium sulfide",
            "url": "https://haz-map.com/Agents/4718",
            "category": "agents"
          }
        ]
      },
      "category": {
        "original_name": "Category",
        "value": "Rubber Additives",
        "links": [],
        "cross_references": []
      },
      "description": {
        "original_name": "Description",
        "value": "Yellow solid; [Hawley] Yellow powder; [MSDSonline]",
        "links": [],
        "cross_references": []
      },
      "sourcesuses": {
        "original_name": "Sources/Uses",
        "value": "Used as a rubber accelerator and in fungicides and insecticides; [Hawley]",
        "links": [],
        "cross_references": [
          {
            "type": "name_match",
            "text": "fungicides",
            "confidence": 1.0,
            "uuid": "f4a9c1e1-4d57-4480-be97-d3590d38ce39",
            "name": "FUNGICIDES",
            "url": "https://haz-map.com/Agents/763",
            "category": "agents"
          },
          {
            "type": "name_match",
            "text": "fungi",
            "confidence": 1.0,
            "uuid": "e0d489cb-bfee-4aee-b665-999c017268a2",
            "name": "Fungi",
            "url": "https://haz-map.com/Agents/1988",
            "category": "agents"
          }
        ]
      },
      "comments": {
        "original_name": "Comments",
        "value": "A skin sensitizer, based on human patch test studies; [HSDB] May cause skin sensitization; [eChemPortal: ERMA] May cause irritation; [MSDSonline] See \"Thiuram mix.\"",
        "links": [],
        "cross_references": [
          {
            "type": "name_match",
            "text": "thiuram mix",
            "confidence": 1.0,
            "uuid": "44a9f176-dc8a-46e5-854a-0397ffc1dcf5",
            "name": "Thiuram mix",
            "url": "https://haz-map.com/Agents/844",
            "category": "agents"
          }
        ]
      },
      "biomedical_references": {
        "original_name": "Biomedical References",
        "value": "Search PubMed",
        "links": [
          {
            "text": "Search PubMed",
            "url": "https://www.ncbi.nlm.nih.gov/pubmed?term=Tetramethylthiuram+monosulfide%20AND%20human%5Bmh%5D%20AND%20%28Occupational%20Diseases%20%5Bmh%5D%20OR%20Occupational%20Exposure%20%5Bmh%5D%29%20%20AND%20%28tox%5Bsb%5D%29&cmd=search"
          }
        ],
        "cross_references": []
      }
    },
    "exposure_assessment": {
      "vapor_pressure": {
        "original_name": "Vapor Pressure",
        "value": "0.00027 mm Hg",
        "links": [],
        "cross_references": []
      }
    },
    "adverse_effects": {
      "skin_sensitizer": {
        "original_name": "Skin Sensitizer",
        "value": "Yes",
        "links": [],
        "cross_references": []
      }
    },
    "diseases_processes_and_activities_linked_to_this_agent": {
      "diseases": {
        "original_name": "Diseases",
        "value": "Occupational diseases associated with exposure to this agent: Contact dermatitis, allergic",
        "links": [
          {
            "text": "Contact dermatitis, allergic",
            "url": "https://haz-map.com/Diseases/18"
          }
        ],
        "cross_references": [
          {
            "type": "url_match",
            "text": "Contact dermatitis, allergic",
            "url": "https://haz-map.com/Diseases/18",
            "confidence": 1.0,
            "uuid": "c9499de0-9aa1-41bf-8753-cd5b28a63e29",
            "name": "Contact dermatitis, allergic",
            "category": "diseases"
          },
          {
            "type": "name_match",
            "text": "dermatitis",
            "confidence": 1.0,
            "uuid": "fe9c05f2-b19f-4ceb-ac7a-ffb7d7a0cae0",
            "name": "dermatitis",
            "url": "https://haz-map.com/Findings/59",
            "category": "findings"
          }
        ]
      },
      "processes": {
        "original_name": "Processes",
        "value": "Industrial Processes with risk of exposure: Dressing Hair Farming (Pesticides) Using Disinfectants or Biocides Working with Glues and Adhesives",
        "links": [
          {
            "text": "Dressing Hair",
            "url": "https://haz-map.com/Processes/258"
          },
          {
            "text": "Farming (Pesticides)",
            "url": "https://haz-map.com/Processes/218"
          },
          {
            "text": "Using Disinfectants or Biocides",
            "url": "https://haz-map.com/Processes/167"
          },
          {
            "text": "Working with Glues and Adhesives",
            "url": "https://haz-map.com/Processes/155"
          }
        ],
        "cross_references": [
          {
            "type": "url_match",
            "text": "Farming (Pesticides)",
            "url": "https://haz-map.com/Processes/218",
            "confidence": 1.0,
            "uuid": "cf1e5815-c9bb-4917-82a5-391848170b7e",
            "name": "Farming (Pesticides)",
            "category": "processes"
          },
          {
            "type": "url_match",
            "text": "Using Disinfectants or Biocides",
            "url": "https://haz-map.com/Processes/167",
            "confidence": 1.0,
            "uuid": "7accb745-ad60-4ef8-9039-8ac4febb8fd8",
            "name": "Using Disinfectants or Biocides",
            "category": "processes"
          },
          {
            "type": "url_match",
            "text": "Working with Glues and Adhesives",
            "url": "https://haz-map.com/Processes/155",
            "confidence": 1.0,
            "uuid": "acb9084f-52e8-4687-bd6a-bced94bda834",
            "name": "Working with Glues and Adhesives",
            "category": "processes"
          }
        ]
      }
    }
  },
  "cross_references": [
    {
      "type": "url_match",
      "text": "Contact dermatitis, allergic",
      "url": "https://haz-map.com/Diseases/18",
      "confidence": 1.0,
      "uuid": "c9499de0-9aa1-41bf-8753-cd5b28a63e29",
      "name": "Contact dermatitis, allergic",
      "category": "diseases"
    },
    {
      "type": "url_match",
      "text": "Farming (Pesticides)",
      "url": "https://haz-map.com/Processes/218",
      "confidence": 1.0,
      "uuid": "cf1e5815-c9bb-4917-82a5-391848170b7e",
      "name": "Farming (Pesticides)",
      "category": "processes"
    },
    {
      "type": "url_match",
      "text": "Using Disinfectants or Biocides",
      "url": "https://haz-map.com/Processes/167",
      "confidence": 1.0,
      "uuid": "7accb745-ad60-4ef8-9039-8ac4febb8fd8",
      "name": "Using Disinfectants or Biocides",
      "category": "processes"
    },
    {
      "type": "url_match",
      "text": "Working with Glues and Adhesives",
      "url": "https://haz-map.com/Processes/155",
      "confidence": 1.0,
      "uuid": "acb9084f-52e8-4687-bd6a-bced94bda834",
      "name": "Working with Glues and Adhesives",
      "category": "processes"
    },
    {
      "type": "name_match",
      "text": "dermatitis",
      "confidence": 1.0,
      "uuid": "fe9c05f2-b19f-4ceb-ac7a-ffb7d7a0cae0",
      "name": "dermatitis",
      "url": "https://haz-map.com/Findings/59",
      "category": "findings"
    },
    {
      "type": "name_match",
      "text": "formamide",
      "confidence": 1.0,
      "uuid": "70c12f11-5fdc-417f-a614-4b4de0f81d0b",
      "name": "Formamide",
      "url": "https://haz-map.com/Agents/496",
      "category": "agents"
    },
    {
      "type": "name_match",
      "text": "fungicides",
      "confidence": 1.0,
      "uuid": "f4a9c1e1-4d57-4480-be97-d3590d38ce39",
      "name": "FUNGICIDES",
      "url": "https://haz-map.com/Agents/763",
      "category": "agents"
    },
    {
      "type": "name_match",
      "text": "thiuram mix",
      "confidence": 1.0,
      "uuid": "44a9f176-dc8a-46e5-854a-0397ffc1dcf5",
      "name": "Thiuram mix",
      "url": "https://haz-map.com/Agents/844",
      "category": "agents"
    },
    {
      "type": "name_match",
      "text": "sulfur",
      "confidence": 1.0,
      "uuid": "5aabdef6-71c8-44c8-b762-feaabff50696",
      "name": "Sulfur",
      "url": "https://haz-map.com/Agents/1942",
      "category": "agents"
    },
    {
      "type": "name_match",
      "text": "fungi",
      "confidence": 1.0,
      "uuid": "e0d489cb-bfee-4aee-b665-999c017268a2",
      "name": "Fungi",
      "url": "https://haz-map.com/Agents/1988",
      "category": "agents"
    },
    {
      "type": "name_match",
      "text": "tetramethylthiuram monosulfide",
      "confidence": 1.0,
      "uuid": "68581b6b-ed7b-4e8a-83cd-277f37fbfd04",
      "name": "Tetramethylthiuram monosulfide",
      "url": "https://haz-map.com/Agents/3934",
      "category": "agents"
    },
    {
      "type": "name_match",
      "text": "ammonium sulfide",
      "confidence": 1.0,
      "uuid": "0af75147-f9dd-416a-9c70-678dc68d9a5c",
      "name": "Ammonium sulfide",
      "url": "https://haz-map.com/Agents/4718",
      "category": "agents"
    }
  ],
  "all_links": [
    {
      "text": "Search PubMed",
      "url": "https://www.ncbi.nlm.nih.gov/pubmed?term=Tetramethylthiuram+monosulfide%20AND%20human%5Bmh%5D%20AND%20%28Occupational%20Diseases%20%5Bmh%5D%20OR%20Occupational%20Exposure%20%5Bmh%5D%29%20%20AND%20%28tox%5Bsb%5D%29&cmd=search"
    },
    {
      "text": "Contact dermatitis, allergic",
      "url": "https://haz-map.com/Diseases/18"
    },
    {
      "text": "Dressing Hair",
      "url": "https://haz-map.com/Processes/258"
    },
    {
      "text": "Farming (Pesticides)",
      "url": "https://haz-map.com/Processes/218"
    },
    {
      "text": "Using Disinfectants or Biocides",
      "url": "https://haz-map.com/Processes/167"
    },
    {
      "text": "Working with Glues and Adhesives",
      "url": "https://haz-map.com/Processes/155"
    }
  ]
}