{
  "metadata": {
    "scraped_from": "https://haz-map.com/Agents/4293",
    "entity_name": "Chlorfenson",
    "category": "agents",
    "uuid": "68916817-454a-440d-9a78-be1cf5ad8462",
    "scraped_at": "2025-07-23T19:39:34.776793"
  },
  "parsed_at": "2025-07-24T01:07:15.655838",
  "title": "Chlorfenson",
  "sections": {
    "general": {
      "agent_name": {
        "original_name": "Agent Name",
        "value": "Chlorfenson",
        "links": [],
        "cross_references": [
          {
            "type": "name_match",
            "text": "fenson",
            "confidence": 1.0,
            "uuid": "e1d8ed4d-9afa-41ac-800f-f45060d90abc",
            "name": "Fenson",
            "url": "https://haz-map.com/Agents/3839",
            "category": "agents"
          },
          {
            "type": "name_match",
            "text": "chlorfenson",
            "confidence": 1.0,
            "uuid": "68916817-454a-440d-9a78-be1cf5ad8462",
            "name": "Chlorfenson",
            "url": "https://haz-map.com/Agents/4293",
            "category": "agents"
          }
        ]
      },
      "cas_number": {
        "original_name": "CAS Number",
        "value": "80-33-1",
        "links": [],
        "cross_references": []
      },
      "formula": {
        "original_name": "Formula",
        "value": "C12-H8-Cl2-O3-S",
        "links": [],
        "cross_references": []
      },
      "major_category": {
        "original_name": "Major Category",
        "value": "Pesticides",
        "links": [],
        "cross_references": []
      },
      "synonyms": {
        "original_name": "Synonyms",
        "value": "(4-Chloor-fenyl)-4-chloor-benzeen-sulfonaat [Dutch]; (4-Chlor-phenyl)-4-chlor-benzol-sulfonate [German]; (4-Cloro-fenil)-4-cloro-venzol-solfonato [Italian]; 4-Chlorobenzenesulfonate de 4-chlorophenyle [French]; 4-Chlorobenzenesulfonate de 4-chlorphenyle [French]; 4-Chlorobenzenesulfonic acid, 4-chlorophenyl ester; 4-Chlorophenyl 4-chlorobenzenesulfonate; 4-Chlorophenyl 4-chlorobenzenesulphonate; 4-Chlorphenyl-4'-chlorbenzolsulfonat [German]; Acaricydol E 20; Benzenesulfonic acid, 4-chloro-, 4-chlorophenyl ester; Benzenesulfonic acid, p-chloro-, p-chlorophenyl ester; Benzolsulfonat; Benzolsulfonate; C 1,006; C-854; CCS; CPCBS; Chloorfenson [Dutch]; Chlorbenzolsulfonat; Chlorefenizon [French]; Chlorfensin; Chlorobenzolsulfonate; Chlorofenizon; Chlorofenson; Chlorofensone; Corotran; D 854; Danicut; Difenson; Dow K-6,451; ENT 16,538; Ephirsulphonate; Erysit; Ester sulfonate; Estonmite; Ethersulfonate; Genite 883; K 6451; K-101; Lethalaire G-58; Miticide K-101; Mitran; Niagaratran; Onex; Orochlor; Orthotran; Otracid; Ovatran; Ovex; Ovex [ANSI]; Ovochlor; Ovotox; Ovotran; Parachlorophenyl parachlorobenzene sulfonate; Parachlorophenyl-parachlorobenzene-sulfonate; PCPCBS; Roztoczol fluid; Sappilan; Sappiran; Trichlorfenson; Trichlorfenson (Obs.); p-Chlorfenylester kyseliny p-chlorbenzensulfonove [Czech]; p-Chlorobenzenesulfonic acid, p-chlorophenyl ester; p-Chlorophenyl p-chlorobenzenesulfonate; p-Chlorophenyl p-chlorobenzenesulphonate; [ChemIDplus]",
        "links": [],
        "cross_references": [
          {
            "type": "name_match",
            "text": "benzene",
            "confidence": 1.0,
            "uuid": "b05124de-5f34-4c14-8f04-ccb20c3780d9",
            "name": "Benzene",
            "url": "https://haz-map.com/Agents/5",
            "category": "agents"
          },
          {
            "type": "name_match",
            "text": "chlorobenzene",
            "confidence": 1.0,
            "uuid": "7e598eca-f35d-493c-aa78-93bb67744c4c",
            "name": "Chlorobenzene",
            "url": "https://haz-map.com/Agents/85",
            "category": "agents"
          },
          {
            "type": "name_match",
            "text": "tali",
            "confidence": 1.0,
            "uuid": "8c3a0f99-2143-4122-b539-ec5cc49596b0",
            "name": "Tali",
            "url": "https://haz-map.com/Agents/1128",
            "category": "agents"
          },
          {
            "type": "name_match",
            "text": "fenson",
            "confidence": 1.0,
            "uuid": "e1d8ed4d-9afa-41ac-800f-f45060d90abc",
            "name": "Fenson",
            "url": "https://haz-map.com/Agents/3839",
            "category": "agents"
          },
          {
            "type": "name_match",
            "text": "benzenesulfonic acid",
            "confidence": 1.0,
            "uuid": "39630619-7b3f-4266-b4e1-e41deb2f24e6",
            "name": "Benzenesulfonic acid",
            "url": "https://haz-map.com/Agents/3840",
            "category": "agents"
          },
          {
            "type": "name_match",
            "text": "chlorfenson",
            "confidence": 1.0,
            "uuid": "68916817-454a-440d-9a78-be1cf5ad8462",
            "name": "Chlorfenson",
            "url": "https://haz-map.com/Agents/4293",
            "category": "agents"
          },
          {
            "type": "name_match",
            "text": "agar",
            "confidence": 1.0,
            "uuid": "6736375b-51bf-4ffa-9f36-f145228d4f0d",
            "name": "Agar",
            "url": "https://haz-map.com/Agents/11402",
            "category": "agents"
          }
        ]
      },
      "category": {
        "original_name": "Category",
        "value": "Organochlorine Pesticides",
        "links": [],
        "cross_references": [
          {
            "type": "name_match",
            "text": "chlorine",
            "confidence": 1.0,
            "uuid": "8a67a545-61fb-4d71-865e-ff2725a0b999",
            "name": "Chlorine",
            "url": "https://haz-map.com/Agents/89",
            "category": "agents"
          },
          {
            "type": "name_match",
            "text": "chlorin",
            "confidence": 1.0,
            "uuid": "4a566fec-ec7e-42b0-9f14-ec586335e694",
            "name": "Chlorin",
            "url": "https://haz-map.com/Agents/20422",
            "category": "agents"
          }
        ]
      },
      "description": {
        "original_name": "Description",
        "value": "White solid; [Hawley]",
        "links": [],
        "cross_references": []
      },
      "sourcesuses": {
        "original_name": "Sources/Uses",
        "value": "Used as insecticide and acaricide (ovicide with long residual activity) for cotton, nuts, vegetables, and ornamentals; No longer produced in the US; [HSDB]",
        "links": [],
        "cross_references": []
      },
      "comments": {
        "original_name": "Comments",
        "value": "A skin irritant; [HSDB] A skin irritant; May cause CNS depression; [MSDSonline]",
        "links": [],
        "cross_references": []
      },
      "biomedical_references": {
        "original_name": "Biomedical References",
        "value": "Search PubMed",
        "links": [
          {
            "text": "Search PubMed",
            "url": "https://www.ncbi.nlm.nih.gov/pubmed?term=Chlorfenson%20AND%20human%5Bmh%5D%20AND%20%28Occupational%20Diseases%20%5Bmh%5D%20OR%20Occupational%20Exposure%20%5Bmh%5D%29%20%20AND%20%28tox%5Bsb%5D%29&cmd=search"
          }
        ],
        "cross_references": []
      }
    },
    "exposure_assessment": {
      "vapor_pressure": {
        "original_name": "Vapor Pressure",
        "value": "1.88E-06 mm Hg",
        "links": [],
        "cross_references": []
      }
    },
    "adverse_effects": {
      "other_poison": {
        "original_name": "Other Poison",
        "value": "Organochlorine",
        "links": [],
        "cross_references": [
          {
            "type": "name_match",
            "text": "chlorine",
            "confidence": 1.0,
            "uuid": "8a67a545-61fb-4d71-865e-ff2725a0b999",
            "name": "Chlorine",
            "url": "https://haz-map.com/Agents/89",
            "category": "agents"
          },
          {
            "type": "name_match",
            "text": "chlorin",
            "confidence": 1.0,
            "uuid": "4a566fec-ec7e-42b0-9f14-ec586335e694",
            "name": "Chlorin",
            "url": "https://haz-map.com/Agents/20422",
            "category": "agents"
          }
        ]
      }
    },
    "diseases_processes_and_activities_linked_to_this_agent": {
      "diseases": {
        "original_name": "Diseases",
        "value": "Occupational diseases associated with exposure to this agent: Organochlorine insecticides, acute poisoning",
        "links": [
          {
            "text": "Organochlorine insecticides, acute poisoning",
            "url": "https://haz-map.com/Diseases/165"
          }
        ],
        "cross_references": [
          {
            "type": "url_match",
            "text": "Organochlorine insecticides, acute poisoning",
            "url": "https://haz-map.com/Diseases/165",
            "confidence": 1.0,
            "uuid": "45193447-c4e4-4c0d-9be3-1adb006864c3",
            "name": "Organochlorine insecticides, acute poisoning",
            "category": "diseases"
          },
          {
            "type": "name_match",
            "text": "chlorine",
            "confidence": 1.0,
            "uuid": "8a67a545-61fb-4d71-865e-ff2725a0b999",
            "name": "Chlorine",
            "url": "https://haz-map.com/Agents/89",
            "category": "agents"
          },
          {
            "type": "name_match",
            "text": "chlorin",
            "confidence": 1.0,
            "uuid": "4a566fec-ec7e-42b0-9f14-ec586335e694",
            "name": "Chlorin",
            "url": "https://haz-map.com/Agents/20422",
            "category": "agents"
          }
        ]
      },
      "processes": {
        "original_name": "Processes",
        "value": "Industrial Processes with risk of exposure: Farming (Pesticides)",
        "links": [
          {
            "text": "Farming (Pesticides)",
            "url": "https://haz-map.com/Processes/218"
          }
        ],
        "cross_references": [
          {
            "type": "url_match",
            "text": "Farming (Pesticides)",
            "url": "https://haz-map.com/Processes/218",
            "confidence": 1.0,
            "uuid": "cf1e5815-c9bb-4917-82a5-391848170b7e",
            "name": "Farming (Pesticides)",
            "category": "processes"
          }
        ]
      }
    }
  },
  "cross_references": [
    {
      "type": "url_match",
      "text": "Organochlorine insecticides, acute poisoning",
      "url": "https://haz-map.com/Diseases/165",
      "confidence": 1.0,
      "uuid": "45193447-c4e4-4c0d-9be3-1adb006864c3",
      "name": "Organochlorine insecticides, acute poisoning",
      "category": "diseases"
    },
    {
      "type": "url_match",
      "text": "Farming (Pesticides)",
      "url": "https://haz-map.com/Processes/218",
      "confidence": 1.0,
      "uuid": "cf1e5815-c9bb-4917-82a5-391848170b7e",
      "name": "Farming (Pesticides)",
      "category": "processes"
    },
    {
      "type": "name_match",
      "text": "benzene",
      "confidence": 1.0,
      "uuid": "b05124de-5f34-4c14-8f04-ccb20c3780d9",
      "name": "Benzene",
      "url": "https://haz-map.com/Agents/5",
      "category": "agents"
    },
    {
      "type": "name_match",
      "text": "chlorobenzene",
      "confidence": 1.0,
      "uuid": "7e598eca-f35d-493c-aa78-93bb67744c4c",
      "name": "Chlorobenzene",
      "url": "https://haz-map.com/Agents/85",
      "category": "agents"
    },
    {
      "type": "name_match",
      "text": "chlorine",
      "confidence": 1.0,
      "uuid": "8a67a545-61fb-4d71-865e-ff2725a0b999",
      "name": "Chlorine",
      "url": "https://haz-map.com/Agents/89",
      "category": "agents"
    },
    {
      "type": "name_match",
      "text": "tali",
      "confidence": 1.0,
      "uuid": "8c3a0f99-2143-4122-b539-ec5cc49596b0",
      "name": "Tali",
      "url": "https://haz-map.com/Agents/1128",
      "category": "agents"
    },
    {
      "type": "name_match",
      "text": "fenson",
      "confidence": 1.0,
      "uuid": "e1d8ed4d-9afa-41ac-800f-f45060d90abc",
      "name": "Fenson",
      "url": "https://haz-map.com/Agents/3839",
      "category": "agents"
    },
    {
      "type": "name_match",
      "text": "benzenesulfonic acid",
      "confidence": 1.0,
      "uuid": "39630619-7b3f-4266-b4e1-e41deb2f24e6",
      "name": "Benzenesulfonic acid",
      "url": "https://haz-map.com/Agents/3840",
      "category": "agents"
    },
    {
      "type": "name_match",
      "text": "chlorfenson",
      "confidence": 1.0,
      "uuid": "68916817-454a-440d-9a78-be1cf5ad8462",
      "name": "Chlorfenson",
      "url": "https://haz-map.com/Agents/4293",
      "category": "agents"
    },
    {
      "type": "name_match",
      "text": "agar",
      "confidence": 1.0,
      "uuid": "6736375b-51bf-4ffa-9f36-f145228d4f0d",
      "name": "Agar",
      "url": "https://haz-map.com/Agents/11402",
      "category": "agents"
    },
    {
      "type": "name_match",
      "text": "chlorin",
      "confidence": 1.0,
      "uuid": "4a566fec-ec7e-42b0-9f14-ec586335e694",
      "name": "Chlorin",
      "url": "https://haz-map.com/Agents/20422",
      "category": "agents"
    }
  ],
  "all_links": [
    {
      "text": "Search PubMed",
      "url": "https://www.ncbi.nlm.nih.gov/pubmed?term=Chlorfenson%20AND%20human%5Bmh%5D%20AND%20%28Occupational%20Diseases%20%5Bmh%5D%20OR%20Occupational%20Exposure%20%5Bmh%5D%29%20%20AND%20%28tox%5Bsb%5D%29&cmd=search"
    },
    {
      "text": "Organochlorine insecticides, acute poisoning",
      "url": "https://haz-map.com/Diseases/165"
    },
    {
      "text": "Farming (Pesticides)",
      "url": "https://haz-map.com/Processes/218"
    }
  ]
}