{
  "metadata": {
    "scraped_from": "https://haz-map.com/Agents/19979",
    "entity_name": "4,4'-Sulfonyldiphenol",
    "category": "agents",
    "uuid": "68b8cc02-68fe-49f9-96dc-02d74eb5f9c4",
    "scraped_at": "2025-07-23T22:16:33.175178"
  },
  "parsed_at": "2025-07-24T01:04:46.625637",
  "title": "4,4'-Sulfonyldiphenol",
  "sections": {
    "general": {
      "agent_name": {
        "original_name": "Agent Name",
        "value": "4,4'-Sulfonyldiphenol",
        "links": [],
        "cross_references": [
          {
            "type": "name_match",
            "text": "phenol",
            "confidence": 1.0,
            "uuid": "03141a03-a7df-4f51-9a37-adde1a7c4b31",
            "name": "Phenol",
            "url": "https://haz-map.com/Agents/84",
            "category": "agents"
          },
          {
            "type": "name_match",
            "text": "4,4'-sulfonyldiphenol",
            "confidence": 1.0,
            "uuid": "68b8cc02-68fe-49f9-96dc-02d74eb5f9c4",
            "name": "4,4'-Sulfonyldiphenol",
            "url": "https://haz-map.com/Agents/19979",
            "category": "agents"
          }
        ]
      },
      "alternative_name": {
        "original_name": "Alternative Name",
        "value": "Bisphenol S",
        "links": [],
        "cross_references": [
          {
            "type": "name_match",
            "text": "phenol",
            "confidence": 1.0,
            "uuid": "03141a03-a7df-4f51-9a37-adde1a7c4b31",
            "name": "Phenol",
            "url": "https://haz-map.com/Agents/84",
            "category": "agents"
          }
        ]
      },
      "cas_number": {
        "original_name": "CAS Number",
        "value": "80-09-1",
        "links": [],
        "cross_references": []
      },
      "formula": {
        "original_name": "Formula",
        "value": "C12-H10-O4-S",
        "links": [],
        "cross_references": []
      },
      "major_category": {
        "original_name": "Major Category",
        "value": "Other Classes",
        "links": [],
        "cross_references": []
      },
      "synonyms": {
        "original_name": "Synonyms",
        "value": "1,1'-Sulfonylbis(4-hydroxybenzene); 4,4'-Bisphenol S; 4,4'-Dihydroxydiphenyl sulfone; 4,4'-Sulfonylbisphenol; Bis(4-hydroxyphenyl) sulfone; Bis(4-hydroxyphenyl)sulfone; Bis(p-hydroxyphenyl) sulfone; Bis(p-hydroxyphenyl)sulfone; Bisphenol S; BPS 1; Diphone C; p,p'-Dihydroxydiphenyl sulfone; 4,4'-Sulphonyldiphenol; Phenol, 4,4'-sulfonylbis-; Phenol, 4,4'-sulfonyldi-; [ChemIDplus] Diphenylsulfone; [FDA] SDP; [Acros Organics MSDS]",
        "links": [],
        "cross_references": [
          {
            "type": "name_match",
            "text": "benzene",
            "confidence": 1.0,
            "uuid": "b05124de-5f34-4c14-8f04-ccb20c3780d9",
            "name": "Benzene",
            "url": "https://haz-map.com/Agents/5",
            "category": "agents"
          },
          {
            "type": "name_match",
            "text": "phenol",
            "confidence": 1.0,
            "uuid": "03141a03-a7df-4f51-9a37-adde1a7c4b31",
            "name": "Phenol",
            "url": "https://haz-map.com/Agents/84",
            "category": "agents"
          },
          {
            "type": "name_match",
            "text": "diphenyl sulfone",
            "confidence": 1.0,
            "uuid": "b3ab3720-75bd-49a6-9346-c348c73d5e79",
            "name": "Diphenyl sulfone",
            "url": "https://haz-map.com/Agents/8351",
            "category": "agents"
          }
        ]
      },
      "category": {
        "original_name": "Category",
        "value": "Benzenesulfonic Acid Derivatives",
        "links": [],
        "cross_references": [
          {
            "type": "name_match",
            "text": "benzene",
            "confidence": 1.0,
            "uuid": "b05124de-5f34-4c14-8f04-ccb20c3780d9",
            "name": "Benzene",
            "url": "https://haz-map.com/Agents/5",
            "category": "agents"
          },
          {
            "type": "name_match",
            "text": "benzenesulfonic acid",
            "confidence": 1.0,
            "uuid": "39630619-7b3f-4266-b4e1-e41deb2f24e6",
            "name": "Benzenesulfonic acid",
            "url": "https://haz-map.com/Agents/3840",
            "category": "agents"
          }
        ]
      },
      "description": {
        "original_name": "Description",
        "value": "White solid; [HSDB] Slightly beige crystalline powder; [Acros Organics MSDS]",
        "links": [],
        "cross_references": [
          {
            "type": "name_match",
            "text": "ht",
            "confidence": 1.0,
            "uuid": "764df367-8d53-4a11-81a2-31ccfe122a8d",
            "name": "HT",
            "url": "https://haz-map.com/Agents/2168",
            "category": "agents"
          },
          {
            "type": "fuzzy_match",
            "text": "crystalline",
            "matched_name": "Silica, crystalline",
            "confidence": 0.7061403508771931,
            "uuid": "f920e8a2-46df-41b7-af8d-0368a777251e",
            "category": "agents",
            "url": "https://haz-map.com/Agents/427"
          }
        ]
      },
      "sourcesuses": {
        "original_name": "Sources/Uses",
        "value": "Used as an intermediate, electroplating solvent, washfastening agent, in phenolic resins, and as a developer in thermal paper; [HSDB] Used to make paper, polymers, and fine chemicals; [ECHA REACH Registrations]",
        "links": [],
        "cross_references": [
          {
            "type": "name_match",
            "text": "electroplating",
            "confidence": 1.0,
            "uuid": "ae1bd2c1-37de-4b26-82b6-47ee206af837",
            "name": "Electroplating",
            "url": "https://haz-map.com/Processes/66",
            "category": "processes"
          },
          {
            "type": "name_match",
            "text": "phenol",
            "confidence": 1.0,
            "uuid": "03141a03-a7df-4f51-9a37-adde1a7c4b31",
            "name": "Phenol",
            "url": "https://haz-map.com/Agents/84",
            "category": "agents"
          },
          {
            "type": "name_match",
            "text": "mica",
            "confidence": 1.0,
            "uuid": "433f26f1-c399-4596-b179-ce3843cfd465",
            "name": "Mica",
            "url": "https://haz-map.com/Agents/621",
            "category": "agents"
          },
          {
            "type": "name_match",
            "text": "ash",
            "confidence": 1.0,
            "uuid": "68b360f1-5ad0-4337-bea0-d7adca2961b5",
            "name": "Ash",
            "url": "https://haz-map.com/Agents/965",
            "category": "agents"
          }
        ]
      },
      "comments": {
        "original_name": "Comments",
        "value": "Causes mild eye and no skin irritation in rabbits; No evidence of skin sensitization in animals; Histopathological changes of the liver, prolonged estrous cycle, decreased fertility index, and decreased number of live offspring observed in oral study of rats at 300 mg/kg/day; [EPA] Causes effects on food intake, acute renal tubular changes, and weight loss in 13-day intermittent oral studies of rats; [RTECS] An eye irritant; [Acros Organics MSDS] See \"Bisphenol A.\" See \"Dapsone.\"",
        "links": [],
        "cross_references": [
          {
            "type": "name_match",
            "text": "weight loss",
            "confidence": 1.0,
            "uuid": "9b7baca4-cf1b-4e78-99d2-2377fbac8f8b",
            "name": "weight loss",
            "url": "https://haz-map.com/Findings/3",
            "category": "findings"
          },
          {
            "type": "name_match",
            "text": "phenol",
            "confidence": 1.0,
            "uuid": "03141a03-a7df-4f51-9a37-adde1a7c4b31",
            "name": "Phenol",
            "url": "https://haz-map.com/Agents/84",
            "category": "agents"
          },
          {
            "type": "name_match",
            "text": "bisphenol a",
            "confidence": 1.0,
            "uuid": "9e7374e6-f605-4c87-8467-29a3e9f14947",
            "name": "Bisphenol A",
            "url": "https://haz-map.com/Agents/842",
            "category": "agents"
          },
          {
            "type": "name_match",
            "text": "dapsone",
            "confidence": 1.0,
            "uuid": "8adee5c9-9faf-411c-aad3-c4e5d169ac38",
            "name": "Dapsone",
            "url": "https://haz-map.com/Agents/1170",
            "category": "agents"
          },
          {
            "type": "name_match",
            "text": "ht",
            "confidence": 1.0,
            "uuid": "764df367-8d53-4a11-81a2-31ccfe122a8d",
            "name": "HT",
            "url": "https://haz-map.com/Agents/2168",
            "category": "agents"
          }
        ]
      },
      "biomedical_references": {
        "original_name": "Biomedical References",
        "value": "Search PubMed",
        "links": [
          {
            "text": "Search PubMed",
            "url": "https://www.ncbi.nlm.nih.gov/pubmed?term=4%2c4%26%2339%3b-Sulfonyldiphenol%20AND%20human%5Bmh%5D%20AND%20%28Occupational%20Diseases%20%5Bmh%5D%20OR%20Occupational%20Exposure%20%5Bmh%5D%29%20%20AND%20%28tox%5Bsb%5D%29&cmd=search"
          }
        ],
        "cross_references": []
      }
    },
    "exposure_assessment": {
      "vapor_pressure": {
        "original_name": "Vapor Pressure",
        "value": "4.7E-10 mm Hg",
        "links": [],
        "cross_references": []
      }
    },
    "diseases_processes_and_activities_linked_to_this_agent": {
      "processes": {
        "original_name": "Processes",
        "value": "Industrial Processes with risk of exposure: Electroplating Pulp and Paper Processing",
        "links": [
          {
            "text": "Electroplating",
            "url": "https://haz-map.com/Processes/66"
          },
          {
            "text": "Pulp and Paper Processing",
            "url": "https://haz-map.com/Processes/132"
          }
        ],
        "cross_references": [
          {
            "type": "url_match",
            "text": "Electroplating",
            "url": "https://haz-map.com/Processes/66",
            "confidence": 1.0,
            "uuid": "ae1bd2c1-37de-4b26-82b6-47ee206af837",
            "name": "Electroplating",
            "category": "processes"
          },
          {
            "type": "url_match",
            "text": "Pulp and Paper Processing",
            "url": "https://haz-map.com/Processes/132",
            "confidence": 1.0,
            "uuid": "30075079-d057-47e2-a7d8-e89bfc59d8df",
            "name": "Pulp and Paper Processing",
            "category": "processes"
          }
        ]
      }
    }
  },
  "cross_references": [
    {
      "type": "url_match",
      "text": "Electroplating",
      "url": "https://haz-map.com/Processes/66",
      "confidence": 1.0,
      "uuid": "ae1bd2c1-37de-4b26-82b6-47ee206af837",
      "name": "Electroplating",
      "category": "processes"
    },
    {
      "type": "url_match",
      "text": "Pulp and Paper Processing",
      "url": "https://haz-map.com/Processes/132",
      "confidence": 1.0,
      "uuid": "30075079-d057-47e2-a7d8-e89bfc59d8df",
      "name": "Pulp and Paper Processing",
      "category": "processes"
    },
    {
      "type": "name_match",
      "text": "weight loss",
      "confidence": 1.0,
      "uuid": "9b7baca4-cf1b-4e78-99d2-2377fbac8f8b",
      "name": "weight loss",
      "url": "https://haz-map.com/Findings/3",
      "category": "findings"
    },
    {
      "type": "name_match",
      "text": "benzene",
      "confidence": 1.0,
      "uuid": "b05124de-5f34-4c14-8f04-ccb20c3780d9",
      "name": "Benzene",
      "url": "https://haz-map.com/Agents/5",
      "category": "agents"
    },
    {
      "type": "name_match",
      "text": "phenol",
      "confidence": 1.0,
      "uuid": "03141a03-a7df-4f51-9a37-adde1a7c4b31",
      "name": "Phenol",
      "url": "https://haz-map.com/Agents/84",
      "category": "agents"
    },
    {
      "type": "name_match",
      "text": "mica",
      "confidence": 1.0,
      "uuid": "433f26f1-c399-4596-b179-ce3843cfd465",
      "name": "Mica",
      "url": "https://haz-map.com/Agents/621",
      "category": "agents"
    },
    {
      "type": "name_match",
      "text": "bisphenol a",
      "confidence": 1.0,
      "uuid": "9e7374e6-f605-4c87-8467-29a3e9f14947",
      "name": "Bisphenol A",
      "url": "https://haz-map.com/Agents/842",
      "category": "agents"
    },
    {
      "type": "name_match",
      "text": "ash",
      "confidence": 1.0,
      "uuid": "68b360f1-5ad0-4337-bea0-d7adca2961b5",
      "name": "Ash",
      "url": "https://haz-map.com/Agents/965",
      "category": "agents"
    },
    {
      "type": "name_match",
      "text": "dapsone",
      "confidence": 1.0,
      "uuid": "8adee5c9-9faf-411c-aad3-c4e5d169ac38",
      "name": "Dapsone",
      "url": "https://haz-map.com/Agents/1170",
      "category": "agents"
    },
    {
      "type": "name_match",
      "text": "ht",
      "confidence": 1.0,
      "uuid": "764df367-8d53-4a11-81a2-31ccfe122a8d",
      "name": "HT",
      "url": "https://haz-map.com/Agents/2168",
      "category": "agents"
    },
    {
      "type": "name_match",
      "text": "benzenesulfonic acid",
      "confidence": 1.0,
      "uuid": "39630619-7b3f-4266-b4e1-e41deb2f24e6",
      "name": "Benzenesulfonic acid",
      "url": "https://haz-map.com/Agents/3840",
      "category": "agents"
    },
    {
      "type": "name_match",
      "text": "diphenyl sulfone",
      "confidence": 1.0,
      "uuid": "b3ab3720-75bd-49a6-9346-c348c73d5e79",
      "name": "Diphenyl sulfone",
      "url": "https://haz-map.com/Agents/8351",
      "category": "agents"
    },
    {
      "type": "name_match",
      "text": "4,4'-sulfonyldiphenol",
      "confidence": 1.0,
      "uuid": "68b8cc02-68fe-49f9-96dc-02d74eb5f9c4",
      "name": "4,4'-Sulfonyldiphenol",
      "url": "https://haz-map.com/Agents/19979",
      "category": "agents"
    },
    {
      "type": "fuzzy_match",
      "text": "crystalline",
      "matched_name": "Silica, crystalline",
      "confidence": 0.7061403508771931,
      "uuid": "f920e8a2-46df-41b7-af8d-0368a777251e",
      "category": "agents",
      "url": "https://haz-map.com/Agents/427"
    }
  ],
  "all_links": [
    {
      "text": "Search PubMed",
      "url": "https://www.ncbi.nlm.nih.gov/pubmed?term=4%2c4%26%2339%3b-Sulfonyldiphenol%20AND%20human%5Bmh%5D%20AND%20%28Occupational%20Diseases%20%5Bmh%5D%20OR%20Occupational%20Exposure%20%5Bmh%5D%29%20%20AND%20%28tox%5Bsb%5D%29&cmd=search"
    },
    {
      "text": "Electroplating",
      "url": "https://haz-map.com/Processes/66"
    },
    {
      "text": "Pulp and Paper Processing",
      "url": "https://haz-map.com/Processes/132"
    }
  ]
}