{
  "metadata": {
    "scraped_from": "https://haz-map.com/Agents/20381",
    "entity_name": "Dibutyl oxalate",
    "category": "agents",
    "uuid": "68c110bd-314a-49fc-bbfe-ef66fe78f23d",
    "scraped_at": "2025-07-23T22:24:17.430177"
  },
  "parsed_at": "2025-07-24T00:53:43.895313",
  "title": "Dibutyl oxalate",
  "sections": {
    "general": {
      "agent_name": {
        "original_name": "Agent Name",
        "value": "Dibutyl oxalate",
        "links": [],
        "cross_references": [
          {
            "type": "name_match",
            "text": "dibutyl oxalate",
            "confidence": 1.0,
            "uuid": "68c110bd-314a-49fc-bbfe-ef66fe78f23d",
            "name": "Dibutyl oxalate",
            "url": "https://haz-map.com/Agents/20381",
            "category": "agents"
          }
        ]
      },
      "cas_number": {
        "original_name": "CAS Number",
        "value": "2050-60-4",
        "links": [],
        "cross_references": []
      },
      "formula": {
        "original_name": "Formula",
        "value": "C10-H18-O4",
        "links": [],
        "cross_references": []
      },
      "major_category": {
        "original_name": "Major Category",
        "value": "Other Classes",
        "links": [],
        "cross_references": []
      },
      "synonyms": {
        "original_name": "Synonyms",
        "value": "Butyl ethanedioate; Butyl oxalate; Di-n-butyl oxalate; Ethanedioic acid, 1,2-dibutyl ester; Ethanedioic acid, dibutyl ester; Oxalic acid, dibutyl ester (8CI); [ChemIDplus]",
        "links": [],
        "cross_references": [
          {
            "type": "name_match",
            "text": "ethane",
            "confidence": 1.0,
            "uuid": "5162cc8c-dfb9-4060-81ac-38a8cec7f9dd",
            "name": "Ethane",
            "url": "https://haz-map.com/Agents/1075",
            "category": "agents"
          }
        ]
      },
      "category": {
        "original_name": "Category",
        "value": "Esters, Other",
        "links": [],
        "cross_references": []
      },
      "description": {
        "original_name": "Description",
        "value": "Clear colorless liquid with a butyl-like odor; [Acros Organics MSDS]",
        "links": [],
        "cross_references": []
      },
      "comments": {
        "original_name": "Comments",
        "value": "May cause irritation; [Acros Organics MSDS] See \"Methyl oxalate\" and \"Diethyl oxalate.\"",
        "links": [],
        "cross_references": [
          {
            "type": "name_match",
            "text": "diethyl oxalate",
            "confidence": 1.0,
            "uuid": "d7336e81-5ab4-45f4-936c-98a73145630b",
            "name": "Diethyl oxalate",
            "url": "https://haz-map.com/Agents/8253",
            "category": "agents"
          },
          {
            "type": "name_match",
            "text": "methyl oxalate",
            "confidence": 1.0,
            "uuid": "d78e3c59-f3d4-4ce4-9bed-2e059943c7af",
            "name": "Methyl oxalate",
            "url": "https://haz-map.com/Agents/8349",
            "category": "agents"
          }
        ]
      },
      "biomedical_references": {
        "original_name": "Biomedical References",
        "value": "Search PubMed",
        "links": [
          {
            "text": "Search PubMed",
            "url": "https://www.ncbi.nlm.nih.gov/pubmed?term=Dibutyl+oxalate%20AND%20human%5Bmh%5D%20AND%20%28Occupational%20Diseases%20%5Bmh%5D%20OR%20Occupational%20Exposure%20%5Bmh%5D%29%20%20AND%20%28tox%5Bsb%5D%29&cmd=search"
          }
        ],
        "cross_references": []
      }
    },
    "exposure_assessment": {
      "vapor_pressure": {
        "original_name": "Vapor Pressure",
        "value": "0.096 mm Hg",
        "links": [],
        "cross_references": []
      },
      "nfpa": {
        "original_name": "NFPA",
        "value": "must be preheated",
        "links": [],
        "cross_references": []
      }
    },
    "diseases_processes_and_activities_linked_to_this_agent": {
      "other_information": {
        "original_name": "Other Information",
        "value": "No other related information on this agent was found.",
        "links": [],
        "cross_references": []
      }
    }
  },
  "cross_references": [
    {
      "type": "name_match",
      "text": "ethane",
      "confidence": 1.0,
      "uuid": "5162cc8c-dfb9-4060-81ac-38a8cec7f9dd",
      "name": "Ethane",
      "url": "https://haz-map.com/Agents/1075",
      "category": "agents"
    },
    {
      "type": "name_match",
      "text": "diethyl oxalate",
      "confidence": 1.0,
      "uuid": "d7336e81-5ab4-45f4-936c-98a73145630b",
      "name": "Diethyl oxalate",
      "url": "https://haz-map.com/Agents/8253",
      "category": "agents"
    },
    {
      "type": "name_match",
      "text": "methyl oxalate",
      "confidence": 1.0,
      "uuid": "d78e3c59-f3d4-4ce4-9bed-2e059943c7af",
      "name": "Methyl oxalate",
      "url": "https://haz-map.com/Agents/8349",
      "category": "agents"
    },
    {
      "type": "name_match",
      "text": "dibutyl oxalate",
      "confidence": 1.0,
      "uuid": "68c110bd-314a-49fc-bbfe-ef66fe78f23d",
      "name": "Dibutyl oxalate",
      "url": "https://haz-map.com/Agents/20381",
      "category": "agents"
    }
  ],
  "all_links": [
    {
      "text": "Search PubMed",
      "url": "https://www.ncbi.nlm.nih.gov/pubmed?term=Dibutyl+oxalate%20AND%20human%5Bmh%5D%20AND%20%28Occupational%20Diseases%20%5Bmh%5D%20OR%20Occupational%20Exposure%20%5Bmh%5D%29%20%20AND%20%28tox%5Bsb%5D%29&cmd=search"
    }
  ]
}