{
  "metadata": {
    "scraped_from": "https://haz-map.com/Agents/11958",
    "entity_name": "Arachidonic acid",
    "category": "agents",
    "uuid": "68ed391c-a9aa-41fc-9c22-5ce8beacdc12",
    "scraped_at": "2025-07-23T21:04:38.721726"
  },
  "parsed_at": "2025-07-24T01:10:29.955266",
  "title": "Arachidonic acid",
  "sections": {
    "general": {
      "agent_name": {
        "original_name": "Agent Name",
        "value": "Arachidonic acid",
        "links": [],
        "cross_references": [
          {
            "type": "name_match",
            "text": "arachidonic acid",
            "confidence": 1.0,
            "uuid": "68ed391c-a9aa-41fc-9c22-5ce8beacdc12",
            "name": "Arachidonic acid",
            "url": "https://haz-map.com/Agents/11958",
            "category": "agents"
          }
        ]
      },
      "cas_number": {
        "original_name": "CAS Number",
        "value": "506-32-1",
        "links": [],
        "cross_references": []
      },
      "formula": {
        "original_name": "Formula",
        "value": "C20-H32-O2",
        "links": [],
        "cross_references": []
      },
      "major_category": {
        "original_name": "Major Category",
        "value": "Biological Agents",
        "links": [],
        "cross_references": []
      },
      "synonyms": {
        "original_name": "Synonyms",
        "value": "5,8,11,14-Eicosatetraenoic acid; (5Z,8Z,11Z,14Z)-5,8,11,14-Eikosatetraensaeure; (all-Z)-5,8,11,14-Eicosatetraenoic acid; 5,8,11,14-Eicosatetraenoic acid, (all-Z)-; Icosa-5,8,11,14-tetraenoic acid; [ChemIDplus] (5Z,8Z,11Z,14Z)-5,8,11,14-Eicosatetraenoic acid; [Merck Index]",
        "links": [],
        "cross_references": []
      },
      "category": {
        "original_name": "Category",
        "value": "Fatty Acids and Fats",
        "links": [],
        "cross_references": []
      },
      "description": {
        "original_name": "Description",
        "value": "Liquid; [Merck Index]",
        "links": [],
        "cross_references": []
      },
      "sourcesuses": {
        "original_name": "Sources/Uses",
        "value": "Essential fatty acid for animals and humans; Used as a nutrient and for the treatment of eczema in dogs and swine; [Merck Index]",
        "links": [],
        "cross_references": []
      },
      "comments": {
        "original_name": "Comments",
        "value": "May form explosive peroxides; May cause irritation; Targets the female reproductive system; [Sigma-Aldrich MSDS]",
        "links": [],
        "cross_references": []
      },
      "biomedical_references": {
        "original_name": "Biomedical References",
        "value": "Search PubMed",
        "links": [
          {
            "text": "Search PubMed",
            "url": "https://www.ncbi.nlm.nih.gov/pubmed?term=Arachidonic+acid%20AND%20human%5Bmh%5D%20AND%20%28Occupational%20Diseases%20%5Bmh%5D%20OR%20Occupational%20Exposure%20%5Bmh%5D%29%20%20AND%20%28tox%5Bsb%5D%29&cmd=search"
          }
        ],
        "cross_references": []
      }
    },
    "exposure_assessment": {
      "vapor_pressure": {
        "original_name": "Vapor Pressure",
        "value": "1.55E-07 mm Hg",
        "links": [],
        "cross_references": []
      }
    },
    "diseases_processes_and_activities_linked_to_this_agent": {
      "other_information": {
        "original_name": "Other Information",
        "value": "No other related information on this agent was found.",
        "links": [],
        "cross_references": []
      }
    }
  },
  "cross_references": [
    {
      "type": "name_match",
      "text": "arachidonic acid",
      "confidence": 1.0,
      "uuid": "68ed391c-a9aa-41fc-9c22-5ce8beacdc12",
      "name": "Arachidonic acid",
      "url": "https://haz-map.com/Agents/11958",
      "category": "agents"
    }
  ],
  "all_links": [
    {
      "text": "Search PubMed",
      "url": "https://www.ncbi.nlm.nih.gov/pubmed?term=Arachidonic+acid%20AND%20human%5Bmh%5D%20AND%20%28Occupational%20Diseases%20%5Bmh%5D%20OR%20Occupational%20Exposure%20%5Bmh%5D%29%20%20AND%20%28tox%5Bsb%5D%29&cmd=search"
    }
  ]
}