{
  "metadata": {
    "scraped_from": "https://haz-map.com/Agents/3466",
    "entity_name": "3-Hydroxy-2-naphthalenecarboxylic acid",
    "category": "agents",
    "uuid": "68f39124-872c-429d-990b-e9edf09ffc37",
    "scraped_at": "2025-07-23T19:29:35.606691"
  },
  "parsed_at": "2025-07-24T01:10:01.856250",
  "title": "3-Hydroxy-2-naphthalenecarboxylic acid",
  "sections": {
    "general": {
      "agent_name": {
        "original_name": "Agent Name",
        "value": "3-Hydroxy-2-naphthalenecarboxylic acid",
        "links": [],
        "cross_references": [
          {
            "type": "name_match",
            "text": "naphthalene",
            "confidence": 1.0,
            "uuid": "433cf489-5423-4297-a38e-6e755a9d458e",
            "name": "Naphthalene",
            "url": "https://haz-map.com/Agents/46",
            "category": "agents"
          },
          {
            "type": "name_match",
            "text": "ht",
            "confidence": 1.0,
            "uuid": "764df367-8d53-4a11-81a2-31ccfe122a8d",
            "name": "HT",
            "url": "https://haz-map.com/Agents/2168",
            "category": "agents"
          },
          {
            "type": "name_match",
            "text": "3-hydroxy-2-naphthalenecarboxylic acid",
            "confidence": 1.0,
            "uuid": "68f39124-872c-429d-990b-e9edf09ffc37",
            "name": "3-Hydroxy-2-naphthalenecarboxylic acid",
            "url": "https://haz-map.com/Agents/3466",
            "category": "agents"
          }
        ]
      },
      "alternative_name": {
        "original_name": "Alternative Name",
        "value": "3-Hydroxy-2-naphthoic acid",
        "links": [],
        "cross_references": [
          {
            "type": "name_match",
            "text": "ht",
            "confidence": 1.0,
            "uuid": "764df367-8d53-4a11-81a2-31ccfe122a8d",
            "name": "HT",
            "url": "https://haz-map.com/Agents/2168",
            "category": "agents"
          },
          {
            "type": "name_match",
            "text": "2-naphthoic acid",
            "confidence": 1.0,
            "uuid": "8d9128af-c45a-408b-a421-ed31fc06326e",
            "name": "2-Naphthoic acid",
            "url": "https://haz-map.com/Agents/2481",
            "category": "agents"
          }
        ]
      },
      "cas_number": {
        "original_name": "CAS Number",
        "value": "92-70-6",
        "links": [],
        "cross_references": []
      },
      "formula": {
        "original_name": "Formula",
        "value": "C11-H8-O3",
        "links": [],
        "cross_references": []
      },
      "major_category": {
        "original_name": "Major Category",
        "value": "Other Classes",
        "links": [],
        "cross_references": []
      },
      "synonyms": {
        "original_name": "Synonyms",
        "value": "3-Hydroxy-2-naphthoic acid; 2-Hydroxy-3-naphthalenecarboxylic acid; 2-Hydroxy-3-naphthoic acid; 2-Naphthalenecarboxylic acid, 3-hydroxy-; 2-Naphthoic acid, 3-hydroxy-; 2-Naphthol-3-carboxylic acid; 3-Hydroxy-2-naphthoesaeure; 3-Hydroxy-beta-naphthoic acid; 3-Naphthol-2-carboxylic acid; B.O.N. acid; BON; BON acid; BONA; C.I. Developer 20; C.I. Developer 20 (Obs.); C.I. Developer 8; CI Developer 20; Developer 8; Developer BON; Kyselina 3-hydroxy-2-naftoova [Czech]; Miketazol Developer ONS; Naphthol B.O.N.; Naphthol BON; beta-Hydroxynaphthoic acid; beta-Naphthoic acid, 3-hydroxy-; beta-Oxynaphthoic acid; [ChemIDplus]",
        "links": [],
        "cross_references": [
          {
            "type": "name_match",
            "text": "naphthalene",
            "confidence": 1.0,
            "uuid": "433cf489-5423-4297-a38e-6e755a9d458e",
            "name": "Naphthalene",
            "url": "https://haz-map.com/Agents/46",
            "category": "agents"
          },
          {
            "type": "name_match",
            "text": "ht",
            "confidence": 1.0,
            "uuid": "764df367-8d53-4a11-81a2-31ccfe122a8d",
            "name": "HT",
            "url": "https://haz-map.com/Agents/2168",
            "category": "agents"
          },
          {
            "type": "name_match",
            "text": "2-naphthoic acid",
            "confidence": 1.0,
            "uuid": "8d9128af-c45a-408b-a421-ed31fc06326e",
            "name": "2-Naphthoic acid",
            "url": "https://haz-map.com/Agents/2481",
            "category": "agents"
          },
          {
            "type": "name_match",
            "text": "2-naphthol",
            "confidence": 1.0,
            "uuid": "152d75dd-ac6f-405f-bd70-2861b7454612",
            "name": "2-Naphthol",
            "url": "https://haz-map.com/Agents/3143",
            "category": "agents"
          }
        ]
      },
      "category": {
        "original_name": "Category",
        "value": "Naphthoic Acids",
        "links": [],
        "cross_references": [
          {
            "type": "name_match",
            "text": "ht",
            "confidence": 1.0,
            "uuid": "764df367-8d53-4a11-81a2-31ccfe122a8d",
            "name": "HT",
            "url": "https://haz-map.com/Agents/2168",
            "category": "agents"
          }
        ]
      },
      "description": {
        "original_name": "Description",
        "value": "Pale yellow solid; [Merck Index] Pale yellow crystalline solid; [MSDSonline]",
        "links": [],
        "cross_references": [
          {
            "type": "fuzzy_match",
            "text": "crystalline",
            "matched_name": "Silica, crystalline",
            "confidence": 0.7061403508771931,
            "uuid": "f920e8a2-46df-41b7-af8d-0368a777251e",
            "category": "agents",
            "url": "https://haz-map.com/Agents/427"
          }
        ]
      },
      "sourcesuses": {
        "original_name": "Sources/Uses",
        "value": "Used as a chemical intermediate for dyes and pigments; Has been used as a gallbladder stimulant; [HSDB] Used as intermediate for insecticides and pharmaceuticals; [eChemPortal: SIDSUNEP]",
        "links": [],
        "cross_references": [
          {
            "type": "name_match",
            "text": "mica",
            "confidence": 1.0,
            "uuid": "433f26f1-c399-4596-b179-ce3843cfd465",
            "name": "Mica",
            "url": "https://haz-map.com/Agents/621",
            "category": "agents"
          },
          {
            "type": "name_match",
            "text": "pharmaceuticals",
            "confidence": 1.0,
            "uuid": "713c3c30-b67e-4a2f-a90f-b32f8a306332",
            "name": "PHARMACEUTICALS",
            "url": "https://haz-map.com/Agents/1000",
            "category": "agents"
          },
          {
            "type": "name_match",
            "text": "dde",
            "confidence": 1.0,
            "uuid": "88506fb4-e7b1-4bde-a283-917057f67fc2",
            "name": "DDE",
            "url": "https://haz-map.com/Agents/4656",
            "category": "agents"
          }
        ]
      },
      "comments": {
        "original_name": "Comments",
        "value": "Emergency medical treatment: irritants; [HSDB] Cause severe damage to eyes in animal studies; Causes skin necrosis after occlusive exposure for 24 hours to the 10-12% solution; Positive for sensitization in a guinea pig maximization test after open epicutaneous challenge. Negative results in patch testing 36 humans volunteers; Evidence of liver and kidney injury in high-dose animal studies; [OECD SIDS: 3-Hydroxy-2-naphthoic acid - 2004] An irritant; [MSDSonline]",
        "links": [],
        "cross_references": [
          {
            "type": "name_match",
            "text": "irritants",
            "confidence": 1.0,
            "uuid": "9d2b9572-8c3e-48a4-ac68-63d6e2eb6f49",
            "name": "Irritants",
            "url": "https://haz-map.com/Agents/2063",
            "category": "agents"
          },
          {
            "type": "name_match",
            "text": "ht",
            "confidence": 1.0,
            "uuid": "764df367-8d53-4a11-81a2-31ccfe122a8d",
            "name": "HT",
            "url": "https://haz-map.com/Agents/2168",
            "category": "agents"
          },
          {
            "type": "name_match",
            "text": "2-naphthoic acid",
            "confidence": 1.0,
            "uuid": "8d9128af-c45a-408b-a421-ed31fc06326e",
            "name": "2-Naphthoic acid",
            "url": "https://haz-map.com/Agents/2481",
            "category": "agents"
          }
        ]
      },
      "biomedical_references": {
        "original_name": "Biomedical References",
        "value": "Search PubMed",
        "links": [
          {
            "text": "Search PubMed",
            "url": "https://www.ncbi.nlm.nih.gov/pubmed?term=3-Hydroxy-2-naphthalenecarboxylic+acid%20AND%20human%5Bmh%5D%20AND%20%28Occupational%20Diseases%20%5Bmh%5D%20OR%20Occupational%20Exposure%20%5Bmh%5D%29%20%20AND%20%28tox%5Bsb%5D%29&cmd=search"
          }
        ],
        "cross_references": []
      }
    },
    "exposure_assessment": {
      "vapor_pressure": {
        "original_name": "Vapor Pressure",
        "value": "5.45E-07 mm Hg",
        "links": [],
        "cross_references": []
      }
    },
    "adverse_effects": {
      "hepatotoxin": {
        "original_name": "Hepatotoxin",
        "value": "Hepatoxic (a) from occupational exposure (secondary effect) or (b) in animal studies or in humans after ingestion",
        "links": [],
        "cross_references": []
      },
      "dermatotoxin": {
        "original_name": "Dermatotoxin",
        "value": "Skin burns",
        "links": [],
        "cross_references": [
          {
            "type": "name_match",
            "text": "burn",
            "confidence": 1.0,
            "uuid": "63665de5-6376-4918-8dbf-4c10c4d63837",
            "name": "burn",
            "url": "https://haz-map.com/Findings/204",
            "category": "findings"
          }
        ]
      }
    },
    "diseases_processes_and_activities_linked_to_this_agent": {
      "other_information": {
        "original_name": "Other Information",
        "value": "No other related information on this agent was found.",
        "links": [],
        "cross_references": []
      }
    }
  },
  "cross_references": [
    {
      "type": "name_match",
      "text": "burn",
      "confidence": 1.0,
      "uuid": "63665de5-6376-4918-8dbf-4c10c4d63837",
      "name": "burn",
      "url": "https://haz-map.com/Findings/204",
      "category": "findings"
    },
    {
      "type": "name_match",
      "text": "naphthalene",
      "confidence": 1.0,
      "uuid": "433cf489-5423-4297-a38e-6e755a9d458e",
      "name": "Naphthalene",
      "url": "https://haz-map.com/Agents/46",
      "category": "agents"
    },
    {
      "type": "name_match",
      "text": "mica",
      "confidence": 1.0,
      "uuid": "433f26f1-c399-4596-b179-ce3843cfd465",
      "name": "Mica",
      "url": "https://haz-map.com/Agents/621",
      "category": "agents"
    },
    {
      "type": "name_match",
      "text": "pharmaceuticals",
      "confidence": 1.0,
      "uuid": "713c3c30-b67e-4a2f-a90f-b32f8a306332",
      "name": "PHARMACEUTICALS",
      "url": "https://haz-map.com/Agents/1000",
      "category": "agents"
    },
    {
      "type": "name_match",
      "text": "irritants",
      "confidence": 1.0,
      "uuid": "9d2b9572-8c3e-48a4-ac68-63d6e2eb6f49",
      "name": "Irritants",
      "url": "https://haz-map.com/Agents/2063",
      "category": "agents"
    },
    {
      "type": "name_match",
      "text": "ht",
      "confidence": 1.0,
      "uuid": "764df367-8d53-4a11-81a2-31ccfe122a8d",
      "name": "HT",
      "url": "https://haz-map.com/Agents/2168",
      "category": "agents"
    },
    {
      "type": "name_match",
      "text": "2-naphthoic acid",
      "confidence": 1.0,
      "uuid": "8d9128af-c45a-408b-a421-ed31fc06326e",
      "name": "2-Naphthoic acid",
      "url": "https://haz-map.com/Agents/2481",
      "category": "agents"
    },
    {
      "type": "name_match",
      "text": "2-naphthol",
      "confidence": 1.0,
      "uuid": "152d75dd-ac6f-405f-bd70-2861b7454612",
      "name": "2-Naphthol",
      "url": "https://haz-map.com/Agents/3143",
      "category": "agents"
    },
    {
      "type": "name_match",
      "text": "3-hydroxy-2-naphthalenecarboxylic acid",
      "confidence": 1.0,
      "uuid": "68f39124-872c-429d-990b-e9edf09ffc37",
      "name": "3-Hydroxy-2-naphthalenecarboxylic acid",
      "url": "https://haz-map.com/Agents/3466",
      "category": "agents"
    },
    {
      "type": "name_match",
      "text": "dde",
      "confidence": 1.0,
      "uuid": "88506fb4-e7b1-4bde-a283-917057f67fc2",
      "name": "DDE",
      "url": "https://haz-map.com/Agents/4656",
      "category": "agents"
    },
    {
      "type": "fuzzy_match",
      "text": "crystalline",
      "matched_name": "Silica, crystalline",
      "confidence": 0.7061403508771931,
      "uuid": "f920e8a2-46df-41b7-af8d-0368a777251e",
      "category": "agents",
      "url": "https://haz-map.com/Agents/427"
    }
  ],
  "all_links": [
    {
      "text": "Search PubMed",
      "url": "https://www.ncbi.nlm.nih.gov/pubmed?term=3-Hydroxy-2-naphthalenecarboxylic+acid%20AND%20human%5Bmh%5D%20AND%20%28Occupational%20Diseases%20%5Bmh%5D%20OR%20Occupational%20Exposure%20%5Bmh%5D%29%20%20AND%20%28tox%5Bsb%5D%29&cmd=search"
    }
  ]
}