{
  "metadata": {
    "scraped_from": "https://haz-map.com/Agents/21451",
    "entity_name": "Phenethyl isothiocyanate",
    "category": "agents",
    "uuid": "6954a308-ce5e-4181-be01-b8dfe7a8e969",
    "scraped_at": "2025-07-23T22:44:13.266430"
  },
  "parsed_at": "2025-07-24T00:53:22.435009",
  "title": "Phenethyl isothiocyanate",
  "sections": {
    "general": {
      "agent_name": {
        "original_name": "Agent Name",
        "value": "Phenethyl isothiocyanate",
        "links": [],
        "cross_references": [
          {
            "type": "name_match",
            "text": "phenethyl isothiocyanate",
            "confidence": 1.0,
            "uuid": "6954a308-ce5e-4181-be01-b8dfe7a8e969",
            "name": "Phenethyl isothiocyanate",
            "url": "https://haz-map.com/Agents/21451",
            "category": "agents"
          }
        ]
      },
      "cas_number": {
        "original_name": "CAS Number",
        "value": "2257-09-2",
        "links": [],
        "cross_references": []
      },
      "formula": {
        "original_name": "Formula",
        "value": "C9-H9-N-S",
        "links": [],
        "cross_references": []
      },
      "major_category": {
        "original_name": "Major Category",
        "value": "Nitrogen Compounds",
        "links": [],
        "cross_references": [
          {
            "type": "name_match",
            "text": "nitrogen",
            "confidence": 1.0,
            "uuid": "db5e90a9-06d2-45b9-8b81-f345a89b0bc0",
            "name": "Nitrogen",
            "url": "https://haz-map.com/Agents/1072",
            "category": "agents"
          }
        ]
      },
      "synonyms": {
        "original_name": "Synonyms",
        "value": "2-Phenylethyl isothiocyanate; ; Benzene, (2-isothiocyanatoethyl)-; Phenethyl mustard oil; Phenylaethylsenfoel [German]; Phenylethyl isothiocyanate; Phenylethyl mustard oil; Isothiocyanic acid, phenethyl ester; [ChemIDplus] (2-Isothiocyanatoethyl)benzene; PEITC; [Merck Index] beta-Phenethyl isothiocyanate; beta-Phenylethyl isothiocyanate; [RTECS] UN2206",
        "links": [],
        "cross_references": [
          {
            "type": "name_match",
            "text": "benzene",
            "confidence": 1.0,
            "uuid": "b05124de-5f34-4c14-8f04-ccb20c3780d9",
            "name": "Benzene",
            "url": "https://haz-map.com/Agents/5",
            "category": "agents"
          },
          {
            "type": "name_match",
            "text": "thiocyanic acid",
            "confidence": 1.0,
            "uuid": "1ea9faab-6fd3-4195-bb95-eb98a8e81823",
            "name": "Thiocyanic acid",
            "url": "https://haz-map.com/Agents/19869",
            "category": "agents"
          },
          {
            "type": "name_match",
            "text": "phenethyl isothiocyanate",
            "confidence": 1.0,
            "uuid": "6954a308-ce5e-4181-be01-b8dfe7a8e969",
            "name": "Phenethyl isothiocyanate",
            "url": "https://haz-map.com/Agents/21451",
            "category": "agents"
          }
        ]
      },
      "category": {
        "original_name": "Category",
        "value": "Isothiocyanates",
        "links": [],
        "cross_references": []
      },
      "description": {
        "original_name": "Description",
        "value": "Colorless to pale yellow liquid; [Merck Index] Clear colorless liquid; [Sigma-Aldrich MSDS]",
        "links": [],
        "cross_references": []
      },
      "sourcesuses": {
        "original_name": "Sources/Uses",
        "value": "Present in cruciferous vegetables; Used as a flavor (hot/burning taste in horseradish); [Merck Index] Used as a flavoring agent; [FDA]",
        "links": [],
        "cross_references": [
          {
            "type": "name_match",
            "text": "burn",
            "confidence": 1.0,
            "uuid": "63665de5-6376-4918-8dbf-4c10c4d63837",
            "name": "burn",
            "url": "https://haz-map.com/Findings/204",
            "category": "findings"
          }
        ]
      },
      "comments": {
        "original_name": "Comments",
        "value": "Causes inflammation or scarring of the bladder in acute oral studies of rats; [RTECS] Safe when used as a flavoring agent in food; [EFSA] A skin and strong eye irritant; May cause skin and respiratory sensitization; Harmful by ingestion, inhalation, and skin absorption; [Sigma-Aldrich MSDS] See \"Methyl isothiocyanate\" and \"Phenyl isothiocyanate.\"",
        "links": [],
        "cross_references": [
          {
            "type": "name_match",
            "text": "methyl isothiocyanate",
            "confidence": 1.0,
            "uuid": "1206aa6c-c9f4-4c51-9349-98118079e9c4",
            "name": "Methyl isothiocyanate",
            "url": "https://haz-map.com/Agents/1514",
            "category": "agents"
          },
          {
            "type": "name_match",
            "text": "dde",
            "confidence": 1.0,
            "uuid": "88506fb4-e7b1-4bde-a283-917057f67fc2",
            "name": "DDE",
            "url": "https://haz-map.com/Agents/4656",
            "category": "agents"
          },
          {
            "type": "name_match",
            "text": "phenyl isothiocyanate",
            "confidence": 1.0,
            "uuid": "b58ee6c6-6e1f-4bb7-93f8-65f1b63354ef",
            "name": "Phenyl isothiocyanate",
            "url": "https://haz-map.com/Agents/16548",
            "category": "agents"
          }
        ]
      },
      "biomedical_references": {
        "original_name": "Biomedical References",
        "value": "Search PubMed",
        "links": [
          {
            "text": "Search PubMed",
            "url": "https://www.ncbi.nlm.nih.gov/pubmed?term=Phenethyl+isothiocyanate%20AND%20human%5Bmh%5D%20AND%20%28Occupational%20Diseases%20%5Bmh%5D%20OR%20Occupational%20Exposure%20%5Bmh%5D%29%20%20AND%20%28tox%5Bsb%5D%29&cmd=search"
          }
        ],
        "cross_references": []
      }
    },
    "exposure_assessment": {
      "vapor_pressure": {
        "original_name": "Vapor Pressure",
        "value": "0.011 mm Hg",
        "links": [],
        "cross_references": []
      },
      "explanatory_notes": {
        "original_name": "Explanatory Notes",
        "value": "The Guide in the Emergency Response Guidebook is for \"Isocyanate solution, toxic, n.o.s.\"",
        "links": [],
        "cross_references": []
      }
    },
    "adverse_effects": {
      "skin_sensitizer": {
        "original_name": "Skin Sensitizer",
        "value": "Yes",
        "links": [],
        "cross_references": []
      }
    },
    "diseases_processes_and_activities_linked_to_this_agent": {
      "diseases": {
        "original_name": "Diseases",
        "value": "Occupational diseases associated with exposure to this agent: Contact dermatitis, allergic",
        "links": [
          {
            "text": "Contact dermatitis, allergic",
            "url": "https://haz-map.com/Diseases/18"
          }
        ],
        "cross_references": [
          {
            "type": "url_match",
            "text": "Contact dermatitis, allergic",
            "url": "https://haz-map.com/Diseases/18",
            "confidence": 1.0,
            "uuid": "c9499de0-9aa1-41bf-8753-cd5b28a63e29",
            "name": "Contact dermatitis, allergic",
            "category": "diseases"
          },
          {
            "type": "name_match",
            "text": "dermatitis",
            "confidence": 1.0,
            "uuid": "fe9c05f2-b19f-4ceb-ac7a-ffb7d7a0cae0",
            "name": "dermatitis",
            "url": "https://haz-map.com/Findings/59",
            "category": "findings"
          }
        ]
      }
    }
  },
  "cross_references": [
    {
      "type": "url_match",
      "text": "Contact dermatitis, allergic",
      "url": "https://haz-map.com/Diseases/18",
      "confidence": 1.0,
      "uuid": "c9499de0-9aa1-41bf-8753-cd5b28a63e29",
      "name": "Contact dermatitis, allergic",
      "category": "diseases"
    },
    {
      "type": "name_match",
      "text": "dermatitis",
      "confidence": 1.0,
      "uuid": "fe9c05f2-b19f-4ceb-ac7a-ffb7d7a0cae0",
      "name": "dermatitis",
      "url": "https://haz-map.com/Findings/59",
      "category": "findings"
    },
    {
      "type": "name_match",
      "text": "burn",
      "confidence": 1.0,
      "uuid": "63665de5-6376-4918-8dbf-4c10c4d63837",
      "name": "burn",
      "url": "https://haz-map.com/Findings/204",
      "category": "findings"
    },
    {
      "type": "name_match",
      "text": "benzene",
      "confidence": 1.0,
      "uuid": "b05124de-5f34-4c14-8f04-ccb20c3780d9",
      "name": "Benzene",
      "url": "https://haz-map.com/Agents/5",
      "category": "agents"
    },
    {
      "type": "name_match",
      "text": "nitrogen",
      "confidence": 1.0,
      "uuid": "db5e90a9-06d2-45b9-8b81-f345a89b0bc0",
      "name": "Nitrogen",
      "url": "https://haz-map.com/Agents/1072",
      "category": "agents"
    },
    {
      "type": "name_match",
      "text": "methyl isothiocyanate",
      "confidence": 1.0,
      "uuid": "1206aa6c-c9f4-4c51-9349-98118079e9c4",
      "name": "Methyl isothiocyanate",
      "url": "https://haz-map.com/Agents/1514",
      "category": "agents"
    },
    {
      "type": "name_match",
      "text": "dde",
      "confidence": 1.0,
      "uuid": "88506fb4-e7b1-4bde-a283-917057f67fc2",
      "name": "DDE",
      "url": "https://haz-map.com/Agents/4656",
      "category": "agents"
    },
    {
      "type": "name_match",
      "text": "phenyl isothiocyanate",
      "confidence": 1.0,
      "uuid": "b58ee6c6-6e1f-4bb7-93f8-65f1b63354ef",
      "name": "Phenyl isothiocyanate",
      "url": "https://haz-map.com/Agents/16548",
      "category": "agents"
    },
    {
      "type": "name_match",
      "text": "thiocyanic acid",
      "confidence": 1.0,
      "uuid": "1ea9faab-6fd3-4195-bb95-eb98a8e81823",
      "name": "Thiocyanic acid",
      "url": "https://haz-map.com/Agents/19869",
      "category": "agents"
    },
    {
      "type": "name_match",
      "text": "phenethyl isothiocyanate",
      "confidence": 1.0,
      "uuid": "6954a308-ce5e-4181-be01-b8dfe7a8e969",
      "name": "Phenethyl isothiocyanate",
      "url": "https://haz-map.com/Agents/21451",
      "category": "agents"
    }
  ],
  "all_links": [
    {
      "text": "Search PubMed",
      "url": "https://www.ncbi.nlm.nih.gov/pubmed?term=Phenethyl+isothiocyanate%20AND%20human%5Bmh%5D%20AND%20%28Occupational%20Diseases%20%5Bmh%5D%20OR%20Occupational%20Exposure%20%5Bmh%5D%29%20%20AND%20%28tox%5Bsb%5D%29&cmd=search"
    },
    {
      "text": "Contact dermatitis, allergic",
      "url": "https://haz-map.com/Diseases/18"
    }
  ]
}