{
  "metadata": {
    "scraped_from": "https://haz-map.com/Agents/13623",
    "entity_name": "Decyl acetate",
    "category": "agents",
    "uuid": "69560999-66c8-4f7f-a066-6533ee50b5b3",
    "scraped_at": "2025-07-23T21:16:22.399704"
  },
  "parsed_at": "2025-07-24T01:12:02.867062",
  "title": "Decyl acetate",
  "sections": {
    "general": {
      "agent_name": {
        "original_name": "Agent Name",
        "value": "Decyl acetate",
        "links": [],
        "cross_references": [
          {
            "type": "name_match",
            "text": "decyl acetate",
            "confidence": 1.0,
            "uuid": "69560999-66c8-4f7f-a066-6533ee50b5b3",
            "name": "Decyl acetate",
            "url": "https://haz-map.com/Agents/13623",
            "category": "agents"
          }
        ]
      },
      "cas_number": {
        "original_name": "CAS Number",
        "value": "112-17-4",
        "links": [],
        "cross_references": []
      },
      "formula": {
        "original_name": "Formula",
        "value": "C12-H24-O2",
        "links": [],
        "cross_references": []
      },
      "major_category": {
        "original_name": "Major Category",
        "value": "Other Classes",
        "links": [],
        "cross_references": []
      },
      "synonyms": {
        "original_name": "Synonyms",
        "value": "1-Decanol acetate; 1-Decyl acetate; Acetate C 10; Acetic acid, decyl ester; Decanyl acetate; Decyl alcohol, acetate (6CI); Decyl ethanoate; n-Decyl acetate; n-Decyl ethanoate; [ChemIDplus]",
        "links": [],
        "cross_references": [
          {
            "type": "name_match",
            "text": "acetic acid",
            "confidence": 1.0,
            "uuid": "0905c6e4-df84-4895-a92d-658819239bbd",
            "name": "Acetic acid",
            "url": "https://haz-map.com/Agents/207",
            "category": "agents"
          },
          {
            "type": "name_match",
            "text": "1-decanol",
            "confidence": 1.0,
            "uuid": "4ce953ac-6e07-4bed-a15a-d6a3b0298a28",
            "name": "1-Decanol",
            "url": "https://haz-map.com/Agents/1895",
            "category": "agents"
          },
          {
            "type": "name_match",
            "text": "decyl acetate",
            "confidence": 1.0,
            "uuid": "69560999-66c8-4f7f-a066-6533ee50b5b3",
            "name": "Decyl acetate",
            "url": "https://haz-map.com/Agents/13623",
            "category": "agents"
          }
        ]
      },
      "category": {
        "original_name": "Category",
        "value": "Esters, Other",
        "links": [],
        "cross_references": []
      },
      "description": {
        "original_name": "Description",
        "value": "Liquid; [Alfa Aesar MSDS]",
        "links": [],
        "cross_references": []
      },
      "sourcesuses": {
        "original_name": "Sources/Uses",
        "value": "Used as flavoring agent or adjuvant; [FDA]",
        "links": [],
        "cross_references": []
      },
      "comments": {
        "original_name": "Comments",
        "value": "Safe when used as a flavoring agent in food; [JECFA] May cause irritation; [Alfa Aesar MSDS]",
        "links": [],
        "cross_references": []
      },
      "biomedical_references": {
        "original_name": "Biomedical References",
        "value": "Search PubMed",
        "links": [
          {
            "text": "Search PubMed",
            "url": "https://www.ncbi.nlm.nih.gov/pubmed?term=Decyl+acetate%20AND%20human%5Bmh%5D%20AND%20%28Occupational%20Diseases%20%5Bmh%5D%20OR%20Occupational%20Exposure%20%5Bmh%5D%29%20%20AND%20%28tox%5Bsb%5D%29&cmd=search"
          }
        ],
        "cross_references": []
      }
    },
    "exposure_assessment": {
      "vapor_pressure": {
        "original_name": "Vapor Pressure",
        "value": "0.00347 mm Hg",
        "links": [],
        "cross_references": []
      },
      "explanatory_notes": {
        "original_name": "Explanatory Notes",
        "value": "VP from ChemIDplus;",
        "links": [],
        "cross_references": []
      }
    },
    "diseases_processes_and_activities_linked_to_this_agent": {
      "other_information": {
        "original_name": "Other Information",
        "value": "No other related information on this agent was found.",
        "links": [],
        "cross_references": []
      }
    }
  },
  "cross_references": [
    {
      "type": "name_match",
      "text": "acetic acid",
      "confidence": 1.0,
      "uuid": "0905c6e4-df84-4895-a92d-658819239bbd",
      "name": "Acetic acid",
      "url": "https://haz-map.com/Agents/207",
      "category": "agents"
    },
    {
      "type": "name_match",
      "text": "1-decanol",
      "confidence": 1.0,
      "uuid": "4ce953ac-6e07-4bed-a15a-d6a3b0298a28",
      "name": "1-Decanol",
      "url": "https://haz-map.com/Agents/1895",
      "category": "agents"
    },
    {
      "type": "name_match",
      "text": "decyl acetate",
      "confidence": 1.0,
      "uuid": "69560999-66c8-4f7f-a066-6533ee50b5b3",
      "name": "Decyl acetate",
      "url": "https://haz-map.com/Agents/13623",
      "category": "agents"
    }
  ],
  "all_links": [
    {
      "text": "Search PubMed",
      "url": "https://www.ncbi.nlm.nih.gov/pubmed?term=Decyl+acetate%20AND%20human%5Bmh%5D%20AND%20%28Occupational%20Diseases%20%5Bmh%5D%20OR%20Occupational%20Exposure%20%5Bmh%5D%29%20%20AND%20%28tox%5Bsb%5D%29&cmd=search"
    }
  ]
}