{
  "metadata": {
    "scraped_from": "https://haz-map.com/Agents/13561",
    "entity_name": "Cystine",
    "category": "agents",
    "uuid": "69e79aa0-86e2-4d31-8767-2f397d0385c7",
    "scraped_at": "2025-07-23T21:15:55.458164"
  },
  "parsed_at": "2025-07-24T01:09:22.984968",
  "title": "Cystine",
  "sections": {
    "general": {
      "agent_name": {
        "original_name": "Agent Name",
        "value": "Cystine",
        "links": [],
        "cross_references": [
          {
            "type": "name_match",
            "text": "cystine",
            "confidence": 1.0,
            "uuid": "69e79aa0-86e2-4d31-8767-2f397d0385c7",
            "name": "Cystine",
            "url": "https://haz-map.com/Agents/13561",
            "category": "agents"
          }
        ]
      },
      "cas_number": {
        "original_name": "CAS Number",
        "value": "56-89-3",
        "links": [],
        "cross_references": []
      },
      "formula": {
        "original_name": "Formula",
        "value": "C6-H12-N2-O4-S2",
        "links": [],
        "cross_references": []
      },
      "major_category": {
        "original_name": "Major Category",
        "value": "Biological Agents",
        "links": [],
        "cross_references": []
      },
      "synonyms": {
        "original_name": "Synonyms",
        "value": "(R-(R*,R*))-3,3'-Dithiobis(2-aminopropanoic acid); 3,3'-Dithiodialanine; Alanine, 3,3'-dithiobis-; Alanine, 3,3'-dithiodi-; Bis(beta-amino-beta-carboxyethyl)disulfide; Cysteine disulfide; Cystin; Cystine (L)-; Cystine acid; Dicysteine; L-Alanine, 3,3'-dithiobis-; L-Cysteine disulfide; L-Cystin; Oxidized L-cysteine; Propanoic acid, 3,3'-dithiobis(2-amino-, (R-(R*,R*))-; beta,beta'-Diamino-beta,beta'-dicarboxydiethyl disulfide; beta,beta'-Diamino-beta,beta'-dicarboxydiethyldisulfide; beta,beta'-Dithioalanine, L-; L-Cystine; Cystine, L-; [ChemIDplus] alpha-Diamino-beta-dithiolactic acid; Gelucystine; [Merck Index] (-)-Cystine; 1-Cystine; L-(-)-Cystine; [RTECS]",
        "links": [],
        "cross_references": [
          {
            "type": "name_match",
            "text": "lactic acid",
            "confidence": 1.0,
            "uuid": "6a34838d-06cd-4af9-9313-208a12a6819b",
            "name": "Lactic acid",
            "url": "https://haz-map.com/Agents/1416",
            "category": "agents"
          },
          {
            "type": "name_match",
            "text": "alanine",
            "confidence": 1.0,
            "uuid": "0829012c-76c4-4cb5-91ac-cacb73278dc5",
            "name": "Alanine",
            "url": "https://haz-map.com/Agents/11406",
            "category": "agents"
          },
          {
            "type": "name_match",
            "text": "cysteine",
            "confidence": 1.0,
            "uuid": "1172412c-8165-4312-af39-1107dc30e4f4",
            "name": "Cysteine",
            "url": "https://haz-map.com/Agents/13558",
            "category": "agents"
          },
          {
            "type": "name_match",
            "text": "cystine",
            "confidence": 1.0,
            "uuid": "69e79aa0-86e2-4d31-8767-2f397d0385c7",
            "name": "Cystine",
            "url": "https://haz-map.com/Agents/13561",
            "category": "agents"
          },
          {
            "type": "name_match",
            "text": "diethyl disulfide",
            "confidence": 1.0,
            "uuid": "118ae0be-073e-4c09-93a8-e538ab9f67b3",
            "name": "Diethyl disulfide",
            "url": "https://haz-map.com/Agents/20779",
            "category": "agents"
          }
        ]
      },
      "category": {
        "original_name": "Category",
        "value": "Amino Acids and Derivatives",
        "links": [],
        "cross_references": []
      },
      "description": {
        "original_name": "Description",
        "value": "Solid; [Merck Index] White powder; [Sigma-Aldrich MSDS]",
        "links": [],
        "cross_references": []
      },
      "sourcesuses": {
        "original_name": "Sources/Uses",
        "value": "A non-essential amino acid (a dimerization of two cysteine molecules); [Merck Index] Used as a flavoring agent, dough strengthener, and nutritional supplement for foods; [FDA]",
        "links": [],
        "cross_references": [
          {
            "type": "name_match",
            "text": "cysteine",
            "confidence": 1.0,
            "uuid": "1172412c-8165-4312-af39-1107dc30e4f4",
            "name": "Cysteine",
            "url": "https://haz-map.com/Agents/13558",
            "category": "agents"
          }
        ]
      },
      "comments": {
        "original_name": "Comments",
        "value": "May cause irritation; [Sigma-Aldrich MSDS]",
        "links": [],
        "cross_references": []
      },
      "biomedical_references": {
        "original_name": "Biomedical References",
        "value": "Search PubMed",
        "links": [
          {
            "text": "Search PubMed",
            "url": "https://www.ncbi.nlm.nih.gov/pubmed?term=Cystine%20AND%20human%5Bmh%5D%20AND%20%28Occupational%20Diseases%20%5Bmh%5D%20OR%20Occupational%20Exposure%20%5Bmh%5D%29%20%20AND%20%28tox%5Bsb%5D%29&cmd=search"
          }
        ],
        "cross_references": []
      }
    },
    "exposure_assessment": {
      "vapor_pressure": {
        "original_name": "Vapor Pressure",
        "value": "2.12E-10 mm Hg",
        "links": [],
        "cross_references": []
      }
    },
    "diseases_processes_and_activities_linked_to_this_agent": {
      "other_information": {
        "original_name": "Other Information",
        "value": "No other related information on this agent was found.",
        "links": [],
        "cross_references": []
      }
    }
  },
  "cross_references": [
    {
      "type": "name_match",
      "text": "lactic acid",
      "confidence": 1.0,
      "uuid": "6a34838d-06cd-4af9-9313-208a12a6819b",
      "name": "Lactic acid",
      "url": "https://haz-map.com/Agents/1416",
      "category": "agents"
    },
    {
      "type": "name_match",
      "text": "alanine",
      "confidence": 1.0,
      "uuid": "0829012c-76c4-4cb5-91ac-cacb73278dc5",
      "name": "Alanine",
      "url": "https://haz-map.com/Agents/11406",
      "category": "agents"
    },
    {
      "type": "name_match",
      "text": "cysteine",
      "confidence": 1.0,
      "uuid": "1172412c-8165-4312-af39-1107dc30e4f4",
      "name": "Cysteine",
      "url": "https://haz-map.com/Agents/13558",
      "category": "agents"
    },
    {
      "type": "name_match",
      "text": "cystine",
      "confidence": 1.0,
      "uuid": "69e79aa0-86e2-4d31-8767-2f397d0385c7",
      "name": "Cystine",
      "url": "https://haz-map.com/Agents/13561",
      "category": "agents"
    },
    {
      "type": "name_match",
      "text": "diethyl disulfide",
      "confidence": 1.0,
      "uuid": "118ae0be-073e-4c09-93a8-e538ab9f67b3",
      "name": "Diethyl disulfide",
      "url": "https://haz-map.com/Agents/20779",
      "category": "agents"
    }
  ],
  "all_links": [
    {
      "text": "Search PubMed",
      "url": "https://www.ncbi.nlm.nih.gov/pubmed?term=Cystine%20AND%20human%5Bmh%5D%20AND%20%28Occupational%20Diseases%20%5Bmh%5D%20OR%20Occupational%20Exposure%20%5Bmh%5D%29%20%20AND%20%28tox%5Bsb%5D%29&cmd=search"
    }
  ]
}