{
  "metadata": {
    "scraped_from": "https://haz-map.com/Agents/21213",
    "entity_name": "N-Carbethoxyphthalimide",
    "category": "agents",
    "uuid": "6ac9bef1-ce7b-4738-a908-8908aa52d198",
    "scraped_at": "2025-07-23T22:39:40.713869"
  },
  "parsed_at": "2025-07-24T01:06:18.725911",
  "title": "N-Carbethoxyphthalimide",
  "sections": {
    "general": {
      "agent_name": {
        "original_name": "Agent Name",
        "value": "N-Carbethoxyphthalimide",
        "links": [],
        "cross_references": [
          {
            "type": "name_match",
            "text": "ht",
            "confidence": 1.0,
            "uuid": "764df367-8d53-4a11-81a2-31ccfe122a8d",
            "name": "HT",
            "url": "https://haz-map.com/Agents/2168",
            "category": "agents"
          },
          {
            "type": "name_match",
            "text": "phthalimide",
            "confidence": 1.0,
            "uuid": "c6cef4f8-7d25-450e-95a8-afe176cedc4e",
            "name": "Phthalimide",
            "url": "https://haz-map.com/Agents/6704",
            "category": "agents"
          },
          {
            "type": "name_match",
            "text": "n-carbethoxyphthalimide",
            "confidence": 1.0,
            "uuid": "6ac9bef1-ce7b-4738-a908-8908aa52d198",
            "name": "N-Carbethoxyphthalimide",
            "url": "https://haz-map.com/Agents/21213",
            "category": "agents"
          }
        ]
      },
      "cas_number": {
        "original_name": "CAS Number",
        "value": "22509-74-6",
        "links": [],
        "cross_references": []
      },
      "formula": {
        "original_name": "Formula",
        "value": "C11-H9-N-O4",
        "links": [],
        "cross_references": []
      },
      "major_category": {
        "original_name": "Major Category",
        "value": "Nitrogen Compounds",
        "links": [],
        "cross_references": [
          {
            "type": "name_match",
            "text": "nitrogen",
            "confidence": 1.0,
            "uuid": "db5e90a9-06d2-45b9-8b81-f345a89b0bc0",
            "name": "Nitrogen",
            "url": "https://haz-map.com/Agents/1072",
            "category": "agents"
          }
        ]
      },
      "synonyms": {
        "original_name": "Synonyms",
        "value": "Ethyl N-phthaloylcarbamate; N-(Ethoxycarbonyl)phthalimide; N-Carboethoxyphthalimide; N-Karbetoksi-ftalimid [Yugoslavian]; Phthalimide-N-carbethoxy; 2-Isoindolinecarboxylic acid, 1,3-dioxo-, ethyl ester; 2H-Isoindole-2-carboxylic acid, 1,3-dihydro-1,3-dioxo-, ethyl ester; Ethyl 1,3-dihydro-1,3-dioxo-2H-isoindole-2-carboxylate; [ChemIDplus]",
        "links": [],
        "cross_references": [
          {
            "type": "name_match",
            "text": "tali",
            "confidence": 1.0,
            "uuid": "8c3a0f99-2143-4122-b539-ec5cc49596b0",
            "name": "Tali",
            "url": "https://haz-map.com/Agents/1128",
            "category": "agents"
          },
          {
            "type": "name_match",
            "text": "carbon",
            "confidence": 1.0,
            "uuid": "b53f8815-ee80-40ef-b4aa-3b000e17dab5",
            "name": "Carbon",
            "url": "https://haz-map.com/Agents/1891",
            "category": "agents"
          },
          {
            "type": "name_match",
            "text": "ht",
            "confidence": 1.0,
            "uuid": "764df367-8d53-4a11-81a2-31ccfe122a8d",
            "name": "HT",
            "url": "https://haz-map.com/Agents/2168",
            "category": "agents"
          },
          {
            "type": "name_match",
            "text": "indole",
            "confidence": 1.0,
            "uuid": "9c93731a-de8c-47f7-94f9-bfba35edd847",
            "name": "Indole",
            "url": "https://haz-map.com/Agents/5628",
            "category": "agents"
          },
          {
            "type": "name_match",
            "text": "phthalimide",
            "confidence": 1.0,
            "uuid": "c6cef4f8-7d25-450e-95a8-afe176cedc4e",
            "name": "Phthalimide",
            "url": "https://haz-map.com/Agents/6704",
            "category": "agents"
          },
          {
            "type": "name_match",
            "text": "indoline",
            "confidence": 1.0,
            "uuid": "27dcc4a6-aaa5-4eea-a7c0-89f290b9659c",
            "name": "Indoline",
            "url": "https://haz-map.com/Agents/14881",
            "category": "agents"
          }
        ]
      },
      "category": {
        "original_name": "Category",
        "value": "Other Nitrogen Rings",
        "links": [],
        "cross_references": [
          {
            "type": "name_match",
            "text": "nitrogen",
            "confidence": 1.0,
            "uuid": "db5e90a9-06d2-45b9-8b81-f345a89b0bc0",
            "name": "Nitrogen",
            "url": "https://haz-map.com/Agents/1072",
            "category": "agents"
          }
        ]
      },
      "description": {
        "original_name": "Description",
        "value": "Lumps or powder; [Alfa Aesar MSDS]",
        "links": [],
        "cross_references": []
      },
      "comments": {
        "original_name": "Comments",
        "value": "May cause irritation; [Alfa Aesar MSDS] See \"Phthalimide.\"",
        "links": [],
        "cross_references": [
          {
            "type": "name_match",
            "text": "ht",
            "confidence": 1.0,
            "uuid": "764df367-8d53-4a11-81a2-31ccfe122a8d",
            "name": "HT",
            "url": "https://haz-map.com/Agents/2168",
            "category": "agents"
          },
          {
            "type": "name_match",
            "text": "phthalimide",
            "confidence": 1.0,
            "uuid": "c6cef4f8-7d25-450e-95a8-afe176cedc4e",
            "name": "Phthalimide",
            "url": "https://haz-map.com/Agents/6704",
            "category": "agents"
          }
        ]
      },
      "biomedical_references": {
        "original_name": "Biomedical References",
        "value": "Search PubMed",
        "links": [
          {
            "text": "Search PubMed",
            "url": "https://www.ncbi.nlm.nih.gov/pubmed?term=N-Carbethoxyphthalimide%20AND%20human%5Bmh%5D%20AND%20%28Occupational%20Diseases%20%5Bmh%5D%20OR%20Occupational%20Exposure%20%5Bmh%5D%29%20%20AND%20%28tox%5Bsb%5D%29&cmd=search"
          }
        ],
        "cross_references": []
      }
    },
    "exposure_assessment": {
      "vapor_pressure": {
        "original_name": "Vapor Pressure",
        "value": "2.32E-08 mm Hg",
        "links": [],
        "cross_references": []
      }
    },
    "diseases_processes_and_activities_linked_to_this_agent": {
      "other_information": {
        "original_name": "Other Information",
        "value": "No other related information on this agent was found.",
        "links": [],
        "cross_references": []
      }
    }
  },
  "cross_references": [
    {
      "type": "name_match",
      "text": "nitrogen",
      "confidence": 1.0,
      "uuid": "db5e90a9-06d2-45b9-8b81-f345a89b0bc0",
      "name": "Nitrogen",
      "url": "https://haz-map.com/Agents/1072",
      "category": "agents"
    },
    {
      "type": "name_match",
      "text": "tali",
      "confidence": 1.0,
      "uuid": "8c3a0f99-2143-4122-b539-ec5cc49596b0",
      "name": "Tali",
      "url": "https://haz-map.com/Agents/1128",
      "category": "agents"
    },
    {
      "type": "name_match",
      "text": "carbon",
      "confidence": 1.0,
      "uuid": "b53f8815-ee80-40ef-b4aa-3b000e17dab5",
      "name": "Carbon",
      "url": "https://haz-map.com/Agents/1891",
      "category": "agents"
    },
    {
      "type": "name_match",
      "text": "ht",
      "confidence": 1.0,
      "uuid": "764df367-8d53-4a11-81a2-31ccfe122a8d",
      "name": "HT",
      "url": "https://haz-map.com/Agents/2168",
      "category": "agents"
    },
    {
      "type": "name_match",
      "text": "indole",
      "confidence": 1.0,
      "uuid": "9c93731a-de8c-47f7-94f9-bfba35edd847",
      "name": "Indole",
      "url": "https://haz-map.com/Agents/5628",
      "category": "agents"
    },
    {
      "type": "name_match",
      "text": "phthalimide",
      "confidence": 1.0,
      "uuid": "c6cef4f8-7d25-450e-95a8-afe176cedc4e",
      "name": "Phthalimide",
      "url": "https://haz-map.com/Agents/6704",
      "category": "agents"
    },
    {
      "type": "name_match",
      "text": "indoline",
      "confidence": 1.0,
      "uuid": "27dcc4a6-aaa5-4eea-a7c0-89f290b9659c",
      "name": "Indoline",
      "url": "https://haz-map.com/Agents/14881",
      "category": "agents"
    },
    {
      "type": "name_match",
      "text": "n-carbethoxyphthalimide",
      "confidence": 1.0,
      "uuid": "6ac9bef1-ce7b-4738-a908-8908aa52d198",
      "name": "N-Carbethoxyphthalimide",
      "url": "https://haz-map.com/Agents/21213",
      "category": "agents"
    }
  ],
  "all_links": [
    {
      "text": "Search PubMed",
      "url": "https://www.ncbi.nlm.nih.gov/pubmed?term=N-Carbethoxyphthalimide%20AND%20human%5Bmh%5D%20AND%20%28Occupational%20Diseases%20%5Bmh%5D%20OR%20Occupational%20Exposure%20%5Bmh%5D%29%20%20AND%20%28tox%5Bsb%5D%29&cmd=search"
    }
  ]
}