{
  "metadata": {
    "scraped_from": "https://haz-map.com/Agents/2800",
    "entity_name": "1,3-Dimethylurea",
    "category": "agents",
    "uuid": "6b03ed3a-89c5-4dfc-ac1e-7df0c4990062",
    "scraped_at": "2025-07-23T19:19:07.911430"
  },
  "parsed_at": "2025-07-24T01:11:44.453588",
  "title": "1,3-Dimethylurea",
  "sections": {
    "general": {
      "agent_name": {
        "original_name": "Agent Name",
        "value": "1,3-Dimethylurea",
        "links": [],
        "cross_references": [
          {
            "type": "name_match",
            "text": "urea",
            "confidence": 1.0,
            "uuid": "a92a6129-bddd-4f79-9a78-136812ae610f",
            "name": "Urea",
            "url": "https://haz-map.com/Agents/2078",
            "category": "agents"
          },
          {
            "type": "name_match",
            "text": "1,3-dimethylurea",
            "confidence": 1.0,
            "uuid": "6b03ed3a-89c5-4dfc-ac1e-7df0c4990062",
            "name": "1,3-Dimethylurea",
            "url": "https://haz-map.com/Agents/2800",
            "category": "agents"
          },
          {
            "type": "name_match",
            "text": "methylurea",
            "confidence": 1.0,
            "uuid": "b888d9c8-b4c5-4fa1-8a2a-b0823b193d30",
            "name": "Methylurea",
            "url": "https://haz-map.com/Agents/21164",
            "category": "agents"
          }
        ]
      },
      "cas_number": {
        "original_name": "CAS Number",
        "value": "96-31-1",
        "links": [],
        "cross_references": []
      },
      "formula": {
        "original_name": "Formula",
        "value": "C3-H8-N2-O",
        "links": [],
        "cross_references": []
      },
      "major_category": {
        "original_name": "Major Category",
        "value": "Nitrogen Compounds",
        "links": [],
        "cross_references": [
          {
            "type": "name_match",
            "text": "nitrogen",
            "confidence": 1.0,
            "uuid": "db5e90a9-06d2-45b9-8b81-f345a89b0bc0",
            "name": "Nitrogen",
            "url": "https://haz-map.com/Agents/1072",
            "category": "agents"
          }
        ]
      },
      "synonyms": {
        "original_name": "Synonyms",
        "value": "DMU; N,N'-Dimethylharnstoff [German]; N,N'-Dimethylurea; Symmetric dimethylurea; sym-Dimethylurea; Urea, 1,3-dimethyl-; Urea, N,N'-dimethyl-; [ChemIDplus]",
        "links": [],
        "cross_references": [
          {
            "type": "name_match",
            "text": "urea",
            "confidence": 1.0,
            "uuid": "a92a6129-bddd-4f79-9a78-136812ae610f",
            "name": "Urea",
            "url": "https://haz-map.com/Agents/2078",
            "category": "agents"
          },
          {
            "type": "name_match",
            "text": "methylurea",
            "confidence": 1.0,
            "uuid": "b888d9c8-b4c5-4fa1-8a2a-b0823b193d30",
            "name": "Methylurea",
            "url": "https://haz-map.com/Agents/21164",
            "category": "agents"
          }
        ]
      },
      "category": {
        "original_name": "Category",
        "value": "Urea Compounds",
        "links": [],
        "cross_references": [
          {
            "type": "name_match",
            "text": "urea",
            "confidence": 1.0,
            "uuid": "a92a6129-bddd-4f79-9a78-136812ae610f",
            "name": "Urea",
            "url": "https://haz-map.com/Agents/2078",
            "category": "agents"
          }
        ]
      },
      "description": {
        "original_name": "Description",
        "value": "Colorless solid; [Hawley] Sheet; [Alfa Aesar MSDS] Colorless powder; [OECD SIDS: 1,3-Dimethylurea - 2003]",
        "links": [],
        "cross_references": [
          {
            "type": "name_match",
            "text": "urea",
            "confidence": 1.0,
            "uuid": "a92a6129-bddd-4f79-9a78-136812ae610f",
            "name": "Urea",
            "url": "https://haz-map.com/Agents/2078",
            "category": "agents"
          },
          {
            "type": "name_match",
            "text": "1,3-dimethylurea",
            "confidence": 1.0,
            "uuid": "6b03ed3a-89c5-4dfc-ac1e-7df0c4990062",
            "name": "1,3-Dimethylurea",
            "url": "https://haz-map.com/Agents/2800",
            "category": "agents"
          },
          {
            "type": "name_match",
            "text": "methylurea",
            "confidence": 1.0,
            "uuid": "b888d9c8-b4c5-4fa1-8a2a-b0823b193d30",
            "name": "Methylurea",
            "url": "https://haz-map.com/Agents/21164",
            "category": "agents"
          }
        ]
      },
      "sourcesuses": {
        "original_name": "Sources/Uses",
        "value": "Used in pharmaceutical manufacturing; [Hawley] Used as an intermediate to make caffeine, pharmachemicals, textile aids, herbicides, paints, and cleaning products; [OECD SIDS: 1,3-Dimethylurea - 2003]",
        "links": [],
        "cross_references": [
          {
            "type": "name_match",
            "text": "mica",
            "confidence": 1.0,
            "uuid": "433f26f1-c399-4596-b179-ce3843cfd465",
            "name": "Mica",
            "url": "https://haz-map.com/Agents/621",
            "category": "agents"
          },
          {
            "type": "name_match",
            "text": "herbicides",
            "confidence": 1.0,
            "uuid": "195f29ae-3f15-47c5-836d-0a9791db3fc1",
            "name": "HERBICIDES",
            "url": "https://haz-map.com/Agents/703",
            "category": "agents"
          },
          {
            "type": "name_match",
            "text": "urea",
            "confidence": 1.0,
            "uuid": "a92a6129-bddd-4f79-9a78-136812ae610f",
            "name": "Urea",
            "url": "https://haz-map.com/Agents/2078",
            "category": "agents"
          },
          {
            "type": "name_match",
            "text": "1,3-dimethylurea",
            "confidence": 1.0,
            "uuid": "6b03ed3a-89c5-4dfc-ac1e-7df0c4990062",
            "name": "1,3-Dimethylurea",
            "url": "https://haz-map.com/Agents/2800",
            "category": "agents"
          },
          {
            "type": "name_match",
            "text": "caffeine",
            "confidence": 1.0,
            "uuid": "a7f97853-7b53-4bff-ae6b-5f7d1e70f90f",
            "name": "Caffeine",
            "url": "https://haz-map.com/Agents/4136",
            "category": "agents"
          },
          {
            "type": "name_match",
            "text": "methylurea",
            "confidence": 1.0,
            "uuid": "b888d9c8-b4c5-4fa1-8a2a-b0823b193d30",
            "name": "Methylurea",
            "url": "https://haz-map.com/Agents/21164",
            "category": "agents"
          }
        ]
      },
      "comments": {
        "original_name": "Comments",
        "value": "No evidence of mutagenicity; [HSDB] Not irritating to skin or eyes of rabbits; [IUCLID] An irritant; [Alfa Aesar MSDS] Causes tremor, cyanosis, and respiratory depression in intraperitoneal lethal-dose study of rats; [RTECS]",
        "links": [],
        "cross_references": [
          {
            "type": "name_match",
            "text": "tremor",
            "confidence": 1.0,
            "uuid": "5532ab3c-17c6-467e-a96a-d8807c63fb9e",
            "name": "tremor",
            "url": "https://haz-map.com/Findings/50",
            "category": "findings"
          }
        ]
      },
      "biomedical_references": {
        "original_name": "Biomedical References",
        "value": "Search PubMed",
        "links": [
          {
            "text": "Search PubMed",
            "url": "https://www.ncbi.nlm.nih.gov/pubmed?term=1%2c3-Dimethylurea%20AND%20human%5Bmh%5D%20AND%20%28Occupational%20Diseases%20%5Bmh%5D%20OR%20Occupational%20Exposure%20%5Bmh%5D%29%20%20AND%20%28tox%5Bsb%5D%29&cmd=search"
          }
        ],
        "cross_references": []
      }
    },
    "exposure_assessment": {
      "vapor_pressure": {
        "original_name": "Vapor Pressure",
        "value": "0.547 mm Hg",
        "links": [],
        "cross_references": []
      },
      "explanatory_notes": {
        "original_name": "Explanatory Notes",
        "value": "VP from ChemIDplus;",
        "links": [],
        "cross_references": []
      }
    },
    "diseases_processes_and_activities_linked_to_this_agent": {
      "other_information": {
        "original_name": "Other Information",
        "value": "No other related information on this agent was found.",
        "links": [],
        "cross_references": []
      }
    }
  },
  "cross_references": [
    {
      "type": "name_match",
      "text": "tremor",
      "confidence": 1.0,
      "uuid": "5532ab3c-17c6-467e-a96a-d8807c63fb9e",
      "name": "tremor",
      "url": "https://haz-map.com/Findings/50",
      "category": "findings"
    },
    {
      "type": "name_match",
      "text": "mica",
      "confidence": 1.0,
      "uuid": "433f26f1-c399-4596-b179-ce3843cfd465",
      "name": "Mica",
      "url": "https://haz-map.com/Agents/621",
      "category": "agents"
    },
    {
      "type": "name_match",
      "text": "herbicides",
      "confidence": 1.0,
      "uuid": "195f29ae-3f15-47c5-836d-0a9791db3fc1",
      "name": "HERBICIDES",
      "url": "https://haz-map.com/Agents/703",
      "category": "agents"
    },
    {
      "type": "name_match",
      "text": "nitrogen",
      "confidence": 1.0,
      "uuid": "db5e90a9-06d2-45b9-8b81-f345a89b0bc0",
      "name": "Nitrogen",
      "url": "https://haz-map.com/Agents/1072",
      "category": "agents"
    },
    {
      "type": "name_match",
      "text": "urea",
      "confidence": 1.0,
      "uuid": "a92a6129-bddd-4f79-9a78-136812ae610f",
      "name": "Urea",
      "url": "https://haz-map.com/Agents/2078",
      "category": "agents"
    },
    {
      "type": "name_match",
      "text": "1,3-dimethylurea",
      "confidence": 1.0,
      "uuid": "6b03ed3a-89c5-4dfc-ac1e-7df0c4990062",
      "name": "1,3-Dimethylurea",
      "url": "https://haz-map.com/Agents/2800",
      "category": "agents"
    },
    {
      "type": "name_match",
      "text": "caffeine",
      "confidence": 1.0,
      "uuid": "a7f97853-7b53-4bff-ae6b-5f7d1e70f90f",
      "name": "Caffeine",
      "url": "https://haz-map.com/Agents/4136",
      "category": "agents"
    },
    {
      "type": "name_match",
      "text": "methylurea",
      "confidence": 1.0,
      "uuid": "b888d9c8-b4c5-4fa1-8a2a-b0823b193d30",
      "name": "Methylurea",
      "url": "https://haz-map.com/Agents/21164",
      "category": "agents"
    }
  ],
  "all_links": [
    {
      "text": "Search PubMed",
      "url": "https://www.ncbi.nlm.nih.gov/pubmed?term=1%2c3-Dimethylurea%20AND%20human%5Bmh%5D%20AND%20%28Occupational%20Diseases%20%5Bmh%5D%20OR%20Occupational%20Exposure%20%5Bmh%5D%29%20%20AND%20%28tox%5Bsb%5D%29&cmd=search"
    }
  ]
}