{
  "metadata": {
    "scraped_from": "https://haz-map.com/Agents/16281",
    "entity_name": "o-Phthalaldehyde",
    "category": "agents",
    "uuid": "6b0d46d5-7f42-461d-b0ca-46751f0af7dd",
    "scraped_at": "2025-07-23T21:36:00.911467"
  },
  "parsed_at": "2025-07-24T00:53:19.997269",
  "title": "o-Phthalaldehyde",
  "sections": {
    "general": {
      "agent_name": {
        "original_name": "Agent Name",
        "value": "o-Phthalaldehyde",
        "links": [],
        "cross_references": [
          {
            "type": "name_match",
            "text": "ht",
            "confidence": 1.0,
            "uuid": "764df367-8d53-4a11-81a2-31ccfe122a8d",
            "name": "HT",
            "url": "https://haz-map.com/Agents/2168",
            "category": "agents"
          },
          {
            "type": "name_match",
            "text": "o-phthalaldehyde",
            "confidence": 1.0,
            "uuid": "6b0d46d5-7f42-461d-b0ca-46751f0af7dd",
            "name": "o-Phthalaldehyde",
            "url": "https://haz-map.com/Agents/16281",
            "category": "agents"
          }
        ]
      },
      "cas_number": {
        "original_name": "CAS Number",
        "value": "643-79-8",
        "links": [],
        "cross_references": []
      },
      "formula": {
        "original_name": "Formula",
        "value": "C8-H6-O2",
        "links": [],
        "cross_references": []
      },
      "major_category": {
        "original_name": "Major Category",
        "value": "Other Classes",
        "links": [],
        "cross_references": []
      },
      "synonyms": {
        "original_name": "Synonyms",
        "value": "Phtalaldehydes [French]; Phthalaldehyde; Phthalic aldehyde; Phthalic dialdehyde; Phthalyldicarboxaldehyde; o-Phthaldialdehyde; 1,2-Benzenedicarboxaldehyde; [ChemIDplus] Cidex OPA; [Merck Index] OPA; 1,2-Benzenedialdehyde; 1,2-Diformylbenzene; 1,2-Phthalaldehyde; 2-Formylbenzaldehyde; o-Benzenedicarbaldehyde; Benzenedicarboxaldehyde; OP 100S; OP 100SF; o-Phthalic aldehyde; Phthalic dicarboxaldehyde; Phtharal; [NTP] UN2923",
        "links": [],
        "cross_references": [
          {
            "type": "name_match",
            "text": "benzene",
            "confidence": 1.0,
            "uuid": "b05124de-5f34-4c14-8f04-ccb20c3780d9",
            "name": "Benzene",
            "url": "https://haz-map.com/Agents/5",
            "category": "agents"
          },
          {
            "type": "name_match",
            "text": "aldehydes",
            "confidence": 1.0,
            "uuid": "60ff52e0-7c53-4dd0-99cf-f775cfcfed59",
            "name": "ALDEHYDES",
            "url": "https://haz-map.com/Agents/719",
            "category": "agents"
          },
          {
            "type": "name_match",
            "text": "benzaldehyde",
            "confidence": 1.0,
            "uuid": "8546358a-fcfc-48f8-83d6-bf7adb438729",
            "name": "Benzaldehyde",
            "url": "https://haz-map.com/Agents/1884",
            "category": "agents"
          },
          {
            "type": "name_match",
            "text": "ht",
            "confidence": 1.0,
            "uuid": "764df367-8d53-4a11-81a2-31ccfe122a8d",
            "name": "HT",
            "url": "https://haz-map.com/Agents/2168",
            "category": "agents"
          }
        ]
      },
      "category": {
        "original_name": "Category",
        "value": "Benzaldehydes",
        "links": [],
        "cross_references": [
          {
            "type": "name_match",
            "text": "aldehydes",
            "confidence": 1.0,
            "uuid": "60ff52e0-7c53-4dd0-99cf-f775cfcfed59",
            "name": "ALDEHYDES",
            "url": "https://haz-map.com/Agents/719",
            "category": "agents"
          },
          {
            "type": "name_match",
            "text": "benzaldehyde",
            "confidence": 1.0,
            "uuid": "8546358a-fcfc-48f8-83d6-bf7adb438729",
            "name": "Benzaldehyde",
            "url": "https://haz-map.com/Agents/1884",
            "category": "agents"
          }
        ]
      },
      "description": {
        "original_name": "Description",
        "value": "Pale yellow or colorless solid; [Merck Index] Yellow powder or lumps; [Alfa Aesar MSDS]",
        "links": [],
        "cross_references": []
      },
      "sourcesuses": {
        "original_name": "Sources/Uses",
        "value": "Used as a disinfectant and in the fluorometric determination of primary amines and thiols; [Merck Index] Used to sterilize medical and dental equipment, as an enzyme inhibitor, indicator, chemical intermediate, diagnostic agent, tanning agent for leather, in water treatment, pulp and paper manufacturing, oil field water flooding, hair colorings, wood treatment, and antifouling paints; [NTP]",
        "links": [],
        "cross_references": [
          {
            "type": "name_match",
            "text": "mica",
            "confidence": 1.0,
            "uuid": "433f26f1-c399-4596-b179-ce3843cfd465",
            "name": "Mica",
            "url": "https://haz-map.com/Agents/621",
            "category": "agents"
          },
          {
            "type": "name_match",
            "text": "thiols",
            "confidence": 1.0,
            "uuid": "c2e8a59b-9094-4832-9851-2c3cfd1fa8f9",
            "name": "THIOLS",
            "url": "https://haz-map.com/Agents/709",
            "category": "agents"
          },
          {
            "type": "name_match",
            "text": "water",
            "confidence": 1.0,
            "uuid": "6f2a7557-dfd2-49bc-9b4b-a93cd8e225d4",
            "name": "Water",
            "url": "https://haz-map.com/Agents/18668",
            "category": "agents"
          }
        ]
      },
      "comments": {
        "original_name": "Comments",
        "value": "Similar properties and health effects to glutaraldehyde; [ACGIH] Severe gastrointestinal tract damage and hematological changes observed in 90-day oral study of rats; Delayed skeletal development observed in rats at doses maternally toxic; [NTP] Symptoms reported from occupational exposure to Cidex-OPA (aqueous solution containing 0.56% o-phthalaldehyde) include exacerbation of asthma, anaphylaxis, burns and/or irritation, and dermal hypersensitivity; [NTP] Causes burns; Inhalation may cause corrosive injuries to upper respiratory tract and lungs; May cause skin sensitization; Toxic by ingestion; [Alfa Aesar MSDS] Occupational asthma confirmed in an endoscopy unit worker; [Malo] See \"Benzaldehyde.\" See \"2-Methylbenzaldehyde.\"",
        "links": [],
        "cross_references": [
          {
            "type": "name_match",
            "text": "burn",
            "confidence": 1.0,
            "uuid": "63665de5-6376-4918-8dbf-4c10c4d63837",
            "name": "burn",
            "url": "https://haz-map.com/Findings/204",
            "category": "findings"
          },
          {
            "type": "name_match",
            "text": "glutaraldehyde",
            "confidence": 1.0,
            "uuid": "2d51c885-d2d2-4639-8a31-3da6d483fc32",
            "name": "Glutaraldehyde",
            "url": "https://haz-map.com/Agents/97",
            "category": "agents"
          },
          {
            "type": "name_match",
            "text": "benzaldehyde",
            "confidence": 1.0,
            "uuid": "8546358a-fcfc-48f8-83d6-bf7adb438729",
            "name": "Benzaldehyde",
            "url": "https://haz-map.com/Agents/1884",
            "category": "agents"
          },
          {
            "type": "name_match",
            "text": "ht",
            "confidence": 1.0,
            "uuid": "764df367-8d53-4a11-81a2-31ccfe122a8d",
            "name": "HT",
            "url": "https://haz-map.com/Agents/2168",
            "category": "agents"
          },
          {
            "type": "name_match",
            "text": "methylbenzaldehyde",
            "confidence": 1.0,
            "uuid": "d1964487-40f8-4d0a-ae2d-cab6aa97416e",
            "name": "Methylbenzaldehyde",
            "url": "https://haz-map.com/Agents/6071",
            "category": "agents"
          },
          {
            "type": "name_match",
            "text": "2-methylbenzaldehyde",
            "confidence": 1.0,
            "uuid": "45cb8806-6725-4449-9fa3-ed4f3bd28923",
            "name": "2-Methylbenzaldehyde",
            "url": "https://haz-map.com/Agents/10909",
            "category": "agents"
          },
          {
            "type": "name_match",
            "text": "o-phthalaldehyde",
            "confidence": 1.0,
            "uuid": "6b0d46d5-7f42-461d-b0ca-46751f0af7dd",
            "name": "o-Phthalaldehyde",
            "url": "https://haz-map.com/Agents/16281",
            "category": "agents"
          }
        ]
      },
      "reference_link_1": {
        "original_name": "Reference Link #1",
        "value": "A case of occupational bronchial asthma and contact dermatitis caused by ortho-phthalaldehyde exposure in a medical worker.",
        "links": [
          {
            "text": "A case of occupational bronchial asthma and contact dermatitis caused by ortho-phthalaldehyde exposure in a medical worker.",
            "url": "http://www.ncbi.nlm.nih.gov/pubmed/17179633"
          }
        ],
        "cross_references": [
          {
            "type": "name_match",
            "text": "dermatitis",
            "confidence": 1.0,
            "uuid": "fe9c05f2-b19f-4ceb-ac7a-ffb7d7a0cae0",
            "name": "dermatitis",
            "url": "https://haz-map.com/Findings/59",
            "category": "findings"
          },
          {
            "type": "name_match",
            "text": "ht",
            "confidence": 1.0,
            "uuid": "764df367-8d53-4a11-81a2-31ccfe122a8d",
            "name": "HT",
            "url": "https://haz-map.com/Agents/2168",
            "category": "agents"
          },
          {
            "type": "name_match",
            "text": "o-phthalaldehyde",
            "confidence": 1.0,
            "uuid": "6b0d46d5-7f42-461d-b0ca-46751f0af7dd",
            "name": "o-Phthalaldehyde",
            "url": "https://haz-map.com/Agents/16281",
            "category": "agents"
          },
          {
            "type": "fuzzy_match",
            "text": "contact dermatitis",
            "matched_name": "Contact dermatitis, allergic",
            "confidence": 0.7214285714285715,
            "uuid": "c9499de0-9aa1-41bf-8753-cd5b28a63e29",
            "category": "diseases",
            "url": "https://haz-map.com/Diseases/18"
          }
        ]
      },
      "biomedical_references": {
        "original_name": "Biomedical References",
        "value": "Search PubMed",
        "links": [
          {
            "text": "Search PubMed",
            "url": "https://www.ncbi.nlm.nih.gov/pubmed?term=o-Phthalaldehyde%20AND%20human%5Bmh%5D%20AND%20%28Occupational%20Diseases%20%5Bmh%5D%20OR%20Occupational%20Exposure%20%5Bmh%5D%29%20%20AND%20%28tox%5Bsb%5D%29&cmd=search"
          }
        ],
        "cross_references": []
      }
    },
    "exposure_assessment": {
      "tlv_acgih": {
        "original_name": "TLV (ACGIH)",
        "value": "TLV-Surface Limit = 25 ug/100 cm2",
        "links": [],
        "cross_references": []
      },
      "ceiling_acgih": {
        "original_name": "Ceiling (ACGIH)",
        "value": "0.0001 ppm, vapor fraction",
        "links": [],
        "cross_references": []
      },
      "vapor_pressure": {
        "original_name": "Vapor Pressure",
        "value": "0.0052 mm Hg",
        "links": [],
        "cross_references": []
      },
      "explanatory_notes": {
        "original_name": "Explanatory Notes",
        "value": "The Guide in the Emergency Response Guidebook is for \"Corrosive solid, toxic, n.o.s.\"",
        "links": [],
        "cross_references": []
      }
    },
    "adverse_effects": {
      "skin_sensitizer": {
        "original_name": "Skin Sensitizer",
        "value": "Yes",
        "links": [],
        "cross_references": []
      },
      "asthma": {
        "original_name": "Asthma",
        "value": "Yes",
        "links": [],
        "cross_references": []
      },
      "dermatotoxin": {
        "original_name": "Dermatotoxin",
        "value": "Skin burns",
        "links": [],
        "cross_references": [
          {
            "type": "name_match",
            "text": "burn",
            "confidence": 1.0,
            "uuid": "63665de5-6376-4918-8dbf-4c10c4d63837",
            "name": "burn",
            "url": "https://haz-map.com/Findings/204",
            "category": "findings"
          }
        ]
      }
    },
    "diseases_processes_and_activities_linked_to_this_agent": {
      "diseases": {
        "original_name": "Diseases",
        "value": "Occupational diseases associated with exposure to this agent: Asthma, occupational Contact dermatitis, allergic",
        "links": [
          {
            "text": "Asthma, occupational",
            "url": "https://haz-map.com/Diseases/23"
          },
          {
            "text": "Contact dermatitis, allergic",
            "url": "https://haz-map.com/Diseases/18"
          }
        ],
        "cross_references": [
          {
            "type": "url_match",
            "text": "Asthma, occupational",
            "url": "https://haz-map.com/Diseases/23",
            "confidence": 1.0,
            "uuid": "29c464cb-36b2-43d8-b6fc-e19a0ea695cb",
            "name": "Asthma, occupational",
            "category": "diseases"
          },
          {
            "type": "url_match",
            "text": "Contact dermatitis, allergic",
            "url": "https://haz-map.com/Diseases/18",
            "confidence": 1.0,
            "uuid": "c9499de0-9aa1-41bf-8753-cd5b28a63e29",
            "name": "Contact dermatitis, allergic",
            "category": "diseases"
          },
          {
            "type": "name_match",
            "text": "dermatitis",
            "confidence": 1.0,
            "uuid": "fe9c05f2-b19f-4ceb-ac7a-ffb7d7a0cae0",
            "name": "dermatitis",
            "url": "https://haz-map.com/Findings/59",
            "category": "findings"
          }
        ]
      },
      "processes": {
        "original_name": "Processes",
        "value": "Industrial Processes with risk of exposure: Applying Wood Preservatives Dressing Hair Leather Tanning and Processing Painting (Pigments, Binders, and Biocides) Petroleum Production and Refining Pulp and Paper Processing Sewer and Wastewater Treatment Sterilizing Equipment Using Disinfectants or Biocides",
        "links": [
          {
            "text": "Applying Wood Preservatives",
            "url": "https://haz-map.com/Processes/160"
          },
          {
            "text": "Dressing Hair",
            "url": "https://haz-map.com/Processes/258"
          },
          {
            "text": "Leather Tanning and Processing",
            "url": "https://haz-map.com/Processes/230"
          },
          {
            "text": "Painting (Pigments, Binders, and Biocides)",
            "url": "https://haz-map.com/Processes/145"
          },
          {
            "text": "Petroleum Production and Refining",
            "url": "https://haz-map.com/Processes/75"
          },
          {
            "text": "Pulp and Paper Processing",
            "url": "https://haz-map.com/Processes/132"
          },
          {
            "text": "Sewer and Wastewater Treatment",
            "url": "https://haz-map.com/Processes/220"
          },
          {
            "text": "Sterilizing Equipment",
            "url": "https://haz-map.com/Processes/168"
          },
          {
            "text": "Using Disinfectants or Biocides",
            "url": "https://haz-map.com/Processes/167"
          }
        ],
        "cross_references": [
          {
            "type": "url_match",
            "text": "Applying Wood Preservatives",
            "url": "https://haz-map.com/Processes/160",
            "confidence": 1.0,
            "uuid": "f04d008f-6345-4199-a15d-51f765989cfa",
            "name": "Applying Wood Preservatives",
            "category": "processes"
          },
          {
            "type": "url_match",
            "text": "Painting (Pigments, Binders, and Biocides)",
            "url": "https://haz-map.com/Processes/145",
            "confidence": 1.0,
            "uuid": "25867878-e178-4c21-906f-d392d86b76de",
            "name": "Painting (Pigments, Binders, and Biocides)",
            "category": "processes"
          },
          {
            "type": "url_match",
            "text": "Petroleum Production and Refining",
            "url": "https://haz-map.com/Processes/75",
            "confidence": 1.0,
            "uuid": "e2003948-ad28-44a5-85f6-2e3391da8917",
            "name": "Petroleum Production and Refining",
            "category": "processes"
          },
          {
            "type": "url_match",
            "text": "Pulp and Paper Processing",
            "url": "https://haz-map.com/Processes/132",
            "confidence": 1.0,
            "uuid": "30075079-d057-47e2-a7d8-e89bfc59d8df",
            "name": "Pulp and Paper Processing",
            "category": "processes"
          },
          {
            "type": "url_match",
            "text": "Sewer and Wastewater Treatment",
            "url": "https://haz-map.com/Processes/220",
            "confidence": 1.0,
            "uuid": "5fcac3ca-db2e-47cc-8175-126a1f3b1e1a",
            "name": "Sewer and Wastewater Treatment",
            "category": "processes"
          },
          {
            "type": "url_match",
            "text": "Sterilizing Equipment",
            "url": "https://haz-map.com/Processes/168",
            "confidence": 1.0,
            "uuid": "ae81f659-49d2-41fa-acca-2fbce669f8df",
            "name": "Sterilizing Equipment",
            "category": "processes"
          },
          {
            "type": "url_match",
            "text": "Using Disinfectants or Biocides",
            "url": "https://haz-map.com/Processes/167",
            "confidence": 1.0,
            "uuid": "7accb745-ad60-4ef8-9039-8ac4febb8fd8",
            "name": "Using Disinfectants or Biocides",
            "category": "processes"
          },
          {
            "type": "name_match",
            "text": "painting",
            "confidence": 1.0,
            "uuid": "19816ce9-9edf-4a86-8e64-b0cbf7dcf520",
            "name": "Painting",
            "url": "https://haz-map.com/Activities/9",
            "category": "activities"
          },
          {
            "type": "name_match",
            "text": "oleum",
            "confidence": 1.0,
            "uuid": "12af84ee-bcf0-416d-9220-7c4c6dc330f1",
            "name": "Oleum",
            "url": "https://haz-map.com/Agents/2227",
            "category": "agents"
          },
          {
            "type": "name_match",
            "text": "water",
            "confidence": 1.0,
            "uuid": "6f2a7557-dfd2-49bc-9b4b-a93cd8e225d4",
            "name": "Water",
            "url": "https://haz-map.com/Agents/18668",
            "category": "agents"
          }
        ]
      }
    }
  },
  "cross_references": [
    {
      "type": "url_match",
      "text": "Asthma, occupational",
      "url": "https://haz-map.com/Diseases/23",
      "confidence": 1.0,
      "uuid": "29c464cb-36b2-43d8-b6fc-e19a0ea695cb",
      "name": "Asthma, occupational",
      "category": "diseases"
    },
    {
      "type": "url_match",
      "text": "Contact dermatitis, allergic",
      "url": "https://haz-map.com/Diseases/18",
      "confidence": 1.0,
      "uuid": "c9499de0-9aa1-41bf-8753-cd5b28a63e29",
      "name": "Contact dermatitis, allergic",
      "category": "diseases"
    },
    {
      "type": "url_match",
      "text": "Applying Wood Preservatives",
      "url": "https://haz-map.com/Processes/160",
      "confidence": 1.0,
      "uuid": "f04d008f-6345-4199-a15d-51f765989cfa",
      "name": "Applying Wood Preservatives",
      "category": "processes"
    },
    {
      "type": "url_match",
      "text": "Painting (Pigments, Binders, and Biocides)",
      "url": "https://haz-map.com/Processes/145",
      "confidence": 1.0,
      "uuid": "25867878-e178-4c21-906f-d392d86b76de",
      "name": "Painting (Pigments, Binders, and Biocides)",
      "category": "processes"
    },
    {
      "type": "url_match",
      "text": "Petroleum Production and Refining",
      "url": "https://haz-map.com/Processes/75",
      "confidence": 1.0,
      "uuid": "e2003948-ad28-44a5-85f6-2e3391da8917",
      "name": "Petroleum Production and Refining",
      "category": "processes"
    },
    {
      "type": "url_match",
      "text": "Pulp and Paper Processing",
      "url": "https://haz-map.com/Processes/132",
      "confidence": 1.0,
      "uuid": "30075079-d057-47e2-a7d8-e89bfc59d8df",
      "name": "Pulp and Paper Processing",
      "category": "processes"
    },
    {
      "type": "url_match",
      "text": "Sewer and Wastewater Treatment",
      "url": "https://haz-map.com/Processes/220",
      "confidence": 1.0,
      "uuid": "5fcac3ca-db2e-47cc-8175-126a1f3b1e1a",
      "name": "Sewer and Wastewater Treatment",
      "category": "processes"
    },
    {
      "type": "url_match",
      "text": "Sterilizing Equipment",
      "url": "https://haz-map.com/Processes/168",
      "confidence": 1.0,
      "uuid": "ae81f659-49d2-41fa-acca-2fbce669f8df",
      "name": "Sterilizing Equipment",
      "category": "processes"
    },
    {
      "type": "url_match",
      "text": "Using Disinfectants or Biocides",
      "url": "https://haz-map.com/Processes/167",
      "confidence": 1.0,
      "uuid": "7accb745-ad60-4ef8-9039-8ac4febb8fd8",
      "name": "Using Disinfectants or Biocides",
      "category": "processes"
    },
    {
      "type": "name_match",
      "text": "painting",
      "confidence": 1.0,
      "uuid": "19816ce9-9edf-4a86-8e64-b0cbf7dcf520",
      "name": "Painting",
      "url": "https://haz-map.com/Activities/9",
      "category": "activities"
    },
    {
      "type": "name_match",
      "text": "dermatitis",
      "confidence": 1.0,
      "uuid": "fe9c05f2-b19f-4ceb-ac7a-ffb7d7a0cae0",
      "name": "dermatitis",
      "url": "https://haz-map.com/Findings/59",
      "category": "findings"
    },
    {
      "type": "name_match",
      "text": "burn",
      "confidence": 1.0,
      "uuid": "63665de5-6376-4918-8dbf-4c10c4d63837",
      "name": "burn",
      "url": "https://haz-map.com/Findings/204",
      "category": "findings"
    },
    {
      "type": "name_match",
      "text": "benzene",
      "confidence": 1.0,
      "uuid": "b05124de-5f34-4c14-8f04-ccb20c3780d9",
      "name": "Benzene",
      "url": "https://haz-map.com/Agents/5",
      "category": "agents"
    },
    {
      "type": "name_match",
      "text": "glutaraldehyde",
      "confidence": 1.0,
      "uuid": "2d51c885-d2d2-4639-8a31-3da6d483fc32",
      "name": "Glutaraldehyde",
      "url": "https://haz-map.com/Agents/97",
      "category": "agents"
    },
    {
      "type": "name_match",
      "text": "mica",
      "confidence": 1.0,
      "uuid": "433f26f1-c399-4596-b179-ce3843cfd465",
      "name": "Mica",
      "url": "https://haz-map.com/Agents/621",
      "category": "agents"
    },
    {
      "type": "name_match",
      "text": "thiols",
      "confidence": 1.0,
      "uuid": "c2e8a59b-9094-4832-9851-2c3cfd1fa8f9",
      "name": "THIOLS",
      "url": "https://haz-map.com/Agents/709",
      "category": "agents"
    },
    {
      "type": "name_match",
      "text": "aldehydes",
      "confidence": 1.0,
      "uuid": "60ff52e0-7c53-4dd0-99cf-f775cfcfed59",
      "name": "ALDEHYDES",
      "url": "https://haz-map.com/Agents/719",
      "category": "agents"
    },
    {
      "type": "name_match",
      "text": "benzaldehyde",
      "confidence": 1.0,
      "uuid": "8546358a-fcfc-48f8-83d6-bf7adb438729",
      "name": "Benzaldehyde",
      "url": "https://haz-map.com/Agents/1884",
      "category": "agents"
    },
    {
      "type": "name_match",
      "text": "ht",
      "confidence": 1.0,
      "uuid": "764df367-8d53-4a11-81a2-31ccfe122a8d",
      "name": "HT",
      "url": "https://haz-map.com/Agents/2168",
      "category": "agents"
    },
    {
      "type": "name_match",
      "text": "oleum",
      "confidence": 1.0,
      "uuid": "12af84ee-bcf0-416d-9220-7c4c6dc330f1",
      "name": "Oleum",
      "url": "https://haz-map.com/Agents/2227",
      "category": "agents"
    },
    {
      "type": "name_match",
      "text": "methylbenzaldehyde",
      "confidence": 1.0,
      "uuid": "d1964487-40f8-4d0a-ae2d-cab6aa97416e",
      "name": "Methylbenzaldehyde",
      "url": "https://haz-map.com/Agents/6071",
      "category": "agents"
    },
    {
      "type": "name_match",
      "text": "2-methylbenzaldehyde",
      "confidence": 1.0,
      "uuid": "45cb8806-6725-4449-9fa3-ed4f3bd28923",
      "name": "2-Methylbenzaldehyde",
      "url": "https://haz-map.com/Agents/10909",
      "category": "agents"
    },
    {
      "type": "name_match",
      "text": "o-phthalaldehyde",
      "confidence": 1.0,
      "uuid": "6b0d46d5-7f42-461d-b0ca-46751f0af7dd",
      "name": "o-Phthalaldehyde",
      "url": "https://haz-map.com/Agents/16281",
      "category": "agents"
    },
    {
      "type": "name_match",
      "text": "water",
      "confidence": 1.0,
      "uuid": "6f2a7557-dfd2-49bc-9b4b-a93cd8e225d4",
      "name": "Water",
      "url": "https://haz-map.com/Agents/18668",
      "category": "agents"
    }
  ],
  "all_links": [
    {
      "text": "A case of occupational bronchial asthma and contact dermatitis caused by ortho-phthalaldehyde exposure in a medical worker.",
      "url": "http://www.ncbi.nlm.nih.gov/pubmed/17179633"
    },
    {
      "text": "Search PubMed",
      "url": "https://www.ncbi.nlm.nih.gov/pubmed?term=o-Phthalaldehyde%20AND%20human%5Bmh%5D%20AND%20%28Occupational%20Diseases%20%5Bmh%5D%20OR%20Occupational%20Exposure%20%5Bmh%5D%29%20%20AND%20%28tox%5Bsb%5D%29&cmd=search"
    },
    {
      "text": "Asthma, occupational",
      "url": "https://haz-map.com/Diseases/23"
    },
    {
      "text": "Contact dermatitis, allergic",
      "url": "https://haz-map.com/Diseases/18"
    },
    {
      "text": "Applying Wood Preservatives",
      "url": "https://haz-map.com/Processes/160"
    },
    {
      "text": "Dressing Hair",
      "url": "https://haz-map.com/Processes/258"
    },
    {
      "text": "Leather Tanning and Processing",
      "url": "https://haz-map.com/Processes/230"
    },
    {
      "text": "Painting (Pigments, Binders, and Biocides)",
      "url": "https://haz-map.com/Processes/145"
    },
    {
      "text": "Petroleum Production and Refining",
      "url": "https://haz-map.com/Processes/75"
    },
    {
      "text": "Pulp and Paper Processing",
      "url": "https://haz-map.com/Processes/132"
    },
    {
      "text": "Sewer and Wastewater Treatment",
      "url": "https://haz-map.com/Processes/220"
    },
    {
      "text": "Sterilizing Equipment",
      "url": "https://haz-map.com/Processes/168"
    },
    {
      "text": "Using Disinfectants or Biocides",
      "url": "https://haz-map.com/Processes/167"
    }
  ]
}