{
  "metadata": {
    "scraped_from": "https://haz-map.com/Agents/3132",
    "entity_name": "2-Methyl-2-nitro-1-propanol",
    "category": "agents",
    "uuid": "6b3fe628-8d46-4d1f-8084-bc176851051b",
    "scraped_at": "2025-07-23T19:24:34.722525"
  },
  "parsed_at": "2025-07-24T01:00:18.969994",
  "title": "2-Methyl-2-nitro-1-propanol",
  "sections": {
    "general": {
      "agent_name": {
        "original_name": "Agent Name",
        "value": "2-Methyl-2-nitro-1-propanol",
        "links": [],
        "cross_references": [
          {
            "type": "name_match",
            "text": "2-methyl-2-nitro-1-propanol",
            "confidence": 1.0,
            "uuid": "6b3fe628-8d46-4d1f-8084-bc176851051b",
            "name": "2-Methyl-2-nitro-1-propanol",
            "url": "https://haz-map.com/Agents/3132",
            "category": "agents"
          },
          {
            "type": "name_match",
            "text": "2-nitro-1-propanol",
            "confidence": 1.0,
            "uuid": "9a6cedf1-82cc-4adb-bb4c-63136867bf6c",
            "name": "2-Nitro-1-propanol",
            "url": "https://haz-map.com/Agents/10933",
            "category": "agents"
          }
        ]
      },
      "cas_number": {
        "original_name": "CAS Number",
        "value": "76-39-1",
        "links": [],
        "cross_references": []
      },
      "formula": {
        "original_name": "Formula",
        "value": "C4-H9-N-O3",
        "links": [],
        "cross_references": []
      },
      "major_category": {
        "original_name": "Major Category",
        "value": "Nitrogen Compounds",
        "links": [],
        "cross_references": [
          {
            "type": "name_match",
            "text": "nitrogen",
            "confidence": 1.0,
            "uuid": "db5e90a9-06d2-45b9-8b81-f345a89b0bc0",
            "name": "Nitrogen",
            "url": "https://haz-map.com/Agents/1072",
            "category": "agents"
          }
        ]
      },
      "synonyms": {
        "original_name": "Synonyms",
        "value": "2-Methyl-2-nitropropanol; 2-Nitro-2-methyl-1-propanol; 2-Nitro-2-methylpropanol; 1-Propanol, 2-methyl-2-nitro-; 2-Methyl-2-nitropropan-1-ol; [ChemIDplus] 2-Methyl-2-nitro-1-propanol; NMP; [Ullmann]",
        "links": [],
        "cross_references": [
          {
            "type": "name_match",
            "text": "2-methyl-2-nitro-1-propanol",
            "confidence": 1.0,
            "uuid": "6b3fe628-8d46-4d1f-8084-bc176851051b",
            "name": "2-Methyl-2-nitro-1-propanol",
            "url": "https://haz-map.com/Agents/3132",
            "category": "agents"
          },
          {
            "type": "name_match",
            "text": "2-nitro-1-propanol",
            "confidence": 1.0,
            "uuid": "9a6cedf1-82cc-4adb-bb4c-63136867bf6c",
            "name": "2-Nitro-1-propanol",
            "url": "https://haz-map.com/Agents/10933",
            "category": "agents"
          }
        ]
      },
      "category": {
        "original_name": "Category",
        "value": "Nitros, Aliphatic",
        "links": [],
        "cross_references": []
      },
      "description": {
        "original_name": "Description",
        "value": "Colorless solid; [CHEMINFO]",
        "links": [],
        "cross_references": []
      },
      "sourcesuses": {
        "original_name": "Sources/Uses",
        "value": "Used in adhesives to bond tire cords; [Ullmann]",
        "links": [],
        "cross_references": []
      },
      "comments": {
        "original_name": "Comments",
        "value": "A severe eye irritant (rabbits); Causes ataxia, respiratory depression, and hematuria after oral lethal doses in rats; [RTECS] A strong eye irritant, based on animal studies; [eChemPortal: HPVIS] May cause irritation; [MSDSonline]",
        "links": [],
        "cross_references": [
          {
            "type": "name_match",
            "text": "hematuria",
            "confidence": 1.0,
            "uuid": "70ebc052-1f06-40b0-96ce-573e17554dc8",
            "name": "hematuria",
            "url": "https://haz-map.com/Findings/77",
            "category": "findings"
          }
        ]
      },
      "biomedical_references": {
        "original_name": "Biomedical References",
        "value": "Search PubMed",
        "links": [
          {
            "text": "Search PubMed",
            "url": "https://www.ncbi.nlm.nih.gov/pubmed?term=2-Methyl-2-nitro-1-propanol%20AND%20human%5Bmh%5D%20AND%20%28Occupational%20Diseases%20%5Bmh%5D%20OR%20Occupational%20Exposure%20%5Bmh%5D%29%20%20AND%20%28tox%5Bsb%5D%29&cmd=search"
          }
        ],
        "cross_references": []
      }
    },
    "exposure_assessment": {
      "vapor_pressure": {
        "original_name": "Vapor Pressure",
        "value": "0.09 mm Hg",
        "links": [],
        "cross_references": []
      },
      "explanatory_notes": {
        "original_name": "Explanatory Notes",
        "value": "VP from ChemIDplus;",
        "links": [],
        "cross_references": []
      }
    },
    "adverse_effects": {
      "neurotoxin": {
        "original_name": "Neurotoxin",
        "value": "Other CNS neurotoxin",
        "links": [],
        "cross_references": []
      }
    },
    "diseases_processes_and_activities_linked_to_this_agent": {
      "other_information": {
        "original_name": "Other Information",
        "value": "No other related information on this agent was found.",
        "links": [],
        "cross_references": []
      }
    }
  },
  "cross_references": [
    {
      "type": "name_match",
      "text": "hematuria",
      "confidence": 1.0,
      "uuid": "70ebc052-1f06-40b0-96ce-573e17554dc8",
      "name": "hematuria",
      "url": "https://haz-map.com/Findings/77",
      "category": "findings"
    },
    {
      "type": "name_match",
      "text": "nitrogen",
      "confidence": 1.0,
      "uuid": "db5e90a9-06d2-45b9-8b81-f345a89b0bc0",
      "name": "Nitrogen",
      "url": "https://haz-map.com/Agents/1072",
      "category": "agents"
    },
    {
      "type": "name_match",
      "text": "2-methyl-2-nitro-1-propanol",
      "confidence": 1.0,
      "uuid": "6b3fe628-8d46-4d1f-8084-bc176851051b",
      "name": "2-Methyl-2-nitro-1-propanol",
      "url": "https://haz-map.com/Agents/3132",
      "category": "agents"
    },
    {
      "type": "name_match",
      "text": "2-nitro-1-propanol",
      "confidence": 1.0,
      "uuid": "9a6cedf1-82cc-4adb-bb4c-63136867bf6c",
      "name": "2-Nitro-1-propanol",
      "url": "https://haz-map.com/Agents/10933",
      "category": "agents"
    }
  ],
  "all_links": [
    {
      "text": "Search PubMed",
      "url": "https://www.ncbi.nlm.nih.gov/pubmed?term=2-Methyl-2-nitro-1-propanol%20AND%20human%5Bmh%5D%20AND%20%28Occupational%20Diseases%20%5Bmh%5D%20OR%20Occupational%20Exposure%20%5Bmh%5D%29%20%20AND%20%28tox%5Bsb%5D%29&cmd=search"
    }
  ]
}