{
  "metadata": {
    "scraped_from": "https://haz-map.com/Agents/5094",
    "entity_name": "Endothion",
    "category": "agents",
    "uuid": "6b825428-18d1-45ae-9b00-1aa5545569d0",
    "scraped_at": "2025-07-23T19:48:58.307149"
  },
  "parsed_at": "2025-07-24T01:12:09.055393",
  "title": "Endothion",
  "sections": {
    "general": {
      "agent_name": {
        "original_name": "Agent Name",
        "value": "Endothion",
        "links": [],
        "cross_references": [
          {
            "type": "name_match",
            "text": "endothion",
            "confidence": 1.0,
            "uuid": "6b825428-18d1-45ae-9b00-1aa5545569d0",
            "name": "Endothion",
            "url": "https://haz-map.com/Agents/5094",
            "category": "agents"
          }
        ]
      },
      "cas_number": {
        "original_name": "CAS Number",
        "value": "2778-04-3",
        "links": [],
        "cross_references": []
      },
      "formula": {
        "original_name": "Formula",
        "value": "C9-H13-O6-P-S",
        "links": [],
        "cross_references": []
      },
      "major_category": {
        "original_name": "Major Category",
        "value": "Pesticides",
        "links": [],
        "cross_references": []
      },
      "synonyms": {
        "original_name": "Synonyms",
        "value": "5-Methoxy-2-(dimethoxyphosphinylthiomethyl) pyrone-4; 5-Methoxy-2-(dimethoxyphosphinylthiomethyl)pyrone-4; 7175 RP; AC-18,737; ENT 24,653; Endocid; Endocide; Exothion; FMC 5767; NIA-5767; Niagara 5767; O,O-Dimethyl S-(5-methoxypyronyl-2-methyl) thiophosphate; O,O-Dimethyl phosphorothioate S-ester with 2-(mercaptomethyl)-5-methoxy-4H-pyran-4-one; O,O-Dimethyl-S-((5-methoxy-pyron-2-yl)-methyl)-thiolphosphat [German]; Phosphate 100; Phosphopyron; Phosphopyrone; Phosphorothioic acid, O,O-dimethyl ester, S-ester with 2-(mercaptomethyl)-5-methoxy-4H-pyran-4-one; Phosphorothioic acid, S-((5-methoxy-4-oxo-4H-pyran-2-yl)methyl) O,O-dimethyl ester; S-((5-Methoxy-4-oxo-4H-pyran-2-yl)methyl) O,O-dimethyl phosphorothioate; S-((5-Methoxy-4H-pyron-2-yl)-methyl)-O,O-dimethyl-monothiofosfaat [Dutch]; S-((5-Methoxy-4H-pyron-2-yl)-methyl)-O,O-dimethyl-monothiophosphat [German]; S-((5-Metossi-4H-piron-2-IL)-metil)-O,O-dimetil-monotiofosfato [Italian]; S-(5-Methoxy-4-pyron-2-ylmethyl) dimethyl phosphorothioate; S-(5-Methoxy-4-pyron-2-ylmethyl) dimethyl phosphorothiolate; S-5-Methoxy-4-oxopyran-2-ylmethyl dimethyl phosphorothioate; S-5-Methoxy-4-pyron-2-ylmethyl O,O-dimethyl phosphorothioate; Thiophosphate de O,O-dimethyle et de S-((5-methoxy-4-pyronyl)-methyle) [French]; [ChemIDplus] UN2783",
        "links": [],
        "cross_references": [
          {
            "type": "name_match",
            "text": "tali",
            "confidence": 1.0,
            "uuid": "8c3a0f99-2143-4122-b539-ec5cc49596b0",
            "name": "Tali",
            "url": "https://haz-map.com/Agents/1128",
            "category": "agents"
          },
          {
            "type": "name_match",
            "text": "iron",
            "confidence": 1.0,
            "uuid": "a6101f16-ec31-4d6c-af41-cbdbda5b1c7c",
            "name": "Iron",
            "url": "https://haz-map.com/Agents/1993",
            "category": "agents"
          },
          {
            "type": "name_match",
            "text": "agar",
            "confidence": 1.0,
            "uuid": "6736375b-51bf-4ffa-9f36-f145228d4f0d",
            "name": "Agar",
            "url": "https://haz-map.com/Agents/11402",
            "category": "agents"
          }
        ]
      },
      "category": {
        "original_name": "Category",
        "value": "Organophosphate Insecticides",
        "links": [],
        "cross_references": []
      },
      "description": {
        "original_name": "Description",
        "value": "Solid; [HSDB]",
        "links": [],
        "cross_references": []
      },
      "sourcesuses": {
        "original_name": "Sources/Uses",
        "value": "Used as aphicide and acaricide in orchards and field crops; Not commercially sold in the US or Canada; Likely discontinued for pesticide use worldwide; [HSDB]",
        "links": [],
        "cross_references": []
      },
      "comments": {
        "original_name": "Comments",
        "value": "A cholinesterase inhibitor; [Hawley] No adverse effects observed in 7-day feeding study of rats at 50 ppm; [HSDB] “The average of two baseline respective cholinesterase activity determinations three days apart, with no exposures to enzyme inhibiting pesticides for at least 30 days, is recommended for each worker prior to exposure to cholinesterase inhibitors because of large inter-individual differences in published baseline values. To be established at least once a year. Removal from workplace exposures is recommended until the cholinesterase activity returns to within 20% of baseline.” [TLVs and BEIs]",
        "links": [],
        "cross_references": [
          {
            "type": "name_match",
            "text": "choline",
            "confidence": 1.0,
            "uuid": "a21a71e9-9d67-4563-9da2-98c4dcb1b766",
            "name": "Choline",
            "url": "https://haz-map.com/Agents/12978",
            "category": "agents"
          }
        ]
      },
      "biomedical_references": {
        "original_name": "Biomedical References",
        "value": "Search PubMed",
        "links": [
          {
            "text": "Search PubMed",
            "url": "https://www.ncbi.nlm.nih.gov/pubmed?term=Endothion%20AND%20human%5Bmh%5D%20AND%20%28Occupational%20Diseases%20%5Bmh%5D%20OR%20Occupational%20Exposure%20%5Bmh%5D%29%20%20AND%20%28tox%5Bsb%5D%29&cmd=search"
          }
        ],
        "cross_references": []
      }
    },
    "exposure_assessment": {
      "bei": {
        "original_name": "BEI",
        "value": "Acetylcholinesterase activity in red blood cells = 70% of individual's baseline; Butylcholinesterase activity in serum or plasma = 60% of individual's baseline; Sample at end of shift; [TLVs and BEIs]",
        "links": [],
        "cross_references": [
          {
            "type": "name_match",
            "text": "choline",
            "confidence": 1.0,
            "uuid": "a21a71e9-9d67-4563-9da2-98c4dcb1b766",
            "name": "Choline",
            "url": "https://haz-map.com/Agents/12978",
            "category": "agents"
          }
        ]
      },
      "vapor_pressure": {
        "original_name": "Vapor Pressure",
        "value": "5.69E-06 mm Hg",
        "links": [],
        "cross_references": []
      },
      "explanatory_notes": {
        "original_name": "Explanatory Notes",
        "value": "The Guide in the Emergency Response Guidebook is for \"Organophosphorus pesticide, solid, toxic.\"",
        "links": [],
        "cross_references": []
      },
      "nfpa": {
        "original_name": "NFPA",
        "value": "must be preheated",
        "links": [],
        "cross_references": []
      }
    },
    "adverse_effects": {
      "other_poison": {
        "original_name": "Other Poison",
        "value": "Organophosphate",
        "links": [],
        "cross_references": []
      }
    },
    "diseases_processes_and_activities_linked_to_this_agent": {
      "diseases": {
        "original_name": "Diseases",
        "value": "Occupational diseases associated with exposure to this agent: Organophosphates & carbamates, acute poisoning",
        "links": [
          {
            "text": "Organophosphates & carbamates, acute poisoning",
            "url": "https://haz-map.com/Diseases/66"
          }
        ],
        "cross_references": [
          {
            "type": "url_match",
            "text": "Organophosphates & carbamates, acute poisoning",
            "url": "https://haz-map.com/Diseases/66",
            "confidence": 1.0,
            "uuid": "aea2cba9-fb36-463f-84d8-b819551bb327",
            "name": "Organophosphates & carbamates, acute poisoning",
            "category": "diseases"
          },
          {
            "type": "name_match",
            "text": "organophosphates",
            "confidence": 1.0,
            "uuid": "8d2d239c-20f9-4f02-9916-5e7667b9990c",
            "name": "ORGANOPHOSPHATES",
            "url": "https://haz-map.com/Agents/702",
            "category": "agents"
          }
        ]
      },
      "processes": {
        "original_name": "Processes",
        "value": "Industrial Processes with risk of exposure: Farming (Pesticides)",
        "links": [
          {
            "text": "Farming (Pesticides)",
            "url": "https://haz-map.com/Processes/218"
          }
        ],
        "cross_references": [
          {
            "type": "url_match",
            "text": "Farming (Pesticides)",
            "url": "https://haz-map.com/Processes/218",
            "confidence": 1.0,
            "uuid": "cf1e5815-c9bb-4917-82a5-391848170b7e",
            "name": "Farming (Pesticides)",
            "category": "processes"
          }
        ]
      }
    }
  },
  "cross_references": [
    {
      "type": "url_match",
      "text": "Organophosphates & carbamates, acute poisoning",
      "url": "https://haz-map.com/Diseases/66",
      "confidence": 1.0,
      "uuid": "aea2cba9-fb36-463f-84d8-b819551bb327",
      "name": "Organophosphates & carbamates, acute poisoning",
      "category": "diseases"
    },
    {
      "type": "url_match",
      "text": "Farming (Pesticides)",
      "url": "https://haz-map.com/Processes/218",
      "confidence": 1.0,
      "uuid": "cf1e5815-c9bb-4917-82a5-391848170b7e",
      "name": "Farming (Pesticides)",
      "category": "processes"
    },
    {
      "type": "name_match",
      "text": "organophosphates",
      "confidence": 1.0,
      "uuid": "8d2d239c-20f9-4f02-9916-5e7667b9990c",
      "name": "ORGANOPHOSPHATES",
      "url": "https://haz-map.com/Agents/702",
      "category": "agents"
    },
    {
      "type": "name_match",
      "text": "tali",
      "confidence": 1.0,
      "uuid": "8c3a0f99-2143-4122-b539-ec5cc49596b0",
      "name": "Tali",
      "url": "https://haz-map.com/Agents/1128",
      "category": "agents"
    },
    {
      "type": "name_match",
      "text": "iron",
      "confidence": 1.0,
      "uuid": "a6101f16-ec31-4d6c-af41-cbdbda5b1c7c",
      "name": "Iron",
      "url": "https://haz-map.com/Agents/1993",
      "category": "agents"
    },
    {
      "type": "name_match",
      "text": "endothion",
      "confidence": 1.0,
      "uuid": "6b825428-18d1-45ae-9b00-1aa5545569d0",
      "name": "Endothion",
      "url": "https://haz-map.com/Agents/5094",
      "category": "agents"
    },
    {
      "type": "name_match",
      "text": "agar",
      "confidence": 1.0,
      "uuid": "6736375b-51bf-4ffa-9f36-f145228d4f0d",
      "name": "Agar",
      "url": "https://haz-map.com/Agents/11402",
      "category": "agents"
    },
    {
      "type": "name_match",
      "text": "choline",
      "confidence": 1.0,
      "uuid": "a21a71e9-9d67-4563-9da2-98c4dcb1b766",
      "name": "Choline",
      "url": "https://haz-map.com/Agents/12978",
      "category": "agents"
    }
  ],
  "all_links": [
    {
      "text": "Search PubMed",
      "url": "https://www.ncbi.nlm.nih.gov/pubmed?term=Endothion%20AND%20human%5Bmh%5D%20AND%20%28Occupational%20Diseases%20%5Bmh%5D%20OR%20Occupational%20Exposure%20%5Bmh%5D%29%20%20AND%20%28tox%5Bsb%5D%29&cmd=search"
    },
    {
      "text": "Organophosphates & carbamates, acute poisoning",
      "url": "https://haz-map.com/Diseases/66"
    },
    {
      "text": "Farming (Pesticides)",
      "url": "https://haz-map.com/Processes/218"
    }
  ]
}