{
  "metadata": {
    "scraped_from": "https://haz-map.com/Agents/4770",
    "entity_name": "Dichloroacetaldehyde",
    "category": "agents",
    "uuid": "6b94e795-878e-482b-b0e3-95f7c33ba36f",
    "scraped_at": "2025-07-23T19:44:37.034762"
  },
  "parsed_at": "2025-07-24T01:00:58.309058",
  "title": "Dichloroacetaldehyde",
  "sections": {
    "general": {
      "agent_name": {
        "original_name": "Agent Name",
        "value": "Dichloroacetaldehyde",
        "links": [],
        "cross_references": [
          {
            "type": "name_match",
            "text": "acetaldehyde",
            "confidence": 1.0,
            "uuid": "fe4656a6-c05e-430a-bdd9-e053a298707a",
            "name": "Acetaldehyde",
            "url": "https://haz-map.com/Agents/94",
            "category": "agents"
          },
          {
            "type": "name_match",
            "text": "chloroacetaldehyde",
            "confidence": 1.0,
            "uuid": "8930a242-f2a9-49d2-8066-66b542f4e5c0",
            "name": "Chloroacetaldehyde",
            "url": "https://haz-map.com/Agents/352",
            "category": "agents"
          },
          {
            "type": "name_match",
            "text": "acetal",
            "confidence": 1.0,
            "uuid": "1ee09b5b-04fd-47c0-ab34-a2d9db740bcb",
            "name": "Acetal",
            "url": "https://haz-map.com/Agents/3381",
            "category": "agents"
          },
          {
            "type": "name_match",
            "text": "dichloroacetaldehyde",
            "confidence": 1.0,
            "uuid": "6b94e795-878e-482b-b0e3-95f7c33ba36f",
            "name": "Dichloroacetaldehyde",
            "url": "https://haz-map.com/Agents/4770",
            "category": "agents"
          }
        ]
      },
      "cas_number": {
        "original_name": "CAS Number",
        "value": "79-02-7",
        "links": [],
        "cross_references": []
      },
      "formula": {
        "original_name": "Formula",
        "value": "C2-H2-Cl2-O",
        "links": [],
        "cross_references": []
      },
      "major_category": {
        "original_name": "Major Category",
        "value": "Other Classes",
        "links": [],
        "cross_references": []
      },
      "synonyms": {
        "original_name": "Synonyms",
        "value": "2,2-Dichloroacetaldehyde; Acetaldehyde, dichloro-; Chloroaldehyde; alpha,alpha-Dichloroacetaldehyde; [ChemIDplus]",
        "links": [],
        "cross_references": [
          {
            "type": "name_match",
            "text": "acetaldehyde",
            "confidence": 1.0,
            "uuid": "fe4656a6-c05e-430a-bdd9-e053a298707a",
            "name": "Acetaldehyde",
            "url": "https://haz-map.com/Agents/94",
            "category": "agents"
          },
          {
            "type": "name_match",
            "text": "chloroacetaldehyde",
            "confidence": 1.0,
            "uuid": "8930a242-f2a9-49d2-8066-66b542f4e5c0",
            "name": "Chloroacetaldehyde",
            "url": "https://haz-map.com/Agents/352",
            "category": "agents"
          },
          {
            "type": "name_match",
            "text": "acetal",
            "confidence": 1.0,
            "uuid": "1ee09b5b-04fd-47c0-ab34-a2d9db740bcb",
            "name": "Acetal",
            "url": "https://haz-map.com/Agents/3381",
            "category": "agents"
          },
          {
            "type": "name_match",
            "text": "dichloroacetaldehyde",
            "confidence": 1.0,
            "uuid": "6b94e795-878e-482b-b0e3-95f7c33ba36f",
            "name": "Dichloroacetaldehyde",
            "url": "https://haz-map.com/Agents/4770",
            "category": "agents"
          }
        ]
      },
      "category": {
        "original_name": "Category",
        "value": "Aldehydes",
        "links": [],
        "cross_references": [
          {
            "type": "name_match",
            "text": "aldehydes",
            "confidence": 1.0,
            "uuid": "60ff52e0-7c53-4dd0-99cf-f775cfcfed59",
            "name": "ALDEHYDES",
            "url": "https://haz-map.com/Agents/719",
            "category": "agents"
          }
        ]
      },
      "description": {
        "original_name": "Description",
        "value": "Colorless liquid with a penetrating pungent odor; [Hawley]",
        "links": [],
        "cross_references": []
      },
      "sourcesuses": {
        "original_name": "Sources/Uses",
        "value": "Used to make insecticides and plastics; A presumed metabolic product from dichlorvos and trichlorfon; A waste product in pulp bleaching; [HSDB]",
        "links": [],
        "cross_references": [
          {
            "type": "name_match",
            "text": "dichlorvos",
            "confidence": 1.0,
            "uuid": "0ab1faa3-f671-484c-87a7-d0642672a8ef",
            "name": "Dichlorvos",
            "url": "https://haz-map.com/Agents/248",
            "category": "agents"
          },
          {
            "type": "name_match",
            "text": "trichlorfon",
            "confidence": 1.0,
            "uuid": "61bed08a-2316-444a-94b4-0fa1c095ba50",
            "name": "Trichlorfon",
            "url": "https://haz-map.com/Agents/1141",
            "category": "agents"
          }
        ]
      },
      "comments": {
        "original_name": "Comments",
        "value": "A strong skin irritant; [Hawley] Highly flammable and polymerizable; An eye, nose, and mucous membrane irritant; [CAMEO]",
        "links": [],
        "cross_references": []
      },
      "biomedical_references": {
        "original_name": "Biomedical References",
        "value": "Search PubMed",
        "links": [
          {
            "text": "Search PubMed",
            "url": "https://www.ncbi.nlm.nih.gov/pubmed?term=Dichloroacetaldehyde%20AND%20human%5Bmh%5D%20AND%20%28Occupational%20Diseases%20%5Bmh%5D%20OR%20Occupational%20Exposure%20%5Bmh%5D%29%20%20AND%20%28tox%5Bsb%5D%29&cmd=search"
          }
        ],
        "cross_references": []
      }
    },
    "exposure_assessment": {
      "vapor_pressure": {
        "original_name": "Vapor Pressure",
        "value": "55.4 mm Hg",
        "links": [],
        "cross_references": []
      },
      "explanatory_notes": {
        "original_name": "Explanatory Notes",
        "value": "VP from ChemIDplus;",
        "links": [],
        "cross_references": []
      }
    },
    "diseases_processes_and_activities_linked_to_this_agent": {
      "processes": {
        "original_name": "Processes",
        "value": "Industrial Processes with risk of exposure: Pulp and Paper Processing",
        "links": [
          {
            "text": "Pulp and Paper Processing",
            "url": "https://haz-map.com/Processes/132"
          }
        ],
        "cross_references": [
          {
            "type": "url_match",
            "text": "Pulp and Paper Processing",
            "url": "https://haz-map.com/Processes/132",
            "confidence": 1.0,
            "uuid": "30075079-d057-47e2-a7d8-e89bfc59d8df",
            "name": "Pulp and Paper Processing",
            "category": "processes"
          }
        ]
      }
    }
  },
  "cross_references": [
    {
      "type": "url_match",
      "text": "Pulp and Paper Processing",
      "url": "https://haz-map.com/Processes/132",
      "confidence": 1.0,
      "uuid": "30075079-d057-47e2-a7d8-e89bfc59d8df",
      "name": "Pulp and Paper Processing",
      "category": "processes"
    },
    {
      "type": "name_match",
      "text": "acetaldehyde",
      "confidence": 1.0,
      "uuid": "fe4656a6-c05e-430a-bdd9-e053a298707a",
      "name": "Acetaldehyde",
      "url": "https://haz-map.com/Agents/94",
      "category": "agents"
    },
    {
      "type": "name_match",
      "text": "dichlorvos",
      "confidence": 1.0,
      "uuid": "0ab1faa3-f671-484c-87a7-d0642672a8ef",
      "name": "Dichlorvos",
      "url": "https://haz-map.com/Agents/248",
      "category": "agents"
    },
    {
      "type": "name_match",
      "text": "chloroacetaldehyde",
      "confidence": 1.0,
      "uuid": "8930a242-f2a9-49d2-8066-66b542f4e5c0",
      "name": "Chloroacetaldehyde",
      "url": "https://haz-map.com/Agents/352",
      "category": "agents"
    },
    {
      "type": "name_match",
      "text": "aldehydes",
      "confidence": 1.0,
      "uuid": "60ff52e0-7c53-4dd0-99cf-f775cfcfed59",
      "name": "ALDEHYDES",
      "url": "https://haz-map.com/Agents/719",
      "category": "agents"
    },
    {
      "type": "name_match",
      "text": "trichlorfon",
      "confidence": 1.0,
      "uuid": "61bed08a-2316-444a-94b4-0fa1c095ba50",
      "name": "Trichlorfon",
      "url": "https://haz-map.com/Agents/1141",
      "category": "agents"
    },
    {
      "type": "name_match",
      "text": "acetal",
      "confidence": 1.0,
      "uuid": "1ee09b5b-04fd-47c0-ab34-a2d9db740bcb",
      "name": "Acetal",
      "url": "https://haz-map.com/Agents/3381",
      "category": "agents"
    },
    {
      "type": "name_match",
      "text": "dichloroacetaldehyde",
      "confidence": 1.0,
      "uuid": "6b94e795-878e-482b-b0e3-95f7c33ba36f",
      "name": "Dichloroacetaldehyde",
      "url": "https://haz-map.com/Agents/4770",
      "category": "agents"
    }
  ],
  "all_links": [
    {
      "text": "Search PubMed",
      "url": "https://www.ncbi.nlm.nih.gov/pubmed?term=Dichloroacetaldehyde%20AND%20human%5Bmh%5D%20AND%20%28Occupational%20Diseases%20%5Bmh%5D%20OR%20Occupational%20Exposure%20%5Bmh%5D%29%20%20AND%20%28tox%5Bsb%5D%29&cmd=search"
    },
    {
      "text": "Pulp and Paper Processing",
      "url": "https://haz-map.com/Processes/132"
    }
  ]
}