{
  "metadata": {
    "scraped_from": "https://haz-map.com/Agents/1347",
    "entity_name": "Dimethylol urea",
    "category": "agents",
    "uuid": "6bbd74d9-2102-4aff-bd81-88dfd0ead30c",
    "scraped_at": "2025-07-23T18:57:04.503653"
  },
  "parsed_at": "2025-07-24T00:54:28.097776",
  "title": "Dimethylol urea",
  "sections": {
    "general": {
      "agent_name": {
        "original_name": "Agent Name",
        "value": "Dimethylol urea",
        "links": [],
        "cross_references": [
          {
            "type": "name_match",
            "text": "dimethylol urea",
            "confidence": 1.0,
            "uuid": "6bbd74d9-2102-4aff-bd81-88dfd0ead30c",
            "name": "Dimethylol urea",
            "url": "https://haz-map.com/Agents/1347",
            "category": "agents"
          },
          {
            "type": "name_match",
            "text": "urea",
            "confidence": 1.0,
            "uuid": "a92a6129-bddd-4f79-9a78-136812ae610f",
            "name": "Urea",
            "url": "https://haz-map.com/Agents/2078",
            "category": "agents"
          }
        ]
      },
      "cas_number": {
        "original_name": "CAS Number",
        "value": "140-95-4",
        "links": [],
        "cross_references": []
      },
      "formula": {
        "original_name": "Formula",
        "value": "C3-H8-N2-O3",
        "links": [],
        "cross_references": []
      },
      "major_category": {
        "original_name": "Major Category",
        "value": "Other Uses",
        "links": [],
        "cross_references": []
      },
      "synonyms": {
        "original_name": "Synonyms",
        "value": "1,3-Bis(hydroxymethyl)harnstoff; 1,3-Dimethylolurea; CSI Paste; Carbamol; Caurite; DMU; Dimethylolurea; Finish EN; Kaurit S; Knittex ASL; Methural; Metural; N,N'-Bis(hydroxymethyl)urea; N,N'-Dihydroxymethylurea; N,N'-Dimethylolurea; Oxymethurea; Papirol J 001; Permafresh 477; Protesine DMU; Ureol P; Urofix;Urea, 1,3-bis(hydroxymethyl)- (8CI); Urea, N,N'-bis(hydroxymethyl)-; [ChemIDplus]",
        "links": [],
        "cross_references": [
          {
            "type": "name_match",
            "text": "urea",
            "confidence": 1.0,
            "uuid": "a92a6129-bddd-4f79-9a78-136812ae610f",
            "name": "Urea",
            "url": "https://haz-map.com/Agents/2078",
            "category": "agents"
          },
          {
            "type": "name_match",
            "text": "(hydroxymethyl)urea",
            "confidence": 1.0,
            "uuid": "f51f2b10-1b26-4411-8229-9c228b0e593a",
            "name": "(Hydroxymethyl)urea",
            "url": "https://haz-map.com/Agents/5590",
            "category": "agents"
          },
          {
            "type": "name_match",
            "text": "methylurea",
            "confidence": 1.0,
            "uuid": "b888d9c8-b4c5-4fa1-8a2a-b0823b193d30",
            "name": "Methylurea",
            "url": "https://haz-map.com/Agents/21164",
            "category": "agents"
          }
        ]
      },
      "category": {
        "original_name": "Category",
        "value": "Biocides/Disinfectants",
        "links": [],
        "cross_references": []
      },
      "sourcesuses": {
        "original_name": "Sources/Uses",
        "value": "Used in the production of urea-formaldehyde resins and as a textile finish; [Kanerva, p. 405]",
        "links": [],
        "cross_references": [
          {
            "type": "name_match",
            "text": "formaldehyde",
            "confidence": 1.0,
            "uuid": "272252b9-c18e-43df-b652-787210f00a3e",
            "name": "Formaldehyde",
            "url": "https://haz-map.com/Agents/271",
            "category": "agents"
          },
          {
            "type": "name_match",
            "text": "urea",
            "confidence": 1.0,
            "uuid": "a92a6129-bddd-4f79-9a78-136812ae610f",
            "name": "Urea",
            "url": "https://haz-map.com/Agents/2078",
            "category": "agents"
          },
          {
            "type": "fuzzy_match",
            "text": "formaldehyde resin",
            "matched_name": "Melamine/formaldehyde resin",
            "confidence": 0.8,
            "uuid": "21b82aaa-c2e2-46b2-a4fc-46f42d7d6508",
            "category": "agents",
            "url": "https://haz-map.com/Agents/1012"
          }
        ]
      },
      "comments": {
        "original_name": "Comments",
        "value": "A formaldehyde releaser, dimethylol urea can cause allergic contact dermatitis in workers handling \"durable press chemical finishes\" used on fabrics for wrinkle resistance; Cases were reported in the 1950s before the textile industry started using finishes releasing less formaldehyde; [Kanerva, p. 397-408]",
        "links": [],
        "cross_references": [
          {
            "type": "name_match",
            "text": "dermatitis",
            "confidence": 1.0,
            "uuid": "fe9c05f2-b19f-4ceb-ac7a-ffb7d7a0cae0",
            "name": "dermatitis",
            "url": "https://haz-map.com/Findings/59",
            "category": "findings"
          },
          {
            "type": "name_match",
            "text": "formaldehyde",
            "confidence": 1.0,
            "uuid": "272252b9-c18e-43df-b652-787210f00a3e",
            "name": "Formaldehyde",
            "url": "https://haz-map.com/Agents/271",
            "category": "agents"
          },
          {
            "type": "name_match",
            "text": "mica",
            "confidence": 1.0,
            "uuid": "433f26f1-c399-4596-b179-ce3843cfd465",
            "name": "Mica",
            "url": "https://haz-map.com/Agents/621",
            "category": "agents"
          },
          {
            "type": "name_match",
            "text": "dimethylol urea",
            "confidence": 1.0,
            "uuid": "6bbd74d9-2102-4aff-bd81-88dfd0ead30c",
            "name": "Dimethylol urea",
            "url": "https://haz-map.com/Agents/1347",
            "category": "agents"
          },
          {
            "type": "name_match",
            "text": "urea",
            "confidence": 1.0,
            "uuid": "a92a6129-bddd-4f79-9a78-136812ae610f",
            "name": "Urea",
            "url": "https://haz-map.com/Agents/2078",
            "category": "agents"
          },
          {
            "type": "fuzzy_match",
            "text": "contact dermatitis",
            "matched_name": "Contact dermatitis, allergic",
            "confidence": 0.7214285714285715,
            "uuid": "c9499de0-9aa1-41bf-8753-cd5b28a63e29",
            "category": "diseases",
            "url": "https://haz-map.com/Diseases/18"
          }
        ]
      },
      "biomedical_references": {
        "original_name": "Biomedical References",
        "value": "Search PubMed",
        "links": [
          {
            "text": "Search PubMed",
            "url": "https://www.ncbi.nlm.nih.gov/pubmed?term=Dimethylol+urea%20AND%20human%5Bmh%5D%20AND%20%28Occupational%20Diseases%20%5Bmh%5D%20OR%20Occupational%20Exposure%20%5Bmh%5D%29%20%20AND%20%28tox%5Bsb%5D%29&cmd=search"
          }
        ],
        "cross_references": []
      }
    },
    "exposure_assessment": {
      "vapor_pressure": {
        "original_name": "Vapor Pressure",
        "value": "3.99E-06 mm Hg",
        "links": [],
        "cross_references": []
      }
    },
    "adverse_effects": {
      "skin_sensitizer": {
        "original_name": "Skin Sensitizer",
        "value": "Yes",
        "links": [],
        "cross_references": []
      }
    },
    "diseases_processes_and_activities_linked_to_this_agent": {
      "diseases": {
        "original_name": "Diseases",
        "value": "Occupational diseases associated with exposure to this agent: Contact dermatitis, allergic",
        "links": [
          {
            "text": "Contact dermatitis, allergic",
            "url": "https://haz-map.com/Diseases/18"
          }
        ],
        "cross_references": [
          {
            "type": "url_match",
            "text": "Contact dermatitis, allergic",
            "url": "https://haz-map.com/Diseases/18",
            "confidence": 1.0,
            "uuid": "c9499de0-9aa1-41bf-8753-cd5b28a63e29",
            "name": "Contact dermatitis, allergic",
            "category": "diseases"
          },
          {
            "type": "name_match",
            "text": "dermatitis",
            "confidence": 1.0,
            "uuid": "fe9c05f2-b19f-4ceb-ac7a-ffb7d7a0cae0",
            "name": "dermatitis",
            "url": "https://haz-map.com/Findings/59",
            "category": "findings"
          }
        ]
      },
      "processes": {
        "original_name": "Processes",
        "value": "Industrial Processes with risk of exposure: Using Disinfectants or Biocides",
        "links": [
          {
            "text": "Using Disinfectants or Biocides",
            "url": "https://haz-map.com/Processes/167"
          }
        ],
        "cross_references": [
          {
            "type": "url_match",
            "text": "Using Disinfectants or Biocides",
            "url": "https://haz-map.com/Processes/167",
            "confidence": 1.0,
            "uuid": "7accb745-ad60-4ef8-9039-8ac4febb8fd8",
            "name": "Using Disinfectants or Biocides",
            "category": "processes"
          }
        ]
      }
    }
  },
  "cross_references": [
    {
      "type": "url_match",
      "text": "Contact dermatitis, allergic",
      "url": "https://haz-map.com/Diseases/18",
      "confidence": 1.0,
      "uuid": "c9499de0-9aa1-41bf-8753-cd5b28a63e29",
      "name": "Contact dermatitis, allergic",
      "category": "diseases"
    },
    {
      "type": "url_match",
      "text": "Using Disinfectants or Biocides",
      "url": "https://haz-map.com/Processes/167",
      "confidence": 1.0,
      "uuid": "7accb745-ad60-4ef8-9039-8ac4febb8fd8",
      "name": "Using Disinfectants or Biocides",
      "category": "processes"
    },
    {
      "type": "name_match",
      "text": "dermatitis",
      "confidence": 1.0,
      "uuid": "fe9c05f2-b19f-4ceb-ac7a-ffb7d7a0cae0",
      "name": "dermatitis",
      "url": "https://haz-map.com/Findings/59",
      "category": "findings"
    },
    {
      "type": "name_match",
      "text": "formaldehyde",
      "confidence": 1.0,
      "uuid": "272252b9-c18e-43df-b652-787210f00a3e",
      "name": "Formaldehyde",
      "url": "https://haz-map.com/Agents/271",
      "category": "agents"
    },
    {
      "type": "name_match",
      "text": "mica",
      "confidence": 1.0,
      "uuid": "433f26f1-c399-4596-b179-ce3843cfd465",
      "name": "Mica",
      "url": "https://haz-map.com/Agents/621",
      "category": "agents"
    },
    {
      "type": "name_match",
      "text": "dimethylol urea",
      "confidence": 1.0,
      "uuid": "6bbd74d9-2102-4aff-bd81-88dfd0ead30c",
      "name": "Dimethylol urea",
      "url": "https://haz-map.com/Agents/1347",
      "category": "agents"
    },
    {
      "type": "name_match",
      "text": "urea",
      "confidence": 1.0,
      "uuid": "a92a6129-bddd-4f79-9a78-136812ae610f",
      "name": "Urea",
      "url": "https://haz-map.com/Agents/2078",
      "category": "agents"
    },
    {
      "type": "name_match",
      "text": "(hydroxymethyl)urea",
      "confidence": 1.0,
      "uuid": "f51f2b10-1b26-4411-8229-9c228b0e593a",
      "name": "(Hydroxymethyl)urea",
      "url": "https://haz-map.com/Agents/5590",
      "category": "agents"
    },
    {
      "type": "name_match",
      "text": "methylurea",
      "confidence": 1.0,
      "uuid": "b888d9c8-b4c5-4fa1-8a2a-b0823b193d30",
      "name": "Methylurea",
      "url": "https://haz-map.com/Agents/21164",
      "category": "agents"
    },
    {
      "type": "fuzzy_match",
      "text": "formaldehyde resin",
      "matched_name": "Melamine/formaldehyde resin",
      "confidence": 0.8,
      "uuid": "21b82aaa-c2e2-46b2-a4fc-46f42d7d6508",
      "category": "agents",
      "url": "https://haz-map.com/Agents/1012"
    }
  ],
  "all_links": [
    {
      "text": "Search PubMed",
      "url": "https://www.ncbi.nlm.nih.gov/pubmed?term=Dimethylol+urea%20AND%20human%5Bmh%5D%20AND%20%28Occupational%20Diseases%20%5Bmh%5D%20OR%20Occupational%20Exposure%20%5Bmh%5D%29%20%20AND%20%28tox%5Bsb%5D%29&cmd=search"
    },
    {
      "text": "Contact dermatitis, allergic",
      "url": "https://haz-map.com/Diseases/18"
    },
    {
      "text": "Using Disinfectants or Biocides",
      "url": "https://haz-map.com/Processes/167"
    }
  ]
}