{
  "metadata": {
    "scraped_from": "https://haz-map.com/Agents/14212",
    "entity_name": "Ethyl trifluoroacetate",
    "category": "agents",
    "uuid": "6be299ea-ad7b-4560-b52a-47b410e1e6a5",
    "scraped_at": "2025-07-23T21:21:20.826928"
  },
  "parsed_at": "2025-07-24T01:12:15.799748",
  "title": "Ethyl trifluoroacetate",
  "sections": {
    "general": {
      "agent_name": {
        "original_name": "Agent Name",
        "value": "Ethyl trifluoroacetate",
        "links": [],
        "cross_references": [
          {
            "type": "name_match",
            "text": "ethyl trifluoroacetate",
            "confidence": 1.0,
            "uuid": "6be299ea-ad7b-4560-b52a-47b410e1e6a5",
            "name": "Ethyl trifluoroacetate",
            "url": "https://haz-map.com/Agents/14212",
            "category": "agents"
          }
        ]
      },
      "cas_number": {
        "original_name": "CAS Number",
        "value": "383-63-1",
        "links": [],
        "cross_references": []
      },
      "formula": {
        "original_name": "Formula",
        "value": "C4-H5-F3-O2",
        "links": [],
        "cross_references": []
      },
      "major_category": {
        "original_name": "Major Category",
        "value": "Other Classes",
        "links": [],
        "cross_references": []
      },
      "synonyms": {
        "original_name": "Synonyms",
        "value": "Ethyl trifluoroethanoate; Trifluoroacetic acid, ethyl ester; Acetic acid, 2,2,2-trifluoro-, ethyl ester; Acetic acid, trifluoro-, ethyl ester; [ChemIDplus]",
        "links": [],
        "cross_references": [
          {
            "type": "name_match",
            "text": "acetic acid",
            "confidence": 1.0,
            "uuid": "0905c6e4-df84-4895-a92d-658819239bbd",
            "name": "Acetic acid",
            "url": "https://haz-map.com/Agents/207",
            "category": "agents"
          },
          {
            "type": "name_match",
            "text": "trifluoroacetic acid",
            "confidence": 1.0,
            "uuid": "fbe6e865-a4ae-4f8f-8aa9-1aa6260b3337",
            "name": "Trifluoroacetic acid",
            "url": "https://haz-map.com/Agents/1436",
            "category": "agents"
          },
          {
            "type": "name_match",
            "text": "fluoroacetic acid",
            "confidence": 1.0,
            "uuid": "74fe781f-35f7-42fc-8ae5-9900d893b1a9",
            "name": "Fluoroacetic acid",
            "url": "https://haz-map.com/Agents/5348",
            "category": "agents"
          }
        ]
      },
      "category": {
        "original_name": "Category",
        "value": "Halogenated Esters",
        "links": [],
        "cross_references": []
      },
      "description": {
        "original_name": "Description",
        "value": "Clear colorless liquid; [Sigma-Aldrich MSDS]",
        "links": [],
        "cross_references": []
      },
      "comments": {
        "original_name": "Comments",
        "value": "An irritant that may cause serious eye injury; Harmful by ingestion; [Sigma-Aldrich MSDS] See \"Sodium fluoroacetate.\" See \"Butyl trifluoroacetate.\" See \"Methyl trifluoroacetate.\"",
        "links": [],
        "cross_references": [
          {
            "type": "name_match",
            "text": "sodium fluoroacetate",
            "confidence": 1.0,
            "uuid": "f894985e-1e47-4868-a979-147dabf6e363",
            "name": "Sodium fluoroacetate",
            "url": "https://haz-map.com/Agents/627",
            "category": "agents"
          },
          {
            "type": "name_match",
            "text": "sodium",
            "confidence": 1.0,
            "uuid": "1adffc42-a4d8-44d5-81d6-7dbd96ef8a6f",
            "name": "Sodium",
            "url": "https://haz-map.com/Agents/1527",
            "category": "agents"
          },
          {
            "type": "name_match",
            "text": "ethyl trifluoroacetate",
            "confidence": 1.0,
            "uuid": "6be299ea-ad7b-4560-b52a-47b410e1e6a5",
            "name": "Ethyl trifluoroacetate",
            "url": "https://haz-map.com/Agents/14212",
            "category": "agents"
          },
          {
            "type": "name_match",
            "text": "methyl trifluoroacetate",
            "confidence": 1.0,
            "uuid": "4924d900-041b-4354-bc75-4f3a3ee6a05b",
            "name": "Methyl trifluoroacetate",
            "url": "https://haz-map.com/Agents/21148",
            "category": "agents"
          },
          {
            "type": "name_match",
            "text": "butyl trifluoroacetate",
            "confidence": 1.0,
            "uuid": "4fda4ff0-e5ac-4451-a950-0a7976bea7df",
            "name": "Butyl trifluoroacetate",
            "url": "https://haz-map.com/Agents/21212",
            "category": "agents"
          }
        ]
      },
      "biomedical_references": {
        "original_name": "Biomedical References",
        "value": "Search PubMed",
        "links": [
          {
            "text": "Search PubMed",
            "url": "https://www.ncbi.nlm.nih.gov/pubmed?term=Ethyl+trifluoroacetate%20AND%20human%5Bmh%5D%20AND%20%28Occupational%20Diseases%20%5Bmh%5D%20OR%20Occupational%20Exposure%20%5Bmh%5D%29%20%20AND%20%28tox%5Bsb%5D%29&cmd=search"
          }
        ],
        "cross_references": []
      }
    },
    "exposure_assessment": {
      "vapor_pressure": {
        "original_name": "Vapor Pressure",
        "value": "196 mm Hg",
        "links": [],
        "cross_references": []
      },
      "explanatory_notes": {
        "original_name": "Explanatory Notes",
        "value": "VP from ChemIDplus;",
        "links": [],
        "cross_references": []
      }
    },
    "diseases_processes_and_activities_linked_to_this_agent": {
      "other_information": {
        "original_name": "Other Information",
        "value": "No other related information on this agent was found.",
        "links": [],
        "cross_references": []
      }
    }
  },
  "cross_references": [
    {
      "type": "name_match",
      "text": "acetic acid",
      "confidence": 1.0,
      "uuid": "0905c6e4-df84-4895-a92d-658819239bbd",
      "name": "Acetic acid",
      "url": "https://haz-map.com/Agents/207",
      "category": "agents"
    },
    {
      "type": "name_match",
      "text": "sodium fluoroacetate",
      "confidence": 1.0,
      "uuid": "f894985e-1e47-4868-a979-147dabf6e363",
      "name": "Sodium fluoroacetate",
      "url": "https://haz-map.com/Agents/627",
      "category": "agents"
    },
    {
      "type": "name_match",
      "text": "trifluoroacetic acid",
      "confidence": 1.0,
      "uuid": "fbe6e865-a4ae-4f8f-8aa9-1aa6260b3337",
      "name": "Trifluoroacetic acid",
      "url": "https://haz-map.com/Agents/1436",
      "category": "agents"
    },
    {
      "type": "name_match",
      "text": "sodium",
      "confidence": 1.0,
      "uuid": "1adffc42-a4d8-44d5-81d6-7dbd96ef8a6f",
      "name": "Sodium",
      "url": "https://haz-map.com/Agents/1527",
      "category": "agents"
    },
    {
      "type": "name_match",
      "text": "fluoroacetic acid",
      "confidence": 1.0,
      "uuid": "74fe781f-35f7-42fc-8ae5-9900d893b1a9",
      "name": "Fluoroacetic acid",
      "url": "https://haz-map.com/Agents/5348",
      "category": "agents"
    },
    {
      "type": "name_match",
      "text": "ethyl trifluoroacetate",
      "confidence": 1.0,
      "uuid": "6be299ea-ad7b-4560-b52a-47b410e1e6a5",
      "name": "Ethyl trifluoroacetate",
      "url": "https://haz-map.com/Agents/14212",
      "category": "agents"
    },
    {
      "type": "name_match",
      "text": "methyl trifluoroacetate",
      "confidence": 1.0,
      "uuid": "4924d900-041b-4354-bc75-4f3a3ee6a05b",
      "name": "Methyl trifluoroacetate",
      "url": "https://haz-map.com/Agents/21148",
      "category": "agents"
    },
    {
      "type": "name_match",
      "text": "butyl trifluoroacetate",
      "confidence": 1.0,
      "uuid": "4fda4ff0-e5ac-4451-a950-0a7976bea7df",
      "name": "Butyl trifluoroacetate",
      "url": "https://haz-map.com/Agents/21212",
      "category": "agents"
    }
  ],
  "all_links": [
    {
      "text": "Search PubMed",
      "url": "https://www.ncbi.nlm.nih.gov/pubmed?term=Ethyl+trifluoroacetate%20AND%20human%5Bmh%5D%20AND%20%28Occupational%20Diseases%20%5Bmh%5D%20OR%20Occupational%20Exposure%20%5Bmh%5D%29%20%20AND%20%28tox%5Bsb%5D%29&cmd=search"
    }
  ]
}