{
  "metadata": {
    "scraped_from": "https://haz-map.com/Agents/10847",
    "entity_name": "2-Ethylhexylamine",
    "category": "agents",
    "uuid": "6ce0d5b8-3c39-4388-9e1b-8ee9d36bc433",
    "scraped_at": "2025-07-23T20:53:28.898453"
  },
  "parsed_at": "2025-07-24T01:09:49.268851",
  "title": "2-Ethylhexylamine",
  "sections": {
    "general": {
      "agent_name": {
        "original_name": "Agent Name",
        "value": "2-Ethylhexylamine",
        "links": [],
        "cross_references": [
          {
            "type": "name_match",
            "text": "2-ethylhexylamine",
            "confidence": 1.0,
            "uuid": "6ce0d5b8-3c39-4388-9e1b-8ee9d36bc433",
            "name": "2-Ethylhexylamine",
            "url": "https://haz-map.com/Agents/10847",
            "category": "agents"
          },
          {
            "type": "name_match",
            "text": "hexylamine",
            "confidence": 1.0,
            "uuid": "d6024dfe-8865-49e0-9086-0d2662bb2ea8",
            "name": "Hexylamine",
            "url": "https://haz-map.com/Agents/19320",
            "category": "agents"
          }
        ]
      },
      "cas_number": {
        "original_name": "CAS Number",
        "value": "104-75-6",
        "links": [],
        "cross_references": []
      },
      "formula": {
        "original_name": "Formula",
        "value": "C8-H19-N",
        "links": [],
        "cross_references": []
      },
      "major_category": {
        "original_name": "Major Category",
        "value": "Nitrogen Compounds",
        "links": [],
        "cross_references": [
          {
            "type": "name_match",
            "text": "nitrogen",
            "confidence": 1.0,
            "uuid": "db5e90a9-06d2-45b9-8b81-f345a89b0bc0",
            "name": "Nitrogen",
            "url": "https://haz-map.com/Agents/1072",
            "category": "agents"
          }
        ]
      },
      "synonyms": {
        "original_name": "Synonyms",
        "value": "1-Amino-2-ethylhexan [Czech]; 2-Ethylhexanamine; 2-Ethyl hexylamine; beta-Ethylhexylamine; 1-Hexanamine, 2-ethyl-; Hexylamine, 2-ethyl-; [ChemIDplus] 1-Amino-2-ethylhexane; 2-Ethyl-1-aminohexane; 2-Ethyl-1-hexanamine; 2-Ethyl-1-hexylamine; 2-Etilhexamina (Spanish DOT); Ethyl hexylamine; Ethyl-2-hexylamine (French DOT); [CAMEO] UN2276",
        "links": [],
        "cross_references": [
          {
            "type": "name_match",
            "text": "hexylamine",
            "confidence": 1.0,
            "uuid": "d6024dfe-8865-49e0-9086-0d2662bb2ea8",
            "name": "Hexylamine",
            "url": "https://haz-map.com/Agents/19320",
            "category": "agents"
          }
        ]
      },
      "category": {
        "original_name": "Category",
        "value": "Amines, Aliphatic",
        "links": [],
        "cross_references": []
      },
      "description": {
        "original_name": "Description",
        "value": "Colorless liquid with a fishy odor; [CAMEO] Colorless or light yellow liquid with an odor of amines; [Sigma-Aldrich MSDS]",
        "links": [],
        "cross_references": [
          {
            "type": "name_match",
            "text": "ht",
            "confidence": 1.0,
            "uuid": "764df367-8d53-4a11-81a2-31ccfe122a8d",
            "name": "HT",
            "url": "https://haz-map.com/Agents/2168",
            "category": "agents"
          }
        ]
      },
      "sourcesuses": {
        "original_name": "Sources/Uses",
        "value": "Used to make pharmaceuticals and other chemicals; [CAMEO] Used to make detergents, rubber chemicals, oil additives, and insecticides; [NTP]",
        "links": [],
        "cross_references": [
          {
            "type": "name_match",
            "text": "mica",
            "confidence": 1.0,
            "uuid": "433f26f1-c399-4596-b179-ce3843cfd465",
            "name": "Mica",
            "url": "https://haz-map.com/Agents/621",
            "category": "agents"
          },
          {
            "type": "name_match",
            "text": "pharmaceuticals",
            "confidence": 1.0,
            "uuid": "713c3c30-b67e-4a2f-a90f-b32f8a306332",
            "name": "PHARMACEUTICALS",
            "url": "https://haz-map.com/Agents/1000",
            "category": "agents"
          }
        ]
      },
      "comments": {
        "original_name": "Comments",
        "value": "A severe eye and moderate to severe skin irritant; [RTECS] Highly irritating to skin and eyes; [CAMEO] A severe skin and eye irritant, with second-degree burns possible after a few minutes contact; High vapor concentrations cause respiratory tract and lung irritation, and may cause corneal edema; [CHRIS] A severe skin and mucous membrane irritant; [NTP] Causes burns; Inhalation may cause corrosive injuries to upper respiratory tract and lungs; Highly toxic by inhalation; Toxic by ingestion and skin absorption; [Sigma-Aldrich MSDS] See \"N-Ethyl cyclohexylamine.\"",
        "links": [],
        "cross_references": [
          {
            "type": "name_match",
            "text": "burn",
            "confidence": 1.0,
            "uuid": "63665de5-6376-4918-8dbf-4c10c4d63837",
            "name": "burn",
            "url": "https://haz-map.com/Findings/204",
            "category": "findings"
          },
          {
            "type": "name_match",
            "text": "cyclohexylamine",
            "confidence": 1.0,
            "uuid": "4b55fc89-050d-4cad-9e6c-8b9e91f2b805",
            "name": "Cyclohexylamine",
            "url": "https://haz-map.com/Agents/226",
            "category": "agents"
          },
          {
            "type": "name_match",
            "text": "n-ethyl cyclohexylamine",
            "confidence": 1.0,
            "uuid": "7a4f22c3-f859-46fe-8d1a-49f803b66041",
            "name": "N-Ethyl cyclohexylamine",
            "url": "https://haz-map.com/Agents/4596",
            "category": "agents"
          },
          {
            "type": "name_match",
            "text": "hexylamine",
            "confidence": 1.0,
            "uuid": "d6024dfe-8865-49e0-9086-0d2662bb2ea8",
            "name": "Hexylamine",
            "url": "https://haz-map.com/Agents/19320",
            "category": "agents"
          }
        ]
      },
      "biomedical_references": {
        "original_name": "Biomedical References",
        "value": "Search PubMed",
        "links": [
          {
            "text": "Search PubMed",
            "url": "https://www.ncbi.nlm.nih.gov/pubmed?term=2-Ethylhexylamine%20AND%20human%5Bmh%5D%20AND%20%28Occupational%20Diseases%20%5Bmh%5D%20OR%20Occupational%20Exposure%20%5Bmh%5D%29%20%20AND%20%28tox%5Bsb%5D%29&cmd=search"
          }
        ],
        "cross_references": []
      }
    },
    "exposure_assessment": {
      "vapor_pressure": {
        "original_name": "Vapor Pressure",
        "value": "1.2 mm Hg",
        "links": [],
        "cross_references": []
      },
      "lethal_concentration": {
        "original_name": "Lethal Concentration",
        "value": "LCLo (rat) = 125 ppm/4hr",
        "links": [],
        "cross_references": []
      },
      "nfpa": {
        "original_name": "NFPA",
        "value": "high ambient temp required",
        "links": [],
        "cross_references": []
      }
    },
    "adverse_effects": {
      "toxic_pneumonitis": {
        "original_name": "Toxic Pneumonitis",
        "value": "Yes",
        "links": [],
        "cross_references": []
      },
      "dermatotoxin": {
        "original_name": "Dermatotoxin",
        "value": "Skin burns",
        "links": [],
        "cross_references": [
          {
            "type": "name_match",
            "text": "burn",
            "confidence": 1.0,
            "uuid": "63665de5-6376-4918-8dbf-4c10c4d63837",
            "name": "burn",
            "url": "https://haz-map.com/Findings/204",
            "category": "findings"
          }
        ]
      }
    },
    "diseases_processes_and_activities_linked_to_this_agent": {
      "other_information": {
        "original_name": "Other Information",
        "value": "No other related information on this agent was found.",
        "links": [],
        "cross_references": []
      }
    }
  },
  "cross_references": [
    {
      "type": "name_match",
      "text": "burn",
      "confidence": 1.0,
      "uuid": "63665de5-6376-4918-8dbf-4c10c4d63837",
      "name": "burn",
      "url": "https://haz-map.com/Findings/204",
      "category": "findings"
    },
    {
      "type": "name_match",
      "text": "cyclohexylamine",
      "confidence": 1.0,
      "uuid": "4b55fc89-050d-4cad-9e6c-8b9e91f2b805",
      "name": "Cyclohexylamine",
      "url": "https://haz-map.com/Agents/226",
      "category": "agents"
    },
    {
      "type": "name_match",
      "text": "mica",
      "confidence": 1.0,
      "uuid": "433f26f1-c399-4596-b179-ce3843cfd465",
      "name": "Mica",
      "url": "https://haz-map.com/Agents/621",
      "category": "agents"
    },
    {
      "type": "name_match",
      "text": "pharmaceuticals",
      "confidence": 1.0,
      "uuid": "713c3c30-b67e-4a2f-a90f-b32f8a306332",
      "name": "PHARMACEUTICALS",
      "url": "https://haz-map.com/Agents/1000",
      "category": "agents"
    },
    {
      "type": "name_match",
      "text": "nitrogen",
      "confidence": 1.0,
      "uuid": "db5e90a9-06d2-45b9-8b81-f345a89b0bc0",
      "name": "Nitrogen",
      "url": "https://haz-map.com/Agents/1072",
      "category": "agents"
    },
    {
      "type": "name_match",
      "text": "ht",
      "confidence": 1.0,
      "uuid": "764df367-8d53-4a11-81a2-31ccfe122a8d",
      "name": "HT",
      "url": "https://haz-map.com/Agents/2168",
      "category": "agents"
    },
    {
      "type": "name_match",
      "text": "n-ethyl cyclohexylamine",
      "confidence": 1.0,
      "uuid": "7a4f22c3-f859-46fe-8d1a-49f803b66041",
      "name": "N-Ethyl cyclohexylamine",
      "url": "https://haz-map.com/Agents/4596",
      "category": "agents"
    },
    {
      "type": "name_match",
      "text": "2-ethylhexylamine",
      "confidence": 1.0,
      "uuid": "6ce0d5b8-3c39-4388-9e1b-8ee9d36bc433",
      "name": "2-Ethylhexylamine",
      "url": "https://haz-map.com/Agents/10847",
      "category": "agents"
    },
    {
      "type": "name_match",
      "text": "hexylamine",
      "confidence": 1.0,
      "uuid": "d6024dfe-8865-49e0-9086-0d2662bb2ea8",
      "name": "Hexylamine",
      "url": "https://haz-map.com/Agents/19320",
      "category": "agents"
    }
  ],
  "all_links": [
    {
      "text": "Search PubMed",
      "url": "https://www.ncbi.nlm.nih.gov/pubmed?term=2-Ethylhexylamine%20AND%20human%5Bmh%5D%20AND%20%28Occupational%20Diseases%20%5Bmh%5D%20OR%20Occupational%20Exposure%20%5Bmh%5D%29%20%20AND%20%28tox%5Bsb%5D%29&cmd=search"
    }
  ]
}