{
  "metadata": {
    "scraped_from": "https://haz-map.com/Agents/7997",
    "entity_name": "Benzyl methyl sulfide",
    "category": "agents",
    "uuid": "6d3a76c7-55ec-43d6-9e53-06f15b96427d",
    "scraped_at": "2025-07-23T20:20:24.704893"
  },
  "parsed_at": "2025-07-24T01:09:27.056564",
  "title": "Benzyl methyl sulfide",
  "sections": {
    "general": {
      "agent_name": {
        "original_name": "Agent Name",
        "value": "Benzyl methyl sulfide",
        "links": [],
        "cross_references": [
          {
            "type": "name_match",
            "text": "benzyl methyl sulfide",
            "confidence": 1.0,
            "uuid": "6d3a76c7-55ec-43d6-9e53-06f15b96427d",
            "name": "Benzyl methyl sulfide",
            "url": "https://haz-map.com/Agents/7997",
            "category": "agents"
          }
        ]
      },
      "cas_number": {
        "original_name": "CAS Number",
        "value": "766-92-7",
        "links": [],
        "cross_references": []
      },
      "formula": {
        "original_name": "Formula",
        "value": "C8-H10-S",
        "links": [],
        "cross_references": []
      },
      "major_category": {
        "original_name": "Major Category",
        "value": "Other Classes",
        "links": [],
        "cross_references": []
      },
      "synonyms": {
        "original_name": "Synonyms",
        "value": "((Methylthio)methyl)benzene; 1-Phenyl-2-thiapropane; Benzene, ((methylthio)methyl)-; Methyl benzyl sulfide; Sulfide, benzyl methyl; alpha-(Methylthio)toluene; [ChemIDplus]",
        "links": [],
        "cross_references": [
          {
            "type": "name_match",
            "text": "benzene",
            "confidence": 1.0,
            "uuid": "b05124de-5f34-4c14-8f04-ccb20c3780d9",
            "name": "Benzene",
            "url": "https://haz-map.com/Agents/5",
            "category": "agents"
          },
          {
            "type": "name_match",
            "text": "toluene",
            "confidence": 1.0,
            "uuid": "0a34d5de-e924-4c47-aff5-7ae8e48c6772",
            "name": "Toluene",
            "url": "https://haz-map.com/Agents/83",
            "category": "agents"
          },
          {
            "type": "name_match",
            "text": "propane",
            "confidence": 1.0,
            "uuid": "563a611b-46ea-4bdc-b77b-17d8f7646283",
            "name": "Propane",
            "url": "https://haz-map.com/Agents/607",
            "category": "agents"
          },
          {
            "type": "name_match",
            "text": "benzyl sulfide",
            "confidence": 1.0,
            "uuid": "15f42592-5d59-4fa8-a1bb-9a3d758b7034",
            "name": "Benzyl sulfide",
            "url": "https://haz-map.com/Agents/7999",
            "category": "agents"
          }
        ]
      },
      "category": {
        "original_name": "Category",
        "value": "Sulfur Compounds",
        "links": [],
        "cross_references": [
          {
            "type": "name_match",
            "text": "sulfur",
            "confidence": 1.0,
            "uuid": "5aabdef6-71c8-44c8-b762-feaabff50696",
            "name": "Sulfur",
            "url": "https://haz-map.com/Agents/1942",
            "category": "agents"
          }
        ]
      },
      "description": {
        "original_name": "Description",
        "value": "Colorless liquid with odor of \"stench\"; Not miscible in water; [MSDSonline]",
        "links": [],
        "cross_references": [
          {
            "type": "name_match",
            "text": "water",
            "confidence": 1.0,
            "uuid": "6f2a7557-dfd2-49bc-9b4b-a93cd8e225d4",
            "name": "Water",
            "url": "https://haz-map.com/Agents/18668",
            "category": "agents"
          }
        ]
      },
      "comments": {
        "original_name": "Comments",
        "value": "A skin, eye, and respiratory tract irritant; Target organ is CNS; [MSDSonline]",
        "links": [],
        "cross_references": []
      },
      "biomedical_references": {
        "original_name": "Biomedical References",
        "value": "Search PubMed",
        "links": [
          {
            "text": "Search PubMed",
            "url": "https://www.ncbi.nlm.nih.gov/pubmed?term=Benzyl+methyl+sulfide%20AND%20human%5Bmh%5D%20AND%20%28Occupational%20Diseases%20%5Bmh%5D%20OR%20Occupational%20Exposure%20%5Bmh%5D%29%20%20AND%20%28tox%5Bsb%5D%29&cmd=search"
          }
        ],
        "cross_references": []
      }
    },
    "exposure_assessment": {
      "explanatory_notes": {
        "original_name": "Explanatory Notes",
        "value": "Flash point = 73 deg C; bp = 195-198 deg C; [MSDSonline]",
        "links": [],
        "cross_references": [
          {
            "type": "name_match",
            "text": "ash",
            "confidence": 1.0,
            "uuid": "68b360f1-5ad0-4337-bea0-d7adca2961b5",
            "name": "Ash",
            "url": "https://haz-map.com/Agents/965",
            "category": "agents"
          }
        ]
      }
    },
    "adverse_effects": {
      "neurotoxin": {
        "original_name": "Neurotoxin",
        "value": "Other CNS neurotoxin",
        "links": [],
        "cross_references": []
      }
    },
    "diseases_processes_and_activities_linked_to_this_agent": {
      "other_information": {
        "original_name": "Other Information",
        "value": "No other related information on this agent was found.",
        "links": [],
        "cross_references": []
      }
    }
  },
  "cross_references": [
    {
      "type": "name_match",
      "text": "benzene",
      "confidence": 1.0,
      "uuid": "b05124de-5f34-4c14-8f04-ccb20c3780d9",
      "name": "Benzene",
      "url": "https://haz-map.com/Agents/5",
      "category": "agents"
    },
    {
      "type": "name_match",
      "text": "toluene",
      "confidence": 1.0,
      "uuid": "0a34d5de-e924-4c47-aff5-7ae8e48c6772",
      "name": "Toluene",
      "url": "https://haz-map.com/Agents/83",
      "category": "agents"
    },
    {
      "type": "name_match",
      "text": "propane",
      "confidence": 1.0,
      "uuid": "563a611b-46ea-4bdc-b77b-17d8f7646283",
      "name": "Propane",
      "url": "https://haz-map.com/Agents/607",
      "category": "agents"
    },
    {
      "type": "name_match",
      "text": "ash",
      "confidence": 1.0,
      "uuid": "68b360f1-5ad0-4337-bea0-d7adca2961b5",
      "name": "Ash",
      "url": "https://haz-map.com/Agents/965",
      "category": "agents"
    },
    {
      "type": "name_match",
      "text": "sulfur",
      "confidence": 1.0,
      "uuid": "5aabdef6-71c8-44c8-b762-feaabff50696",
      "name": "Sulfur",
      "url": "https://haz-map.com/Agents/1942",
      "category": "agents"
    },
    {
      "type": "name_match",
      "text": "benzyl methyl sulfide",
      "confidence": 1.0,
      "uuid": "6d3a76c7-55ec-43d6-9e53-06f15b96427d",
      "name": "Benzyl methyl sulfide",
      "url": "https://haz-map.com/Agents/7997",
      "category": "agents"
    },
    {
      "type": "name_match",
      "text": "benzyl sulfide",
      "confidence": 1.0,
      "uuid": "15f42592-5d59-4fa8-a1bb-9a3d758b7034",
      "name": "Benzyl sulfide",
      "url": "https://haz-map.com/Agents/7999",
      "category": "agents"
    },
    {
      "type": "name_match",
      "text": "water",
      "confidence": 1.0,
      "uuid": "6f2a7557-dfd2-49bc-9b4b-a93cd8e225d4",
      "name": "Water",
      "url": "https://haz-map.com/Agents/18668",
      "category": "agents"
    }
  ],
  "all_links": [
    {
      "text": "Search PubMed",
      "url": "https://www.ncbi.nlm.nih.gov/pubmed?term=Benzyl+methyl+sulfide%20AND%20human%5Bmh%5D%20AND%20%28Occupational%20Diseases%20%5Bmh%5D%20OR%20Occupational%20Exposure%20%5Bmh%5D%29%20%20AND%20%28tox%5Bsb%5D%29&cmd=search"
    }
  ]
}