{
  "metadata": {
    "scraped_from": "https://haz-map.com/Agents/8265",
    "entity_name": "n-Butyl ether",
    "category": "agents",
    "uuid": "6d55272c-dadc-4051-b974-560b38830ad0",
    "scraped_at": "2025-07-23T20:24:18.780852"
  },
  "parsed_at": "2025-07-24T01:01:53.898718",
  "title": "n-Butyl ether",
  "sections": {
    "general": {
      "agent_name": {
        "original_name": "Agent Name",
        "value": "n-Butyl ether",
        "links": [],
        "cross_references": [
          {
            "type": "name_match",
            "text": "n-butyl ether",
            "confidence": 1.0,
            "uuid": "6d55272c-dadc-4051-b974-560b38830ad0",
            "name": "n-Butyl ether",
            "url": "https://haz-map.com/Agents/8265",
            "category": "agents"
          }
        ]
      },
      "cas_number": {
        "original_name": "CAS Number",
        "value": "142-96-1",
        "links": [],
        "cross_references": []
      },
      "formula": {
        "original_name": "Formula",
        "value": "C8-H18-O",
        "links": [],
        "cross_references": []
      },
      "major_category": {
        "original_name": "Major Category",
        "value": "Solvents",
        "links": [],
        "cross_references": []
      },
      "synonyms": {
        "original_name": "Synonyms",
        "value": "1,1'-Oxybis(butane); 1-Butoxybutane; Butane, 1,1'-oxybis-; Butyl ether; Butyl oxide; Di-n-butyl ether; Dibutyl ether; Dibutyl oxide; Ether butylique [French]; n-Dibutyl ether; [ChemIDplus] UN1149",
        "links": [],
        "cross_references": [
          {
            "type": "name_match",
            "text": "n-butyl ether",
            "confidence": 1.0,
            "uuid": "6d55272c-dadc-4051-b974-560b38830ad0",
            "name": "n-Butyl ether",
            "url": "https://haz-map.com/Agents/8265",
            "category": "agents"
          }
        ]
      },
      "category": {
        "original_name": "Category",
        "value": "Ethers (<C12)",
        "links": [],
        "cross_references": []
      },
      "description": {
        "original_name": "Description",
        "value": "Colorless liquid with a mild ethereal odor; [Hawley]",
        "links": [],
        "cross_references": []
      },
      "sourcesuses": {
        "original_name": "Sources/Uses",
        "value": "Used as solvent (hydrocarbons, resins, fats, oils, organic acids, alkaloids, esters, and gums), extracting agent , intermediate, reaction medium, and in plutonium separation processes; [HSDB]",
        "links": [],
        "cross_references": [
          {
            "type": "name_match",
            "text": "plutonium",
            "confidence": 1.0,
            "uuid": "8182066c-f57a-4fa0-8796-131d34c45e99",
            "name": "Plutonium",
            "url": "https://haz-map.com/Agents/786",
            "category": "agents"
          },
          {
            "type": "name_match",
            "text": "carbon",
            "confidence": 1.0,
            "uuid": "b53f8815-ee80-40ef-b4aa-3b000e17dab5",
            "name": "Carbon",
            "url": "https://haz-map.com/Agents/1891",
            "category": "agents"
          },
          {
            "type": "fuzzy_match",
            "text": "hydrocarbons",
            "matched_name": "Hydrocarbons, C>3",
            "confidence": 0.7100840336134454,
            "uuid": "8eaa37ac-3931-44e4-9242-2734127fd661",
            "category": "agents",
            "url": "https://haz-map.com/Agents/14795"
          }
        ]
      },
      "comments": {
        "original_name": "Comments",
        "value": "May form explosive peroxides; [Hawley] A skin, eye, and respiratory tract irritant; May have effects on CNS and liver; Defats the skin; [ICSC] A skin and eye irritant; [eChemPortal: ERMA] An irritant; Effects in high-dose animal studies include general anesthesia and fatty liver degeneration; [MSDSonline]",
        "links": [],
        "cross_references": []
      },
      "biomedical_references": {
        "original_name": "Biomedical References",
        "value": "Search PubMed",
        "links": [
          {
            "text": "Search PubMed",
            "url": "https://www.ncbi.nlm.nih.gov/pubmed?term=n-Butyl+ether%20AND%20human%5Bmh%5D%20AND%20%28Occupational%20Diseases%20%5Bmh%5D%20OR%20Occupational%20Exposure%20%5Bmh%5D%29%20%20AND%20%28tox%5Bsb%5D%29&cmd=search"
          }
        ],
        "cross_references": []
      }
    },
    "exposure_assessment": {
      "vapor_pressure": {
        "original_name": "Vapor Pressure",
        "value": "6.01 mm Hg",
        "links": [],
        "cross_references": []
      },
      "lethal_concentration": {
        "original_name": "Lethal Concentration",
        "value": "LCLo (rat) = 4,000 ppm/4h",
        "links": [],
        "cross_references": []
      },
      "explanatory_notes": {
        "original_name": "Explanatory Notes",
        "value": "Odor threshold high = 0.37 mg/m3, low = 2.50 mg/m3; [HSDB] The Guide in the Emergency Response Guidebook is for \"Dibutyl ethers.\" VP from ChemIDplus;",
        "links": [],
        "cross_references": []
      },
      "nfpa": {
        "original_name": "NFPA",
        "value": "may ignite at ambient temp",
        "links": [],
        "cross_references": []
      }
    },
    "adverse_effects": {
      "neurotoxin": {
        "original_name": "Neurotoxin",
        "value": "Acute solvent syndrome",
        "links": [],
        "cross_references": []
      },
      "hepatotoxin": {
        "original_name": "Hepatotoxin",
        "value": "Hepatoxic (a) from occupational exposure (secondary effect) or (b) in animal studies or in humans after ingestion",
        "links": [],
        "cross_references": []
      }
    },
    "diseases_processes_and_activities_linked_to_this_agent": {
      "diseases": {
        "original_name": "Diseases",
        "value": "Occupational diseases associated with exposure to this agent: Solvents, acute toxic effect",
        "links": [
          {
            "text": "Solvents, acute toxic effect",
            "url": "https://haz-map.com/Diseases/326"
          }
        ],
        "cross_references": [
          {
            "type": "url_match",
            "text": "Solvents, acute toxic effect",
            "url": "https://haz-map.com/Diseases/326",
            "confidence": 1.0,
            "uuid": "581e90e3-9d0c-45f0-aa6c-3468c28da129",
            "name": "Solvents, acute toxic effect",
            "category": "diseases"
          }
        ]
      }
    }
  },
  "cross_references": [
    {
      "type": "url_match",
      "text": "Solvents, acute toxic effect",
      "url": "https://haz-map.com/Diseases/326",
      "confidence": 1.0,
      "uuid": "581e90e3-9d0c-45f0-aa6c-3468c28da129",
      "name": "Solvents, acute toxic effect",
      "category": "diseases"
    },
    {
      "type": "name_match",
      "text": "plutonium",
      "confidence": 1.0,
      "uuid": "8182066c-f57a-4fa0-8796-131d34c45e99",
      "name": "Plutonium",
      "url": "https://haz-map.com/Agents/786",
      "category": "agents"
    },
    {
      "type": "name_match",
      "text": "carbon",
      "confidence": 1.0,
      "uuid": "b53f8815-ee80-40ef-b4aa-3b000e17dab5",
      "name": "Carbon",
      "url": "https://haz-map.com/Agents/1891",
      "category": "agents"
    },
    {
      "type": "name_match",
      "text": "n-butyl ether",
      "confidence": 1.0,
      "uuid": "6d55272c-dadc-4051-b974-560b38830ad0",
      "name": "n-Butyl ether",
      "url": "https://haz-map.com/Agents/8265",
      "category": "agents"
    },
    {
      "type": "fuzzy_match",
      "text": "hydrocarbons",
      "matched_name": "Hydrocarbons, C>3",
      "confidence": 0.7100840336134454,
      "uuid": "8eaa37ac-3931-44e4-9242-2734127fd661",
      "category": "agents",
      "url": "https://haz-map.com/Agents/14795"
    }
  ],
  "all_links": [
    {
      "text": "Search PubMed",
      "url": "https://www.ncbi.nlm.nih.gov/pubmed?term=n-Butyl+ether%20AND%20human%5Bmh%5D%20AND%20%28Occupational%20Diseases%20%5Bmh%5D%20OR%20Occupational%20Exposure%20%5Bmh%5D%29%20%20AND%20%28tox%5Bsb%5D%29&cmd=search"
    },
    {
      "text": "Solvents, acute toxic effect",
      "url": "https://haz-map.com/Diseases/326"
    }
  ]
}