{
  "metadata": {
    "scraped_from": "https://haz-map.com/Agents/7324",
    "entity_name": "Terephthalic acid",
    "category": "agents",
    "uuid": "6d5bf488-180c-4517-97eb-f977b65b383a",
    "scraped_at": "2025-07-23T20:11:32.725474"
  },
  "parsed_at": "2025-07-24T01:06:42.860794",
  "title": "Terephthalic acid",
  "sections": {
    "general": {
      "agent_name": {
        "original_name": "Agent Name",
        "value": "Terephthalic acid",
        "links": [],
        "cross_references": [
          {
            "type": "name_match",
            "text": "ht",
            "confidence": 1.0,
            "uuid": "764df367-8d53-4a11-81a2-31ccfe122a8d",
            "name": "HT",
            "url": "https://haz-map.com/Agents/2168",
            "category": "agents"
          },
          {
            "type": "name_match",
            "text": "phthalic acid",
            "confidence": 1.0,
            "uuid": "f19ac6b5-df06-48aa-81e6-825cdcfe8f9c",
            "name": "Phthalic acid",
            "url": "https://haz-map.com/Agents/6702",
            "category": "agents"
          },
          {
            "type": "name_match",
            "text": "terephthalic acid",
            "confidence": 1.0,
            "uuid": "6d5bf488-180c-4517-97eb-f977b65b383a",
            "name": "Terephthalic acid",
            "url": "https://haz-map.com/Agents/7324",
            "category": "agents"
          }
        ]
      },
      "alternative_name": {
        "original_name": "Alternative Name",
        "value": "p-Phthalic acid",
        "links": [],
        "cross_references": [
          {
            "type": "name_match",
            "text": "ht",
            "confidence": 1.0,
            "uuid": "764df367-8d53-4a11-81a2-31ccfe122a8d",
            "name": "HT",
            "url": "https://haz-map.com/Agents/2168",
            "category": "agents"
          },
          {
            "type": "name_match",
            "text": "phthalic acid",
            "confidence": 1.0,
            "uuid": "f19ac6b5-df06-48aa-81e6-825cdcfe8f9c",
            "name": "Phthalic acid",
            "url": "https://haz-map.com/Agents/6702",
            "category": "agents"
          }
        ]
      },
      "cas_number": {
        "original_name": "CAS Number",
        "value": "100-21-0",
        "links": [],
        "cross_references": []
      },
      "formula": {
        "original_name": "Formula",
        "value": "C8-H6-O4",
        "links": [],
        "cross_references": []
      },
      "major_category": {
        "original_name": "Major Category",
        "value": "Other Classes",
        "links": [],
        "cross_references": []
      },
      "synonyms": {
        "original_name": "Synonyms",
        "value": "1,4-Benzenedicarboxylic acid; Acide terephtalique [French]; Kyselina tereftalova [Czech]; TA 12; TA-33MP; Tephthol; WR 16262; p-Benzenedicarboxylic acid; p-Carboxybenzoic acid; p-Dicarboxybenzene; p-Phthalic acid; para-Phthalic acid; [ChemIDplus]",
        "links": [],
        "cross_references": [
          {
            "type": "name_match",
            "text": "benzene",
            "confidence": 1.0,
            "uuid": "b05124de-5f34-4c14-8f04-ccb20c3780d9",
            "name": "Benzene",
            "url": "https://haz-map.com/Agents/5",
            "category": "agents"
          },
          {
            "type": "name_match",
            "text": "tali",
            "confidence": 1.0,
            "uuid": "8c3a0f99-2143-4122-b539-ec5cc49596b0",
            "name": "Tali",
            "url": "https://haz-map.com/Agents/1128",
            "category": "agents"
          },
          {
            "type": "name_match",
            "text": "benzoic acid",
            "confidence": 1.0,
            "uuid": "d2c5d3be-d826-4f55-bc32-7b16821aef40",
            "name": "Benzoic acid",
            "url": "https://haz-map.com/Agents/1883",
            "category": "agents"
          },
          {
            "type": "name_match",
            "text": "ht",
            "confidence": 1.0,
            "uuid": "764df367-8d53-4a11-81a2-31ccfe122a8d",
            "name": "HT",
            "url": "https://haz-map.com/Agents/2168",
            "category": "agents"
          },
          {
            "type": "name_match",
            "text": "phthalic acid",
            "confidence": 1.0,
            "uuid": "f19ac6b5-df06-48aa-81e6-825cdcfe8f9c",
            "name": "Phthalic acid",
            "url": "https://haz-map.com/Agents/6702",
            "category": "agents"
          }
        ]
      },
      "category": {
        "original_name": "Category",
        "value": "Organic Acids",
        "links": [],
        "cross_references": []
      },
      "description": {
        "original_name": "Description",
        "value": "White solid; [Hawley] Odorless or a slight acetic acid odor; [CHEMINFO] Off-white powder; [MSDSonline]",
        "links": [],
        "cross_references": [
          {
            "type": "name_match",
            "text": "acetic acid",
            "confidence": 1.0,
            "uuid": "0905c6e4-df84-4895-a92d-658819239bbd",
            "name": "Acetic acid",
            "url": "https://haz-map.com/Agents/207",
            "category": "agents"
          },
          {
            "type": "name_match",
            "text": "ht",
            "confidence": 1.0,
            "uuid": "764df367-8d53-4a11-81a2-31ccfe122a8d",
            "name": "HT",
            "url": "https://haz-map.com/Agents/2168",
            "category": "agents"
          }
        ]
      },
      "sourcesuses": {
        "original_name": "Sources/Uses",
        "value": "Used in wool processing and making plastic films and sheets; Also added to poultry feeds and to certain antibiotics to increase their effectiveness; [HSDB]",
        "links": [],
        "cross_references": [
          {
            "type": "name_match",
            "text": "dde",
            "confidence": 1.0,
            "uuid": "88506fb4-e7b1-4bde-a283-917057f67fc2",
            "name": "DDE",
            "url": "https://haz-map.com/Agents/4656",
            "category": "agents"
          }
        ]
      },
      "comments": {
        "original_name": "Comments",
        "value": "Practically nontoxic in acute, high-dose animal studies; In high-dose feeding studies in rats, it causes bladder stones and subsequent bladder cancers; The bladder cancers are thought to be secondary to the presence of bladder stones. [ACGIH] A skin and eye irritant; [ICSC] An irritant; Effects in high-dose animal studies include abnormal liver function tests; [MSDSonline]",
        "links": [],
        "cross_references": [
          {
            "type": "name_match",
            "text": "bladder cancer",
            "confidence": 1.0,
            "uuid": "bdb957dd-b31e-49e8-b78a-75fe1075dae8",
            "name": "Bladder cancer",
            "url": "https://haz-map.com/Diseases/136",
            "category": "diseases"
          },
          {
            "type": "name_match",
            "text": "ht",
            "confidence": 1.0,
            "uuid": "764df367-8d53-4a11-81a2-31ccfe122a8d",
            "name": "HT",
            "url": "https://haz-map.com/Agents/2168",
            "category": "agents"
          },
          {
            "type": "name_match",
            "text": "dde",
            "confidence": 1.0,
            "uuid": "88506fb4-e7b1-4bde-a283-917057f67fc2",
            "name": "DDE",
            "url": "https://haz-map.com/Agents/4656",
            "category": "agents"
          },
          {
            "type": "fuzzy_match",
            "text": "liver function test",
            "matched_name": "liver function test, abnormal",
            "confidence": 0.7099391480730223,
            "uuid": "914c0118-6d54-441d-ad3a-44c52b3d4e41",
            "category": "findings",
            "url": "https://haz-map.com/Findings/202"
          }
        ]
      },
      "biomedical_references": {
        "original_name": "Biomedical References",
        "value": "Search PubMed",
        "links": [
          {
            "text": "Search PubMed",
            "url": "https://www.ncbi.nlm.nih.gov/pubmed?term=Terephthalic+acid%20AND%20human%5Bmh%5D%20AND%20%28Occupational%20Diseases%20%5Bmh%5D%20OR%20Occupational%20Exposure%20%5Bmh%5D%29%20%20AND%20%28tox%5Bsb%5D%29&cmd=search"
          }
        ],
        "cross_references": []
      }
    },
    "exposure_assessment": {
      "skin_designation_acgih": {
        "original_name": "Skin Designation (ACGIH)",
        "value": "Insufficient data",
        "links": [],
        "cross_references": []
      },
      "tlv_acgih": {
        "original_name": "TLV (ACGIH)",
        "value": "10 mg/m3",
        "links": [],
        "cross_references": []
      },
      "mak": {
        "original_name": "MAK",
        "value": "5 mg/m3, inhalable fraction",
        "links": [],
        "cross_references": []
      },
      "vapor_pressure": {
        "original_name": "Vapor Pressure",
        "value": "9.2E-06 mm Hg",
        "links": [],
        "cross_references": []
      },
      "explanatory_notes": {
        "original_name": "Explanatory Notes",
        "value": "Flash point = 260 deg C; [ICSC]",
        "links": [],
        "cross_references": [
          {
            "type": "name_match",
            "text": "ash",
            "confidence": 1.0,
            "uuid": "68b360f1-5ad0-4337-bea0-d7adca2961b5",
            "name": "Ash",
            "url": "https://haz-map.com/Agents/965",
            "category": "agents"
          }
        ]
      },
      "nfpa": {
        "original_name": "NFPA",
        "value": "must be preheated",
        "links": [],
        "cross_references": []
      }
    },
    "adverse_effects": {
      "hepatotoxin": {
        "original_name": "Hepatotoxin",
        "value": "Hepatoxic (a) from occupational exposure (secondary effect) or (b) in animal studies or in humans after ingestion",
        "links": [],
        "cross_references": []
      }
    },
    "diseases_processes_and_activities_linked_to_this_agent": {
      "processes": {
        "original_name": "Processes",
        "value": "Industrial Processes with risk of exposure: Farming (Feed Additives) Textiles (Fiber & Fabric Manufacturing)",
        "links": [
          {
            "text": "Farming (Feed Additives)",
            "url": "https://haz-map.com/Processes/262"
          },
          {
            "text": "Textiles (Fiber & Fabric Manufacturing)",
            "url": "https://haz-map.com/Processes/135"
          }
        ],
        "cross_references": [
          {
            "type": "url_match",
            "text": "Textiles (Fiber & Fabric Manufacturing)",
            "url": "https://haz-map.com/Processes/135",
            "confidence": 1.0,
            "uuid": "43ebdcdb-bb09-4402-87b6-ae8cf169dddd",
            "name": "Textiles (Fiber & Fabric Manufacturing)",
            "category": "processes"
          }
        ]
      }
    }
  },
  "cross_references": [
    {
      "type": "url_match",
      "text": "Textiles (Fiber & Fabric Manufacturing)",
      "url": "https://haz-map.com/Processes/135",
      "confidence": 1.0,
      "uuid": "43ebdcdb-bb09-4402-87b6-ae8cf169dddd",
      "name": "Textiles (Fiber & Fabric Manufacturing)",
      "category": "processes"
    },
    {
      "type": "name_match",
      "text": "bladder cancer",
      "confidence": 1.0,
      "uuid": "bdb957dd-b31e-49e8-b78a-75fe1075dae8",
      "name": "Bladder cancer",
      "url": "https://haz-map.com/Diseases/136",
      "category": "diseases"
    },
    {
      "type": "name_match",
      "text": "benzene",
      "confidence": 1.0,
      "uuid": "b05124de-5f34-4c14-8f04-ccb20c3780d9",
      "name": "Benzene",
      "url": "https://haz-map.com/Agents/5",
      "category": "agents"
    },
    {
      "type": "name_match",
      "text": "acetic acid",
      "confidence": 1.0,
      "uuid": "0905c6e4-df84-4895-a92d-658819239bbd",
      "name": "Acetic acid",
      "url": "https://haz-map.com/Agents/207",
      "category": "agents"
    },
    {
      "type": "name_match",
      "text": "ash",
      "confidence": 1.0,
      "uuid": "68b360f1-5ad0-4337-bea0-d7adca2961b5",
      "name": "Ash",
      "url": "https://haz-map.com/Agents/965",
      "category": "agents"
    },
    {
      "type": "name_match",
      "text": "tali",
      "confidence": 1.0,
      "uuid": "8c3a0f99-2143-4122-b539-ec5cc49596b0",
      "name": "Tali",
      "url": "https://haz-map.com/Agents/1128",
      "category": "agents"
    },
    {
      "type": "name_match",
      "text": "benzoic acid",
      "confidence": 1.0,
      "uuid": "d2c5d3be-d826-4f55-bc32-7b16821aef40",
      "name": "Benzoic acid",
      "url": "https://haz-map.com/Agents/1883",
      "category": "agents"
    },
    {
      "type": "name_match",
      "text": "ht",
      "confidence": 1.0,
      "uuid": "764df367-8d53-4a11-81a2-31ccfe122a8d",
      "name": "HT",
      "url": "https://haz-map.com/Agents/2168",
      "category": "agents"
    },
    {
      "type": "name_match",
      "text": "dde",
      "confidence": 1.0,
      "uuid": "88506fb4-e7b1-4bde-a283-917057f67fc2",
      "name": "DDE",
      "url": "https://haz-map.com/Agents/4656",
      "category": "agents"
    },
    {
      "type": "name_match",
      "text": "phthalic acid",
      "confidence": 1.0,
      "uuid": "f19ac6b5-df06-48aa-81e6-825cdcfe8f9c",
      "name": "Phthalic acid",
      "url": "https://haz-map.com/Agents/6702",
      "category": "agents"
    },
    {
      "type": "name_match",
      "text": "terephthalic acid",
      "confidence": 1.0,
      "uuid": "6d5bf488-180c-4517-97eb-f977b65b383a",
      "name": "Terephthalic acid",
      "url": "https://haz-map.com/Agents/7324",
      "category": "agents"
    },
    {
      "type": "fuzzy_match",
      "text": "liver function test",
      "matched_name": "liver function test, abnormal",
      "confidence": 0.7099391480730223,
      "uuid": "914c0118-6d54-441d-ad3a-44c52b3d4e41",
      "category": "findings",
      "url": "https://haz-map.com/Findings/202"
    }
  ],
  "all_links": [
    {
      "text": "Search PubMed",
      "url": "https://www.ncbi.nlm.nih.gov/pubmed?term=Terephthalic+acid%20AND%20human%5Bmh%5D%20AND%20%28Occupational%20Diseases%20%5Bmh%5D%20OR%20Occupational%20Exposure%20%5Bmh%5D%29%20%20AND%20%28tox%5Bsb%5D%29&cmd=search"
    },
    {
      "text": "Farming (Feed Additives)",
      "url": "https://haz-map.com/Processes/262"
    },
    {
      "text": "Textiles (Fiber & Fabric Manufacturing)",
      "url": "https://haz-map.com/Processes/135"
    }
  ]
}