{
  "metadata": {
    "scraped_from": "https://haz-map.com/Agents/13956",
    "entity_name": "DL-Dihydroxyphenylalanine",
    "category": "agents",
    "uuid": "6d699fdb-eee0-45c3-897e-e73d264f81b5",
    "scraped_at": "2025-07-23T21:19:38.801960"
  },
  "parsed_at": "2025-07-24T01:16:27.155744",
  "title": "DL-Dihydroxyphenylalanine",
  "sections": {
    "general": {
      "agent_name": {
        "original_name": "Agent Name",
        "value": "DL-Dihydroxyphenylalanine",
        "links": [],
        "cross_references": [
          {
            "type": "name_match",
            "text": "alanine",
            "confidence": 1.0,
            "uuid": "0829012c-76c4-4cb5-91ac-cacb73278dc5",
            "name": "Alanine",
            "url": "https://haz-map.com/Agents/11406",
            "category": "agents"
          },
          {
            "type": "name_match",
            "text": "dl-dihydroxyphenylalanine",
            "confidence": 1.0,
            "uuid": "6d699fdb-eee0-45c3-897e-e73d264f81b5",
            "name": "DL-Dihydroxyphenylalanine",
            "url": "https://haz-map.com/Agents/13956",
            "category": "agents"
          },
          {
            "type": "name_match",
            "text": "phenylalanine",
            "confidence": 1.0,
            "uuid": "8be416e5-4a8c-41fd-bcc7-d2a9217599fb",
            "name": "Phenylalanine",
            "url": "https://haz-map.com/Agents/16561",
            "category": "agents"
          }
        ]
      },
      "alternative_name": {
        "original_name": "Alternative Name",
        "value": "DL-Dopa",
        "links": [],
        "cross_references": []
      },
      "cas_number": {
        "original_name": "CAS Number",
        "value": "63-84-3",
        "links": [],
        "cross_references": []
      },
      "formula": {
        "original_name": "Formula",
        "value": "C9-H11-N-O4",
        "links": [],
        "cross_references": []
      },
      "major_category": {
        "original_name": "Major Category",
        "value": "Biological Agents",
        "links": [],
        "cross_references": []
      },
      "synonyms": {
        "original_name": "Synonyms",
        "value": "(+-)-3-(3,4-Dihydroxyphenyl)alanine; (+-)-Dopa; (R,S)-Dopa; 3-Hydroxy-DL-tyrosine; DL-3,4-Dopa; DL-Dioxyphenylalanine; DL-beta-(3,4-Dihydroxyphenyl)alanine; 3-(3,4-Dihydroxyphenyl)-DL-alanine; Alanine, 3-(3,4-dihydroxyphenyl)-, DL-; DL-Tyrosine, 3-hydroxy-; [ChemIDplus] 3,4-Dihydroxy-DL-phenylalanine; DL-3-Hydroxytyrosine; DL-DOPA; [Sigma-Aldrich MSDS]",
        "links": [],
        "cross_references": [
          {
            "type": "name_match",
            "text": "alanine",
            "confidence": 1.0,
            "uuid": "0829012c-76c4-4cb5-91ac-cacb73278dc5",
            "name": "Alanine",
            "url": "https://haz-map.com/Agents/11406",
            "category": "agents"
          },
          {
            "type": "name_match",
            "text": "dl-alanine",
            "confidence": 1.0,
            "uuid": "829cca2d-a9d3-4fbd-9d26-aefabd46cb85",
            "name": "DL-Alanine",
            "url": "https://haz-map.com/Agents/13948",
            "category": "agents"
          },
          {
            "type": "name_match",
            "text": "phenylalanine",
            "confidence": 1.0,
            "uuid": "8be416e5-4a8c-41fd-bcc7-d2a9217599fb",
            "name": "Phenylalanine",
            "url": "https://haz-map.com/Agents/16561",
            "category": "agents"
          },
          {
            "type": "name_match",
            "text": "tyrosine",
            "confidence": 1.0,
            "uuid": "f9f78e9e-985b-45af-8557-02c83fa04d59",
            "name": "Tyrosine",
            "url": "https://haz-map.com/Agents/18489",
            "category": "agents"
          },
          {
            "type": "name_match",
            "text": "dl-phenylalanine",
            "confidence": 1.0,
            "uuid": "86bbde24-784e-4437-940c-cde38ab1bbd0",
            "name": "DL-Phenylalanine",
            "url": "https://haz-map.com/Agents/21466",
            "category": "agents"
          }
        ]
      },
      "category": {
        "original_name": "Category",
        "value": "Amino Acids and Derivatives",
        "links": [],
        "cross_references": []
      },
      "description": {
        "original_name": "Description",
        "value": "Solid; [Merck Index] White solid; [Sigma-Aldrich MSDS]",
        "links": [],
        "cross_references": []
      },
      "sourcesuses": {
        "original_name": "Sources/Uses",
        "value": "Dopa is an amino acid in the seedlings, pods, and beans of broad beans and velvet beans; [Merck Index]",
        "links": [],
        "cross_references": []
      },
      "comments": {
        "original_name": "Comments",
        "value": "A skin and strong eye irritant; [Sigma-Aldrich MSDS] See \"Levodopa.\"",
        "links": [],
        "cross_references": [
          {
            "type": "name_match",
            "text": "levodopa",
            "confidence": 1.0,
            "uuid": "b9c1a46c-99fb-46d3-a915-7e5b2d3163e4",
            "name": "Levodopa",
            "url": "https://haz-map.com/Agents/15098",
            "category": "agents"
          }
        ]
      },
      "biomedical_references": {
        "original_name": "Biomedical References",
        "value": "Search PubMed",
        "links": [
          {
            "text": "Search PubMed",
            "url": "https://www.ncbi.nlm.nih.gov/pubmed?term=DL-Dihydroxyphenylalanine%20AND%20human%5Bmh%5D%20AND%20%28Occupational%20Diseases%20%5Bmh%5D%20OR%20Occupational%20Exposure%20%5Bmh%5D%29%20%20AND%20%28tox%5Bsb%5D%29&cmd=search"
          }
        ],
        "cross_references": []
      }
    },
    "exposure_assessment": {
      "vapor_pressure": {
        "original_name": "Vapor Pressure",
        "value": "1.24E-10 mm Hg",
        "links": [],
        "cross_references": []
      }
    },
    "diseases_processes_and_activities_linked_to_this_agent": {
      "other_information": {
        "original_name": "Other Information",
        "value": "No other related information on this agent was found.",
        "links": [],
        "cross_references": []
      }
    }
  },
  "cross_references": [
    {
      "type": "name_match",
      "text": "alanine",
      "confidence": 1.0,
      "uuid": "0829012c-76c4-4cb5-91ac-cacb73278dc5",
      "name": "Alanine",
      "url": "https://haz-map.com/Agents/11406",
      "category": "agents"
    },
    {
      "type": "name_match",
      "text": "dl-alanine",
      "confidence": 1.0,
      "uuid": "829cca2d-a9d3-4fbd-9d26-aefabd46cb85",
      "name": "DL-Alanine",
      "url": "https://haz-map.com/Agents/13948",
      "category": "agents"
    },
    {
      "type": "name_match",
      "text": "dl-dihydroxyphenylalanine",
      "confidence": 1.0,
      "uuid": "6d699fdb-eee0-45c3-897e-e73d264f81b5",
      "name": "DL-Dihydroxyphenylalanine",
      "url": "https://haz-map.com/Agents/13956",
      "category": "agents"
    },
    {
      "type": "name_match",
      "text": "levodopa",
      "confidence": 1.0,
      "uuid": "b9c1a46c-99fb-46d3-a915-7e5b2d3163e4",
      "name": "Levodopa",
      "url": "https://haz-map.com/Agents/15098",
      "category": "agents"
    },
    {
      "type": "name_match",
      "text": "phenylalanine",
      "confidence": 1.0,
      "uuid": "8be416e5-4a8c-41fd-bcc7-d2a9217599fb",
      "name": "Phenylalanine",
      "url": "https://haz-map.com/Agents/16561",
      "category": "agents"
    },
    {
      "type": "name_match",
      "text": "tyrosine",
      "confidence": 1.0,
      "uuid": "f9f78e9e-985b-45af-8557-02c83fa04d59",
      "name": "Tyrosine",
      "url": "https://haz-map.com/Agents/18489",
      "category": "agents"
    },
    {
      "type": "name_match",
      "text": "dl-phenylalanine",
      "confidence": 1.0,
      "uuid": "86bbde24-784e-4437-940c-cde38ab1bbd0",
      "name": "DL-Phenylalanine",
      "url": "https://haz-map.com/Agents/21466",
      "category": "agents"
    }
  ],
  "all_links": [
    {
      "text": "Search PubMed",
      "url": "https://www.ncbi.nlm.nih.gov/pubmed?term=DL-Dihydroxyphenylalanine%20AND%20human%5Bmh%5D%20AND%20%28Occupational%20Diseases%20%5Bmh%5D%20OR%20Occupational%20Exposure%20%5Bmh%5D%29%20%20AND%20%28tox%5Bsb%5D%29&cmd=search"
    }
  ]
}