{
  "metadata": {
    "scraped_from": "https://haz-map.com/Agents/16331",
    "entity_name": "8-Hydroxyquinoline sulfate",
    "category": "agents",
    "uuid": "6db39b13-6e90-4a85-bc24-f1dd2cf00948",
    "scraped_at": "2025-07-23T21:36:37.015731"
  },
  "parsed_at": "2025-07-24T01:14:19.740362",
  "title": "8-Hydroxyquinoline sulfate",
  "sections": {
    "general": {
      "agent_name": {
        "original_name": "Agent Name",
        "value": "8-Hydroxyquinoline sulfate",
        "links": [],
        "cross_references": [
          {
            "type": "name_match",
            "text": "8-hydroxyquinoline",
            "confidence": 1.0,
            "uuid": "30351701-d3cb-4b1e-85e5-6174199a94be",
            "name": "8-Hydroxyquinoline",
            "url": "https://haz-map.com/Agents/3354",
            "category": "agents"
          },
          {
            "type": "name_match",
            "text": "quinoline",
            "confidence": 1.0,
            "uuid": "ba9097a5-8299-4dfd-a74a-f179b7d465d1",
            "name": "Quinoline",
            "url": "https://haz-map.com/Agents/6937",
            "category": "agents"
          },
          {
            "type": "name_match",
            "text": "8-hydroxyquinoline sulfate",
            "confidence": 1.0,
            "uuid": "6db39b13-6e90-4a85-bc24-f1dd2cf00948",
            "name": "8-Hydroxyquinoline sulfate",
            "url": "https://haz-map.com/Agents/16331",
            "category": "agents"
          }
        ]
      },
      "alternative_name": {
        "original_name": "Alternative Name",
        "value": "Oxyquinoline sulfate",
        "links": [],
        "cross_references": [
          {
            "type": "name_match",
            "text": "quinoline",
            "confidence": 1.0,
            "uuid": "ba9097a5-8299-4dfd-a74a-f179b7d465d1",
            "name": "Quinoline",
            "url": "https://haz-map.com/Agents/6937",
            "category": "agents"
          }
        ]
      },
      "cas_number": {
        "original_name": "CAS Number",
        "value": "134-31-6",
        "links": [],
        "cross_references": []
      },
      "formula": {
        "original_name": "Formula",
        "value": "C18-H14-N2-O2.H2-O4-S",
        "links": [],
        "cross_references": []
      },
      "major_category": {
        "original_name": "Major Category",
        "value": "Nitrogen Compounds",
        "links": [],
        "cross_references": [
          {
            "type": "name_match",
            "text": "nitrogen",
            "confidence": 1.0,
            "uuid": "db5e90a9-06d2-45b9-8b81-f345a89b0bc0",
            "name": "Nitrogen",
            "url": "https://haz-map.com/Agents/1072",
            "category": "agents"
          }
        ]
      },
      "synonyms": {
        "original_name": "Synonyms",
        "value": "8-Hydroxy-chinolin-sulfat [German]; 8-Quinolinol sulfate; 8-Quinolinol, sulfate (2:1) (salt); 8-Quinolinol, hydrogen sulfate (2:1); Albisal; Chinosol; Cryptonol; Happy; Khinozol; Octofen; Oxine sulfate; Oxyquinoline sulfate; Quinosol; Quinosol Extra; Solfato di 8-ossichinolina; Solvochin-Extra; Sunoxol; Superol; Bis(8-hydroxyquinolinium) sulphate; [ChemIDplus] 8-Hydroxyquinoline sulfuric acid salt; 8-Hydroxyquinoline sulphate; 8-Quinolinol sulphate; Criptonol; Hydroxyquinoline sulfate; Oxyquinol; [CAMEO] 8-Quinolinol hemisulfate salt; 8-Hydroxyquinoline hemisulfate salt; [Sigma-Aldrich MSDS]",
        "links": [],
        "cross_references": [
          {
            "type": "name_match",
            "text": "sulfuric acid",
            "confidence": 1.0,
            "uuid": "68b10130-8bd0-4778-a4f8-832c880d23aa",
            "name": "Sulfuric acid",
            "url": "https://haz-map.com/Agents/635",
            "category": "agents"
          },
          {
            "type": "name_match",
            "text": "hydrogen",
            "confidence": 1.0,
            "uuid": "e2d9645f-5559-4d88-b820-fc4710c154f2",
            "name": "Hydrogen",
            "url": "https://haz-map.com/Agents/1070",
            "category": "agents"
          },
          {
            "type": "name_match",
            "text": "sulfur",
            "confidence": 1.0,
            "uuid": "5aabdef6-71c8-44c8-b762-feaabff50696",
            "name": "Sulfur",
            "url": "https://haz-map.com/Agents/1942",
            "category": "agents"
          },
          {
            "type": "name_match",
            "text": "8-hydroxyquinoline",
            "confidence": 1.0,
            "uuid": "30351701-d3cb-4b1e-85e5-6174199a94be",
            "name": "8-Hydroxyquinoline",
            "url": "https://haz-map.com/Agents/3354",
            "category": "agents"
          },
          {
            "type": "name_match",
            "text": "quinoline",
            "confidence": 1.0,
            "uuid": "ba9097a5-8299-4dfd-a74a-f179b7d465d1",
            "name": "Quinoline",
            "url": "https://haz-map.com/Agents/6937",
            "category": "agents"
          },
          {
            "type": "name_match",
            "text": "uric acid",
            "confidence": 1.0,
            "uuid": "bd67e9b1-899e-4f1c-95f0-d25380f3c966",
            "name": "Uric acid",
            "url": "https://haz-map.com/Agents/18587",
            "category": "agents"
          }
        ]
      },
      "category": {
        "original_name": "Category",
        "value": "Quinolines",
        "links": [],
        "cross_references": [
          {
            "type": "name_match",
            "text": "quinoline",
            "confidence": 1.0,
            "uuid": "ba9097a5-8299-4dfd-a74a-f179b7d465d1",
            "name": "Quinoline",
            "url": "https://haz-map.com/Agents/6937",
            "category": "agents"
          }
        ]
      },
      "description": {
        "original_name": "Description",
        "value": "Light yellow solid with mild odor of saffron; [Merck Index] Yellow crystalline solid; [Sigma-Aldrich MSDS]",
        "links": [],
        "cross_references": [
          {
            "type": "name_match",
            "text": "ht",
            "confidence": 1.0,
            "uuid": "764df367-8d53-4a11-81a2-31ccfe122a8d",
            "name": "HT",
            "url": "https://haz-map.com/Agents/2168",
            "category": "agents"
          },
          {
            "type": "fuzzy_match",
            "text": "crystalline",
            "matched_name": "Silica, crystalline",
            "confidence": 0.7061403508771931,
            "uuid": "f920e8a2-46df-41b7-af8d-0368a777251e",
            "category": "agents",
            "url": "https://haz-map.com/Agents/427"
          }
        ]
      },
      "sourcesuses": {
        "original_name": "Sources/Uses",
        "value": "Used as a fungistat, complexing agent, chelating agent in determination of trace metals, and antiseptic; [Merck Index] Permitted for use as an inert ingredient in non-food pesticide products; [EPA]",
        "links": [],
        "cross_references": [
          {
            "type": "name_match",
            "text": "fungi",
            "confidence": 1.0,
            "uuid": "e0d489cb-bfee-4aee-b665-999c017268a2",
            "name": "Fungi",
            "url": "https://haz-map.com/Agents/1988",
            "category": "agents"
          }
        ]
      },
      "comments": {
        "original_name": "Comments",
        "value": "May cause irritation; Harmful by ingestion; Targets the CNS; [Sigma-Aldrich MSDS] See \"8-Hydroxyquinoline.\"",
        "links": [],
        "cross_references": [
          {
            "type": "name_match",
            "text": "8-hydroxyquinoline",
            "confidence": 1.0,
            "uuid": "30351701-d3cb-4b1e-85e5-6174199a94be",
            "name": "8-Hydroxyquinoline",
            "url": "https://haz-map.com/Agents/3354",
            "category": "agents"
          },
          {
            "type": "name_match",
            "text": "quinoline",
            "confidence": 1.0,
            "uuid": "ba9097a5-8299-4dfd-a74a-f179b7d465d1",
            "name": "Quinoline",
            "url": "https://haz-map.com/Agents/6937",
            "category": "agents"
          }
        ]
      },
      "biomedical_references": {
        "original_name": "Biomedical References",
        "value": "Search PubMed",
        "links": [
          {
            "text": "Search PubMed",
            "url": "https://www.ncbi.nlm.nih.gov/pubmed?term=8-Hydroxyquinoline+sulfate%20AND%20human%5Bmh%5D%20AND%20%28Occupational%20Diseases%20%5Bmh%5D%20OR%20Occupational%20Exposure%20%5Bmh%5D%29%20%20AND%20%28tox%5Bsb%5D%29&cmd=search"
          }
        ],
        "cross_references": []
      }
    },
    "exposure_assessment": {
      "vapor_pressure": {
        "original_name": "Vapor Pressure",
        "value": "2.1E-15 mm Hg",
        "links": [],
        "cross_references": []
      }
    },
    "diseases_processes_and_activities_linked_to_this_agent": {
      "processes": {
        "original_name": "Processes",
        "value": "Industrial Processes with risk of exposure: Using Disinfectants or Biocides",
        "links": [
          {
            "text": "Using Disinfectants or Biocides",
            "url": "https://haz-map.com/Processes/167"
          }
        ],
        "cross_references": [
          {
            "type": "url_match",
            "text": "Using Disinfectants or Biocides",
            "url": "https://haz-map.com/Processes/167",
            "confidence": 1.0,
            "uuid": "7accb745-ad60-4ef8-9039-8ac4febb8fd8",
            "name": "Using Disinfectants or Biocides",
            "category": "processes"
          }
        ]
      }
    }
  },
  "cross_references": [
    {
      "type": "url_match",
      "text": "Using Disinfectants or Biocides",
      "url": "https://haz-map.com/Processes/167",
      "confidence": 1.0,
      "uuid": "7accb745-ad60-4ef8-9039-8ac4febb8fd8",
      "name": "Using Disinfectants or Biocides",
      "category": "processes"
    },
    {
      "type": "name_match",
      "text": "sulfuric acid",
      "confidence": 1.0,
      "uuid": "68b10130-8bd0-4778-a4f8-832c880d23aa",
      "name": "Sulfuric acid",
      "url": "https://haz-map.com/Agents/635",
      "category": "agents"
    },
    {
      "type": "name_match",
      "text": "hydrogen",
      "confidence": 1.0,
      "uuid": "e2d9645f-5559-4d88-b820-fc4710c154f2",
      "name": "Hydrogen",
      "url": "https://haz-map.com/Agents/1070",
      "category": "agents"
    },
    {
      "type": "name_match",
      "text": "nitrogen",
      "confidence": 1.0,
      "uuid": "db5e90a9-06d2-45b9-8b81-f345a89b0bc0",
      "name": "Nitrogen",
      "url": "https://haz-map.com/Agents/1072",
      "category": "agents"
    },
    {
      "type": "name_match",
      "text": "sulfur",
      "confidence": 1.0,
      "uuid": "5aabdef6-71c8-44c8-b762-feaabff50696",
      "name": "Sulfur",
      "url": "https://haz-map.com/Agents/1942",
      "category": "agents"
    },
    {
      "type": "name_match",
      "text": "fungi",
      "confidence": 1.0,
      "uuid": "e0d489cb-bfee-4aee-b665-999c017268a2",
      "name": "Fungi",
      "url": "https://haz-map.com/Agents/1988",
      "category": "agents"
    },
    {
      "type": "name_match",
      "text": "ht",
      "confidence": 1.0,
      "uuid": "764df367-8d53-4a11-81a2-31ccfe122a8d",
      "name": "HT",
      "url": "https://haz-map.com/Agents/2168",
      "category": "agents"
    },
    {
      "type": "name_match",
      "text": "8-hydroxyquinoline",
      "confidence": 1.0,
      "uuid": "30351701-d3cb-4b1e-85e5-6174199a94be",
      "name": "8-Hydroxyquinoline",
      "url": "https://haz-map.com/Agents/3354",
      "category": "agents"
    },
    {
      "type": "name_match",
      "text": "quinoline",
      "confidence": 1.0,
      "uuid": "ba9097a5-8299-4dfd-a74a-f179b7d465d1",
      "name": "Quinoline",
      "url": "https://haz-map.com/Agents/6937",
      "category": "agents"
    },
    {
      "type": "name_match",
      "text": "8-hydroxyquinoline sulfate",
      "confidence": 1.0,
      "uuid": "6db39b13-6e90-4a85-bc24-f1dd2cf00948",
      "name": "8-Hydroxyquinoline sulfate",
      "url": "https://haz-map.com/Agents/16331",
      "category": "agents"
    },
    {
      "type": "name_match",
      "text": "uric acid",
      "confidence": 1.0,
      "uuid": "bd67e9b1-899e-4f1c-95f0-d25380f3c966",
      "name": "Uric acid",
      "url": "https://haz-map.com/Agents/18587",
      "category": "agents"
    },
    {
      "type": "fuzzy_match",
      "text": "crystalline",
      "matched_name": "Silica, crystalline",
      "confidence": 0.7061403508771931,
      "uuid": "f920e8a2-46df-41b7-af8d-0368a777251e",
      "category": "agents",
      "url": "https://haz-map.com/Agents/427"
    }
  ],
  "all_links": [
    {
      "text": "Search PubMed",
      "url": "https://www.ncbi.nlm.nih.gov/pubmed?term=8-Hydroxyquinoline+sulfate%20AND%20human%5Bmh%5D%20AND%20%28Occupational%20Diseases%20%5Bmh%5D%20OR%20Occupational%20Exposure%20%5Bmh%5D%29%20%20AND%20%28tox%5Bsb%5D%29&cmd=search"
    },
    {
      "text": "Using Disinfectants or Biocides",
      "url": "https://haz-map.com/Processes/167"
    }
  ]
}