{
  "metadata": {
    "scraped_from": "https://haz-map.com/Agents/5949",
    "entity_name": "Mephosfolan",
    "category": "agents",
    "uuid": "6e078088-e731-4411-a3c0-db2c9a7abd07",
    "scraped_at": "2025-07-23T19:57:14.949156"
  },
  "parsed_at": "2025-07-24T01:11:56.940593",
  "title": "Mephosfolan",
  "sections": {
    "general": {
      "agent_name": {
        "original_name": "Agent Name",
        "value": "Mephosfolan",
        "links": [],
        "cross_references": [
          {
            "type": "name_match",
            "text": "phosfolan",
            "confidence": 1.0,
            "uuid": "50a10f1a-8695-4f21-8b46-1cce87139ad5",
            "name": "Phosfolan",
            "url": "https://haz-map.com/Agents/4622",
            "category": "agents"
          },
          {
            "type": "name_match",
            "text": "mephosfolan",
            "confidence": 1.0,
            "uuid": "6e078088-e731-4411-a3c0-db2c9a7abd07",
            "name": "Mephosfolan",
            "url": "https://haz-map.com/Agents/5949",
            "category": "agents"
          }
        ]
      },
      "cas_number": {
        "original_name": "CAS Number",
        "value": "950-10-7",
        "links": [],
        "cross_references": []
      },
      "formula": {
        "original_name": "Formula",
        "value": "C8-H16-N-O3-P-S2",
        "links": [],
        "cross_references": []
      },
      "major_category": {
        "original_name": "Major Category",
        "value": "Pesticides",
        "links": [],
        "cross_references": []
      },
      "synonyms": {
        "original_name": "Synonyms",
        "value": "(4-Methyl-1,3-dithiolan-2-ylid-ene)phosphoramidic acid diethyl ester; (Diethoxyphosphinyl)dithioimidocarbonic acid cyclic propylene ester; 1,2-Propanedithiol, cyclic ester with P,P-diethyl phosphonodithioimidocarbonate; 2-(Diethoxyphosphinylimino)-4-methyl-1,3-dithiolane; AC 47470; American Cyanamid CL-47470; CL-47,470; Cyclic propylene (diethoxyphosphinyl)dithioimidocarbonate; Cyclic propylene P,P-diethyl phosphonodithioimidocarbonate (8CI); Cytrolane; Cytrolane insecticide; Diethyl (4-methyl-1,3-dithiolan-2-ylidene)phosphoroamidate; EI-47470; ENT-25,991; Imidocarbonic acid, phosphonodithio-, cyclic propylene P,P-diethyl ester; Mephospholan [ISO-French]; O,O-Diethyl(4-methyl-1,3-dithiolan-2-ylidene)phosphoramidate; P,P-Diethyl cyclic propylene ester of phosphonodithioimidocarbonic acid; Phosphonodithioimidocarbonic acid cyclic propylene P,P-diethyl ester; Phosphoramidic acid, (4-methyl-1,3-dithiolan-2-ylidene)-, diethyl ester; [ChemIDplus]",
        "links": [],
        "cross_references": [
          {
            "type": "name_match",
            "text": "propane",
            "confidence": 1.0,
            "uuid": "563a611b-46ea-4bdc-b77b-17d8f7646283",
            "name": "Propane",
            "url": "https://haz-map.com/Agents/607",
            "category": "agents"
          },
          {
            "type": "name_match",
            "text": "propylene",
            "confidence": 1.0,
            "uuid": "78ac73a1-0029-4a50-b283-561134c72041",
            "name": "Propylene",
            "url": "https://haz-map.com/Agents/1078",
            "category": "agents"
          },
          {
            "type": "name_match",
            "text": "carbon",
            "confidence": 1.0,
            "uuid": "b53f8815-ee80-40ef-b4aa-3b000e17dab5",
            "name": "Carbon",
            "url": "https://haz-map.com/Agents/1891",
            "category": "agents"
          },
          {
            "type": "name_match",
            "text": "1,3-dithiolane",
            "confidence": 1.0,
            "uuid": "478f0f3a-23ff-4fb9-80ef-6c4e1fe65649",
            "name": "1,3-Dithiolane",
            "url": "https://haz-map.com/Agents/9724",
            "category": "agents"
          },
          {
            "type": "name_match",
            "text": "carbonic acid",
            "confidence": 1.0,
            "uuid": "3ab00515-332f-4177-a200-79dd593298a4",
            "name": "Carbonic acid",
            "url": "https://haz-map.com/Agents/12760",
            "category": "agents"
          }
        ]
      },
      "category": {
        "original_name": "Category",
        "value": "Organophosphate Insecticides",
        "links": [],
        "cross_references": []
      },
      "description": {
        "original_name": "Description",
        "value": "Colorless or yellow to amber liquid; [HSDB]",
        "links": [],
        "cross_references": []
      },
      "sourcesuses": {
        "original_name": "Sources/Uses",
        "value": "Used as contact and stomach insecticide and acaricide for cotton, fruits, vegetables, maize, and other crops; [HSDB]",
        "links": [],
        "cross_references": []
      },
      "comments": {
        "original_name": "Comments",
        "value": "A highly toxic cholinesterase inhibitor; [CAMEO] “The average of two baseline respective cholinesterase activity determinations three days apart, with no exposures to enzyme inhibiting pesticides for at least 30 days, is recommended for each worker prior to exposure to cholinesterase inhibitors because of large inter-individual differences in published baseline values. To be established at least once a year. Removal from workplace exposures is recommended until the cholinesterase activity returns to within 20% of baseline.” [TLVs and BEIs]",
        "links": [],
        "cross_references": [
          {
            "type": "name_match",
            "text": "choline",
            "confidence": 1.0,
            "uuid": "a21a71e9-9d67-4563-9da2-98c4dcb1b766",
            "name": "Choline",
            "url": "https://haz-map.com/Agents/12978",
            "category": "agents"
          }
        ]
      },
      "restricted": {
        "original_name": "Restricted",
        "value": "Not registered in the US for use as pesticide; [CAMEO]",
        "links": [],
        "cross_references": []
      },
      "biomedical_references": {
        "original_name": "Biomedical References",
        "value": "Search PubMed",
        "links": [
          {
            "text": "Search PubMed",
            "url": "https://www.ncbi.nlm.nih.gov/pubmed?term=Mephosfolan%20AND%20human%5Bmh%5D%20AND%20%28Occupational%20Diseases%20%5Bmh%5D%20OR%20Occupational%20Exposure%20%5Bmh%5D%29%20%20AND%20%28tox%5Bsb%5D%29&cmd=search"
          }
        ],
        "cross_references": []
      }
    },
    "exposure_assessment": {
      "bei": {
        "original_name": "BEI",
        "value": "Acetylcholinesterase activity in red blood cells = 70% of individual's baseline; Butylcholinesterase activity in serum or plasma = 60% of individual's baseline; Sample at end of shift; [TLVs and BEIs]",
        "links": [],
        "cross_references": [
          {
            "type": "name_match",
            "text": "choline",
            "confidence": 1.0,
            "uuid": "a21a71e9-9d67-4563-9da2-98c4dcb1b766",
            "name": "Choline",
            "url": "https://haz-map.com/Agents/12978",
            "category": "agents"
          }
        ]
      },
      "vapor_pressure": {
        "original_name": "Vapor Pressure",
        "value": "3.18E-05 mm Hg",
        "links": [],
        "cross_references": []
      }
    },
    "adverse_effects": {
      "other_poison": {
        "original_name": "Other Poison",
        "value": "Organophosphate",
        "links": [],
        "cross_references": []
      }
    },
    "diseases_processes_and_activities_linked_to_this_agent": {
      "diseases": {
        "original_name": "Diseases",
        "value": "Occupational diseases associated with exposure to this agent: Organophosphates & carbamates, acute poisoning",
        "links": [
          {
            "text": "Organophosphates & carbamates, acute poisoning",
            "url": "https://haz-map.com/Diseases/66"
          }
        ],
        "cross_references": [
          {
            "type": "url_match",
            "text": "Organophosphates & carbamates, acute poisoning",
            "url": "https://haz-map.com/Diseases/66",
            "confidence": 1.0,
            "uuid": "aea2cba9-fb36-463f-84d8-b819551bb327",
            "name": "Organophosphates & carbamates, acute poisoning",
            "category": "diseases"
          },
          {
            "type": "name_match",
            "text": "organophosphates",
            "confidence": 1.0,
            "uuid": "8d2d239c-20f9-4f02-9916-5e7667b9990c",
            "name": "ORGANOPHOSPHATES",
            "url": "https://haz-map.com/Agents/702",
            "category": "agents"
          }
        ]
      },
      "processes": {
        "original_name": "Processes",
        "value": "Industrial Processes with risk of exposure: Farming (Pesticides)",
        "links": [
          {
            "text": "Farming (Pesticides)",
            "url": "https://haz-map.com/Processes/218"
          }
        ],
        "cross_references": [
          {
            "type": "url_match",
            "text": "Farming (Pesticides)",
            "url": "https://haz-map.com/Processes/218",
            "confidence": 1.0,
            "uuid": "cf1e5815-c9bb-4917-82a5-391848170b7e",
            "name": "Farming (Pesticides)",
            "category": "processes"
          }
        ]
      }
    }
  },
  "cross_references": [
    {
      "type": "url_match",
      "text": "Organophosphates & carbamates, acute poisoning",
      "url": "https://haz-map.com/Diseases/66",
      "confidence": 1.0,
      "uuid": "aea2cba9-fb36-463f-84d8-b819551bb327",
      "name": "Organophosphates & carbamates, acute poisoning",
      "category": "diseases"
    },
    {
      "type": "url_match",
      "text": "Farming (Pesticides)",
      "url": "https://haz-map.com/Processes/218",
      "confidence": 1.0,
      "uuid": "cf1e5815-c9bb-4917-82a5-391848170b7e",
      "name": "Farming (Pesticides)",
      "category": "processes"
    },
    {
      "type": "name_match",
      "text": "propane",
      "confidence": 1.0,
      "uuid": "563a611b-46ea-4bdc-b77b-17d8f7646283",
      "name": "Propane",
      "url": "https://haz-map.com/Agents/607",
      "category": "agents"
    },
    {
      "type": "name_match",
      "text": "organophosphates",
      "confidence": 1.0,
      "uuid": "8d2d239c-20f9-4f02-9916-5e7667b9990c",
      "name": "ORGANOPHOSPHATES",
      "url": "https://haz-map.com/Agents/702",
      "category": "agents"
    },
    {
      "type": "name_match",
      "text": "propylene",
      "confidence": 1.0,
      "uuid": "78ac73a1-0029-4a50-b283-561134c72041",
      "name": "Propylene",
      "url": "https://haz-map.com/Agents/1078",
      "category": "agents"
    },
    {
      "type": "name_match",
      "text": "carbon",
      "confidence": 1.0,
      "uuid": "b53f8815-ee80-40ef-b4aa-3b000e17dab5",
      "name": "Carbon",
      "url": "https://haz-map.com/Agents/1891",
      "category": "agents"
    },
    {
      "type": "name_match",
      "text": "phosfolan",
      "confidence": 1.0,
      "uuid": "50a10f1a-8695-4f21-8b46-1cce87139ad5",
      "name": "Phosfolan",
      "url": "https://haz-map.com/Agents/4622",
      "category": "agents"
    },
    {
      "type": "name_match",
      "text": "mephosfolan",
      "confidence": 1.0,
      "uuid": "6e078088-e731-4411-a3c0-db2c9a7abd07",
      "name": "Mephosfolan",
      "url": "https://haz-map.com/Agents/5949",
      "category": "agents"
    },
    {
      "type": "name_match",
      "text": "1,3-dithiolane",
      "confidence": 1.0,
      "uuid": "478f0f3a-23ff-4fb9-80ef-6c4e1fe65649",
      "name": "1,3-Dithiolane",
      "url": "https://haz-map.com/Agents/9724",
      "category": "agents"
    },
    {
      "type": "name_match",
      "text": "carbonic acid",
      "confidence": 1.0,
      "uuid": "3ab00515-332f-4177-a200-79dd593298a4",
      "name": "Carbonic acid",
      "url": "https://haz-map.com/Agents/12760",
      "category": "agents"
    },
    {
      "type": "name_match",
      "text": "choline",
      "confidence": 1.0,
      "uuid": "a21a71e9-9d67-4563-9da2-98c4dcb1b766",
      "name": "Choline",
      "url": "https://haz-map.com/Agents/12978",
      "category": "agents"
    }
  ],
  "all_links": [
    {
      "text": "Search PubMed",
      "url": "https://www.ncbi.nlm.nih.gov/pubmed?term=Mephosfolan%20AND%20human%5Bmh%5D%20AND%20%28Occupational%20Diseases%20%5Bmh%5D%20OR%20Occupational%20Exposure%20%5Bmh%5D%29%20%20AND%20%28tox%5Bsb%5D%29&cmd=search"
    },
    {
      "text": "Organophosphates & carbamates, acute poisoning",
      "url": "https://haz-map.com/Diseases/66"
    },
    {
      "text": "Farming (Pesticides)",
      "url": "https://haz-map.com/Processes/218"
    }
  ]
}