{
  "metadata": {
    "scraped_from": "https://haz-map.com/Agents/1176",
    "entity_name": "Dinocap",
    "category": "agents",
    "uuid": "6e462212-cb88-4d6f-ac31-50316cd1a159",
    "scraped_at": "2025-07-23T18:53:52.088251"
  },
  "parsed_at": "2025-07-24T01:16:40.400278",
  "title": "Dinocap",
  "sections": {
    "general": {
      "agent_name": {
        "original_name": "Agent Name",
        "value": "Dinocap",
        "links": [],
        "cross_references": [
          {
            "type": "name_match",
            "text": "dinocap",
            "confidence": 1.0,
            "uuid": "6e462212-cb88-4d6f-ac31-50316cd1a159",
            "name": "Dinocap",
            "url": "https://haz-map.com/Agents/1176",
            "category": "agents"
          }
        ]
      },
      "cas_number": {
        "original_name": "CAS Number",
        "value": "39300-45-3",
        "links": [],
        "cross_references": []
      },
      "formula": {
        "original_name": "Formula",
        "value": "C18-H24-N2-O6",
        "links": [],
        "cross_references": []
      },
      "major_category": {
        "original_name": "Major Category",
        "value": "Pesticides",
        "links": [],
        "cross_references": []
      },
      "synonyms": {
        "original_name": "Synonyms",
        "value": "Arathane; 2-Butenoic acid, 2-(1-methylheptyl)-4,6-dinitrophenyl ester; 2-Butenoic acid, 2(or 4)-isooctyl-4,6(or 2,6)-dinitrophenyl ester; Caprane; Capyldinitrophenyl crotonate; Caratan; Carathane; CR 1639; Crotonic acid, 2,4-dinitro-6-(1-methylheptyl)phenyl ester; Crotonic acid, 2,4-dinitro-6-(2-octyl)phenyl ester; Crotonic acid, 2-(1-methylheptyl)-4,6-dinitrophenyl ester; Crotothane; Dinitrocarylphenyl crotonate; 4,6-Dinitro-2-(2-capryl)phenyl crotonate; 2,4-Dinitro-6-(1-methylheptyl)phenyl crotonate; 4,6-Dinitro-2-(1-methylheptyl)phenyl crotonate; Dinitromethylheptylphenyl crotonate; DPC; Isocothane; Karatan; Karathane; 2-(1-Methylheptyl)-4,6-dinitrophenyl crotonate; Mildex; [HSDB]",
        "links": [],
        "cross_references": [
          {
            "type": "name_match",
            "text": "2,4-d",
            "confidence": 1.0,
            "uuid": "bed35f54-2d93-4ffd-a3ee-723ab365faf1",
            "name": "2,4-D",
            "url": "https://haz-map.com/Agents/389",
            "category": "agents"
          },
          {
            "type": "name_match",
            "text": "crotonic acid",
            "confidence": 1.0,
            "uuid": "e74d2406-8ee5-4a5f-b0cc-3575bb476716",
            "name": "Crotonic acid",
            "url": "https://haz-map.com/Agents/4536",
            "category": "agents"
          }
        ]
      },
      "category": {
        "original_name": "Category",
        "value": "Herbicides, Nitroaromatic",
        "links": [],
        "cross_references": [
          {
            "type": "name_match",
            "text": "herbicides",
            "confidence": 1.0,
            "uuid": "195f29ae-3f15-47c5-836d-0a9791db3fc1",
            "name": "HERBICIDES",
            "url": "https://haz-map.com/Agents/703",
            "category": "agents"
          }
        ]
      },
      "description": {
        "original_name": "Description",
        "value": "Dark, reddish-brown liquid; [EXTOXNET]",
        "links": [],
        "cross_references": []
      },
      "sourcesuses": {
        "original_name": "Sources/Uses",
        "value": "Nitrophenolic and nitrocresolic herbicides are used in some parts of the world as acaricides, nematicides, ovicides, and fungicides. \"Only dinocap continues to have active registrations in the United States.\" [EPA Pesticides, p. 104] Control of mites on apples trees is the main application of dinocap in the United States. It is also used to kill powdery mildew on fruits, vegetables, and trees. [EXTOXNET]",
        "links": [],
        "cross_references": [
          {
            "type": "name_match",
            "text": "phenol",
            "confidence": 1.0,
            "uuid": "03141a03-a7df-4f51-9a37-adde1a7c4b31",
            "name": "Phenol",
            "url": "https://haz-map.com/Agents/84",
            "category": "agents"
          },
          {
            "type": "name_match",
            "text": "herbicides",
            "confidence": 1.0,
            "uuid": "195f29ae-3f15-47c5-836d-0a9791db3fc1",
            "name": "HERBICIDES",
            "url": "https://haz-map.com/Agents/703",
            "category": "agents"
          },
          {
            "type": "name_match",
            "text": "fungicides",
            "confidence": 1.0,
            "uuid": "f4a9c1e1-4d57-4480-be97-d3590d38ce39",
            "name": "FUNGICIDES",
            "url": "https://haz-map.com/Agents/763",
            "category": "agents"
          },
          {
            "type": "name_match",
            "text": "dinocap",
            "confidence": 1.0,
            "uuid": "6e462212-cb88-4d6f-ac31-50316cd1a159",
            "name": "Dinocap",
            "url": "https://haz-map.com/Agents/1176",
            "category": "agents"
          },
          {
            "type": "name_match",
            "text": "fungi",
            "confidence": 1.0,
            "uuid": "e0d489cb-bfee-4aee-b665-999c017268a2",
            "name": "Fungi",
            "url": "https://haz-map.com/Agents/1988",
            "category": "agents"
          }
        ]
      },
      "comments": {
        "original_name": "Comments",
        "value": "The pathophysiology, like that of pentachlorophenol, involves the uncoupling of oxidative phosphorylation. Yellow stains appear on the skin after dermal contact with the nitroaromatic herbicides. Fatal poisoning can occur after dermal absorption. Cataracts have been reported in animal experiments and after occupational exposure. In severe poisoning, these herbicides can cause injury to the liver and kidneys. [EPA Pesticides, p. 104-5] Dinocap is a potential skin sensitizer and reproductive toxin. [EXTOXNET]",
        "links": [],
        "cross_references": [
          {
            "type": "name_match",
            "text": "cataract",
            "confidence": 1.0,
            "uuid": "3e1b6957-4241-488a-8796-192306a93517",
            "name": "cataract",
            "url": "https://haz-map.com/Findings/131",
            "category": "findings"
          },
          {
            "type": "name_match",
            "text": "pentachlorophenol",
            "confidence": 1.0,
            "uuid": "932cef10-2ea1-446c-8acd-cf572d61731b",
            "name": "Pentachlorophenol",
            "url": "https://haz-map.com/Agents/36",
            "category": "agents"
          },
          {
            "type": "name_match",
            "text": "phenol",
            "confidence": 1.0,
            "uuid": "03141a03-a7df-4f51-9a37-adde1a7c4b31",
            "name": "Phenol",
            "url": "https://haz-map.com/Agents/84",
            "category": "agents"
          },
          {
            "type": "name_match",
            "text": "herbicides",
            "confidence": 1.0,
            "uuid": "195f29ae-3f15-47c5-836d-0a9791db3fc1",
            "name": "HERBICIDES",
            "url": "https://haz-map.com/Agents/703",
            "category": "agents"
          },
          {
            "type": "name_match",
            "text": "dinocap",
            "confidence": 1.0,
            "uuid": "6e462212-cb88-4d6f-ac31-50316cd1a159",
            "name": "Dinocap",
            "url": "https://haz-map.com/Agents/1176",
            "category": "agents"
          }
        ]
      },
      "reference_link_1": {
        "original_name": "Reference Link #1",
        "value": "EXTOXNET - Dinocap",
        "links": [
          {
            "text": "EXTOXNET - Dinocap",
            "url": "http://ace.ace.orst.edu/info/extoxnet/pips/dinocap.htm"
          }
        ],
        "cross_references": [
          {
            "type": "name_match",
            "text": "dinocap",
            "confidence": 1.0,
            "uuid": "6e462212-cb88-4d6f-ac31-50316cd1a159",
            "name": "Dinocap",
            "url": "https://haz-map.com/Agents/1176",
            "category": "agents"
          }
        ]
      },
      "biomedical_references": {
        "original_name": "Biomedical References",
        "value": "Search PubMed",
        "links": [
          {
            "text": "Search PubMed",
            "url": "https://www.ncbi.nlm.nih.gov/pubmed?term=Dinocap%20AND%20human%5Bmh%5D%20AND%20%28Occupational%20Diseases%20%5Bmh%5D%20OR%20Occupational%20Exposure%20%5Bmh%5D%29%20%20AND%20%28tox%5Bsb%5D%29&cmd=search"
          }
        ],
        "cross_references": []
      }
    },
    "exposure_assessment": {
      "vapor_pressure": {
        "original_name": "Vapor Pressure",
        "value": "4E-08 mm Hg",
        "links": [],
        "cross_references": []
      },
      "explanatory_notes": {
        "original_name": "Explanatory Notes",
        "value": "VP from HSDB;",
        "links": [],
        "cross_references": []
      },
      "reference_link_2": {
        "original_name": "Reference Link #2",
        "value": "EPA Pesticide Chemical Search",
        "links": [
          {
            "text": "EPA Pesticide Chemical Search",
            "url": "https://iaspub.epa.gov/apex/pesticides/f?p=CHEMICALSEARCH:1:"
          }
        ],
        "cross_references": [
          {
            "type": "name_match",
            "text": "mica",
            "confidence": 1.0,
            "uuid": "433f26f1-c399-4596-b179-ce3843cfd465",
            "name": "Mica",
            "url": "https://haz-map.com/Agents/621",
            "category": "agents"
          }
        ]
      }
    },
    "adverse_effects": {
      "skin_sensitizer": {
        "original_name": "Skin Sensitizer",
        "value": "Yes",
        "links": [],
        "cross_references": []
      },
      "hepatotoxin": {
        "original_name": "Hepatotoxin",
        "value": "Hepatoxic (a) from occupational exposure (secondary effect) or (b) in animal studies or in humans after ingestion",
        "links": [],
        "cross_references": []
      },
      "nephrotoxin": {
        "original_name": "Nephrotoxin",
        "value": "Yes",
        "links": [],
        "cross_references": []
      },
      "reproductive_toxin": {
        "original_name": "Reproductive Toxin",
        "value": "Yes",
        "links": [],
        "cross_references": []
      },
      "other_poison": {
        "original_name": "Other Poison",
        "value": "Uncoupler",
        "links": [],
        "cross_references": []
      }
    },
    "diseases_processes_and_activities_linked_to_this_agent": {
      "diseases": {
        "original_name": "Diseases",
        "value": "Occupational diseases associated with exposure to this agent: Acute tubular necrosis Cataract, chemical or radiation induced Contact dermatitis, allergic Pentachlorophenol/Dinitrophenol, acute poisoning",
        "links": [
          {
            "text": "Acute tubular necrosis",
            "url": "https://haz-map.com/Diseases/656"
          },
          {
            "text": "Cataract, chemical or radiation induced",
            "url": "https://haz-map.com/Diseases/308"
          },
          {
            "text": "Contact dermatitis, allergic",
            "url": "https://haz-map.com/Diseases/18"
          },
          {
            "text": "Pentachlorophenol/Dinitrophenol, acute poisoning",
            "url": "https://haz-map.com/Diseases/160"
          }
        ],
        "cross_references": [
          {
            "type": "url_match",
            "text": "Cataract, chemical or radiation induced",
            "url": "https://haz-map.com/Diseases/308",
            "confidence": 1.0,
            "uuid": "5972a0ee-7174-461f-9b09-65815de7bc26",
            "name": "Cataract, chemical or radiation induced",
            "category": "diseases"
          },
          {
            "type": "url_match",
            "text": "Contact dermatitis, allergic",
            "url": "https://haz-map.com/Diseases/18",
            "confidence": 1.0,
            "uuid": "c9499de0-9aa1-41bf-8753-cd5b28a63e29",
            "name": "Contact dermatitis, allergic",
            "category": "diseases"
          },
          {
            "type": "url_match",
            "text": "Pentachlorophenol/Dinitrophenol, acute poisoning",
            "url": "https://haz-map.com/Diseases/160",
            "confidence": 1.0,
            "uuid": "ebc7c16f-be74-4bc3-8817-baa9a17eec5c",
            "name": "Pentachlorophenol/Dinitrophenol, acute poisoning",
            "category": "diseases"
          },
          {
            "type": "name_match",
            "text": "dermatitis",
            "confidence": 1.0,
            "uuid": "fe9c05f2-b19f-4ceb-ac7a-ffb7d7a0cae0",
            "name": "dermatitis",
            "url": "https://haz-map.com/Findings/59",
            "category": "findings"
          },
          {
            "type": "name_match",
            "text": "cataract",
            "confidence": 1.0,
            "uuid": "3e1b6957-4241-488a-8796-192306a93517",
            "name": "cataract",
            "url": "https://haz-map.com/Findings/131",
            "category": "findings"
          },
          {
            "type": "name_match",
            "text": "pentachlorophenol",
            "confidence": 1.0,
            "uuid": "932cef10-2ea1-446c-8acd-cf572d61731b",
            "name": "Pentachlorophenol",
            "url": "https://haz-map.com/Agents/36",
            "category": "agents"
          },
          {
            "type": "name_match",
            "text": "phenol",
            "confidence": 1.0,
            "uuid": "03141a03-a7df-4f51-9a37-adde1a7c4b31",
            "name": "Phenol",
            "url": "https://haz-map.com/Agents/84",
            "category": "agents"
          },
          {
            "type": "name_match",
            "text": "mica",
            "confidence": 1.0,
            "uuid": "433f26f1-c399-4596-b179-ce3843cfd465",
            "name": "Mica",
            "url": "https://haz-map.com/Agents/621",
            "category": "agents"
          },
          {
            "type": "name_match",
            "text": "dinitrophenol",
            "confidence": 1.0,
            "uuid": "6335b5e4-a456-4dd1-a0ca-6671d9371e92",
            "name": "Dinitrophenol",
            "url": "https://haz-map.com/Agents/683",
            "category": "agents"
          }
        ]
      },
      "processes": {
        "original_name": "Processes",
        "value": "Industrial Processes with risk of exposure: Farming (Pesticides)",
        "links": [
          {
            "text": "Farming (Pesticides)",
            "url": "https://haz-map.com/Processes/218"
          }
        ],
        "cross_references": [
          {
            "type": "url_match",
            "text": "Farming (Pesticides)",
            "url": "https://haz-map.com/Processes/218",
            "confidence": 1.0,
            "uuid": "cf1e5815-c9bb-4917-82a5-391848170b7e",
            "name": "Farming (Pesticides)",
            "category": "processes"
          }
        ]
      }
    }
  },
  "cross_references": [
    {
      "type": "url_match",
      "text": "Cataract, chemical or radiation induced",
      "url": "https://haz-map.com/Diseases/308",
      "confidence": 1.0,
      "uuid": "5972a0ee-7174-461f-9b09-65815de7bc26",
      "name": "Cataract, chemical or radiation induced",
      "category": "diseases"
    },
    {
      "type": "url_match",
      "text": "Contact dermatitis, allergic",
      "url": "https://haz-map.com/Diseases/18",
      "confidence": 1.0,
      "uuid": "c9499de0-9aa1-41bf-8753-cd5b28a63e29",
      "name": "Contact dermatitis, allergic",
      "category": "diseases"
    },
    {
      "type": "url_match",
      "text": "Pentachlorophenol/Dinitrophenol, acute poisoning",
      "url": "https://haz-map.com/Diseases/160",
      "confidence": 1.0,
      "uuid": "ebc7c16f-be74-4bc3-8817-baa9a17eec5c",
      "name": "Pentachlorophenol/Dinitrophenol, acute poisoning",
      "category": "diseases"
    },
    {
      "type": "url_match",
      "text": "Farming (Pesticides)",
      "url": "https://haz-map.com/Processes/218",
      "confidence": 1.0,
      "uuid": "cf1e5815-c9bb-4917-82a5-391848170b7e",
      "name": "Farming (Pesticides)",
      "category": "processes"
    },
    {
      "type": "name_match",
      "text": "dermatitis",
      "confidence": 1.0,
      "uuid": "fe9c05f2-b19f-4ceb-ac7a-ffb7d7a0cae0",
      "name": "dermatitis",
      "url": "https://haz-map.com/Findings/59",
      "category": "findings"
    },
    {
      "type": "name_match",
      "text": "cataract",
      "confidence": 1.0,
      "uuid": "3e1b6957-4241-488a-8796-192306a93517",
      "name": "cataract",
      "url": "https://haz-map.com/Findings/131",
      "category": "findings"
    },
    {
      "type": "name_match",
      "text": "pentachlorophenol",
      "confidence": 1.0,
      "uuid": "932cef10-2ea1-446c-8acd-cf572d61731b",
      "name": "Pentachlorophenol",
      "url": "https://haz-map.com/Agents/36",
      "category": "agents"
    },
    {
      "type": "name_match",
      "text": "phenol",
      "confidence": 1.0,
      "uuid": "03141a03-a7df-4f51-9a37-adde1a7c4b31",
      "name": "Phenol",
      "url": "https://haz-map.com/Agents/84",
      "category": "agents"
    },
    {
      "type": "name_match",
      "text": "2,4-d",
      "confidence": 1.0,
      "uuid": "bed35f54-2d93-4ffd-a3ee-723ab365faf1",
      "name": "2,4-D",
      "url": "https://haz-map.com/Agents/389",
      "category": "agents"
    },
    {
      "type": "name_match",
      "text": "mica",
      "confidence": 1.0,
      "uuid": "433f26f1-c399-4596-b179-ce3843cfd465",
      "name": "Mica",
      "url": "https://haz-map.com/Agents/621",
      "category": "agents"
    },
    {
      "type": "name_match",
      "text": "dinitrophenol",
      "confidence": 1.0,
      "uuid": "6335b5e4-a456-4dd1-a0ca-6671d9371e92",
      "name": "Dinitrophenol",
      "url": "https://haz-map.com/Agents/683",
      "category": "agents"
    },
    {
      "type": "name_match",
      "text": "herbicides",
      "confidence": 1.0,
      "uuid": "195f29ae-3f15-47c5-836d-0a9791db3fc1",
      "name": "HERBICIDES",
      "url": "https://haz-map.com/Agents/703",
      "category": "agents"
    },
    {
      "type": "name_match",
      "text": "fungicides",
      "confidence": 1.0,
      "uuid": "f4a9c1e1-4d57-4480-be97-d3590d38ce39",
      "name": "FUNGICIDES",
      "url": "https://haz-map.com/Agents/763",
      "category": "agents"
    },
    {
      "type": "name_match",
      "text": "dinocap",
      "confidence": 1.0,
      "uuid": "6e462212-cb88-4d6f-ac31-50316cd1a159",
      "name": "Dinocap",
      "url": "https://haz-map.com/Agents/1176",
      "category": "agents"
    },
    {
      "type": "name_match",
      "text": "fungi",
      "confidence": 1.0,
      "uuid": "e0d489cb-bfee-4aee-b665-999c017268a2",
      "name": "Fungi",
      "url": "https://haz-map.com/Agents/1988",
      "category": "agents"
    },
    {
      "type": "name_match",
      "text": "crotonic acid",
      "confidence": 1.0,
      "uuid": "e74d2406-8ee5-4a5f-b0cc-3575bb476716",
      "name": "Crotonic acid",
      "url": "https://haz-map.com/Agents/4536",
      "category": "agents"
    }
  ],
  "all_links": [
    {
      "text": "EXTOXNET - Dinocap",
      "url": "http://ace.ace.orst.edu/info/extoxnet/pips/dinocap.htm"
    },
    {
      "text": "Search PubMed",
      "url": "https://www.ncbi.nlm.nih.gov/pubmed?term=Dinocap%20AND%20human%5Bmh%5D%20AND%20%28Occupational%20Diseases%20%5Bmh%5D%20OR%20Occupational%20Exposure%20%5Bmh%5D%29%20%20AND%20%28tox%5Bsb%5D%29&cmd=search"
    },
    {
      "text": "EPA Pesticide Chemical Search",
      "url": "https://iaspub.epa.gov/apex/pesticides/f?p=CHEMICALSEARCH:1:"
    },
    {
      "text": "Acute tubular necrosis",
      "url": "https://haz-map.com/Diseases/656"
    },
    {
      "text": "Cataract, chemical or radiation induced",
      "url": "https://haz-map.com/Diseases/308"
    },
    {
      "text": "Contact dermatitis, allergic",
      "url": "https://haz-map.com/Diseases/18"
    },
    {
      "text": "Pentachlorophenol/Dinitrophenol, acute poisoning",
      "url": "https://haz-map.com/Diseases/160"
    },
    {
      "text": "Farming (Pesticides)",
      "url": "https://haz-map.com/Processes/218"
    }
  ]
}