{
  "metadata": {
    "scraped_from": "https://haz-map.com/Agents/20442",
    "entity_name": "cis-1,2-Cyclohexanediol",
    "category": "agents",
    "uuid": "6edc793a-c269-4c53-b6ba-d154d2f5cc32",
    "scraped_at": "2025-07-23T22:25:21.667944"
  },
  "parsed_at": "2025-07-24T01:15:32.683617",
  "title": "cis-1,2-Cyclohexanediol",
  "sections": {
    "general": {
      "agent_name": {
        "original_name": "Agent Name",
        "value": "cis-1,2-Cyclohexanediol",
        "links": [],
        "cross_references": [
          {
            "type": "name_match",
            "text": "cyclohexane",
            "confidence": 1.0,
            "uuid": "366fabd7-ac2f-461c-969f-62dfe3bf2377",
            "name": "Cyclohexane",
            "url": "https://haz-map.com/Agents/384",
            "category": "agents"
          },
          {
            "type": "name_match",
            "text": "cis-1,2-cyclohexanediol",
            "confidence": 1.0,
            "uuid": "6edc793a-c269-4c53-b6ba-d154d2f5cc32",
            "name": "cis-1,2-Cyclohexanediol",
            "url": "https://haz-map.com/Agents/20442",
            "category": "agents"
          }
        ]
      },
      "cas_number": {
        "original_name": "CAS Number",
        "value": "1792-81-0",
        "links": [],
        "cross_references": []
      },
      "formula": {
        "original_name": "Formula",
        "value": "C6-H12-O2",
        "links": [],
        "cross_references": []
      },
      "major_category": {
        "original_name": "Major Category",
        "value": "Other Classes",
        "links": [],
        "cross_references": []
      },
      "synonyms": {
        "original_name": "Synonyms",
        "value": "cis-1,2-Dihydroxycyclohexane; Grandidentol; 1,2-Cyclohexanediol, cis- (8CI)(9CI); [ChemIDplus]",
        "links": [],
        "cross_references": [
          {
            "type": "name_match",
            "text": "cyclohexane",
            "confidence": 1.0,
            "uuid": "366fabd7-ac2f-461c-969f-62dfe3bf2377",
            "name": "Cyclohexane",
            "url": "https://haz-map.com/Agents/384",
            "category": "agents"
          },
          {
            "type": "fuzzy_match",
            "text": "2-cyclohexanediol",
            "matched_name": "cis-1,2-Cyclohexanediol",
            "confidence": 0.7758152173913043,
            "uuid": "6edc793a-c269-4c53-b6ba-d154d2f5cc32",
            "category": "agents",
            "url": "https://haz-map.com/Agents/20442"
          }
        ]
      },
      "category": {
        "original_name": "Category",
        "value": "Alcohols and Polyols, Other",
        "links": [],
        "cross_references": []
      },
      "description": {
        "original_name": "Description",
        "value": "White crystalline powder; [Acros Organics MSDS]",
        "links": [],
        "cross_references": [
          {
            "type": "fuzzy_match",
            "text": "crystalline",
            "matched_name": "Silica, crystalline",
            "confidence": 0.7061403508771931,
            "uuid": "f920e8a2-46df-41b7-af8d-0368a777251e",
            "category": "agents",
            "url": "https://haz-map.com/Agents/427"
          }
        ]
      },
      "comments": {
        "original_name": "Comments",
        "value": "May cause irritation; [Acros Organics MSDS] See \"Cyclohexanol.\"",
        "links": [],
        "cross_references": [
          {
            "type": "name_match",
            "text": "cyclohexanol",
            "confidence": 1.0,
            "uuid": "24ac6370-b064-46ca-bf9a-8fb5eada1573",
            "name": "Cyclohexanol",
            "url": "https://haz-map.com/Agents/772",
            "category": "agents"
          }
        ]
      },
      "biomedical_references": {
        "original_name": "Biomedical References",
        "value": "Search PubMed",
        "links": [
          {
            "text": "Search PubMed",
            "url": "https://www.ncbi.nlm.nih.gov/pubmed?term=cis-1%2c2-Cyclohexanediol%20AND%20human%5Bmh%5D%20AND%20%28Occupational%20Diseases%20%5Bmh%5D%20OR%20Occupational%20Exposure%20%5Bmh%5D%29%20%20AND%20%28tox%5Bsb%5D%29&cmd=search"
          }
        ],
        "cross_references": []
      }
    },
    "exposure_assessment": {
      "vapor_pressure": {
        "original_name": "Vapor Pressure",
        "value": "0.011 mm Hg",
        "links": [],
        "cross_references": []
      }
    },
    "diseases_processes_and_activities_linked_to_this_agent": {
      "other_information": {
        "original_name": "Other Information",
        "value": "No other related information on this agent was found.",
        "links": [],
        "cross_references": []
      }
    }
  },
  "cross_references": [
    {
      "type": "name_match",
      "text": "cyclohexane",
      "confidence": 1.0,
      "uuid": "366fabd7-ac2f-461c-969f-62dfe3bf2377",
      "name": "Cyclohexane",
      "url": "https://haz-map.com/Agents/384",
      "category": "agents"
    },
    {
      "type": "name_match",
      "text": "cyclohexanol",
      "confidence": 1.0,
      "uuid": "24ac6370-b064-46ca-bf9a-8fb5eada1573",
      "name": "Cyclohexanol",
      "url": "https://haz-map.com/Agents/772",
      "category": "agents"
    },
    {
      "type": "name_match",
      "text": "cis-1,2-cyclohexanediol",
      "confidence": 1.0,
      "uuid": "6edc793a-c269-4c53-b6ba-d154d2f5cc32",
      "name": "cis-1,2-Cyclohexanediol",
      "url": "https://haz-map.com/Agents/20442",
      "category": "agents"
    },
    {
      "type": "fuzzy_match",
      "text": "crystalline",
      "matched_name": "Silica, crystalline",
      "confidence": 0.7061403508771931,
      "uuid": "f920e8a2-46df-41b7-af8d-0368a777251e",
      "category": "agents",
      "url": "https://haz-map.com/Agents/427"
    }
  ],
  "all_links": [
    {
      "text": "Search PubMed",
      "url": "https://www.ncbi.nlm.nih.gov/pubmed?term=cis-1%2c2-Cyclohexanediol%20AND%20human%5Bmh%5D%20AND%20%28Occupational%20Diseases%20%5Bmh%5D%20OR%20Occupational%20Exposure%20%5Bmh%5D%29%20%20AND%20%28tox%5Bsb%5D%29&cmd=search"
    }
  ]
}