{
  "metadata": {
    "scraped_from": "https://haz-map.com/Agents/18668",
    "entity_name": "Water",
    "category": "agents",
    "uuid": "6f2a7557-dfd2-49bc-9b4b-a93cd8e225d4",
    "scraped_at": "2025-07-23T21:57:08.101141"
  },
  "parsed_at": "2025-07-24T00:50:57.535877",
  "title": "Water",
  "sections": {
    "general": {
      "agent_name": {
        "original_name": "Agent Name",
        "value": "Water",
        "links": [],
        "cross_references": [
          {
            "type": "name_match",
            "text": "water",
            "confidence": 1.0,
            "uuid": "6f2a7557-dfd2-49bc-9b4b-a93cd8e225d4",
            "name": "Water",
            "url": "https://haz-map.com/Agents/18668",
            "category": "agents"
          }
        ]
      },
      "cas_number": {
        "original_name": "CAS Number",
        "value": "7732-18-5",
        "links": [],
        "cross_references": []
      },
      "formula": {
        "original_name": "Formula",
        "value": "H2-O",
        "links": [],
        "cross_references": []
      },
      "major_category": {
        "original_name": "Major Category",
        "value": "Other Classes",
        "links": [],
        "cross_references": []
      },
      "synonyms": {
        "original_name": "Synonyms",
        "value": "Deionized water; Water, distilled, conductivity or of similar purity; Bacteriostatic water for injection; Bacteriostatic water for injection in plastic container; DHMO; Dihydrogen Monoxide; Dihydrogen oxide; Distilled water; H2O; Ice; Purified water; Sterile purified water; Sterile water; Sterile water for inhalation; Sterile water for injection; Sterile water for injection in plastic container; Sterile water for irrigation; Sterile water in plastic container; Water for hemodialysis; Water for inhalation, sterile; Water for injection; Water for injection, bacteriostatic; Water for injection, sterile; Water for irrigation, sterile; Water vapor; Water, deionized; Water, distilled; Water, mineral; Water, purified; Water, purified sterile; Water, sterile; Water, sterile purified; [ChemIDplus]",
        "links": [],
        "cross_references": [
          {
            "type": "name_match",
            "text": "hydrogen",
            "confidence": 1.0,
            "uuid": "e2d9645f-5559-4d88-b820-fc4710c154f2",
            "name": "Hydrogen",
            "url": "https://haz-map.com/Agents/1070",
            "category": "agents"
          },
          {
            "type": "name_match",
            "text": "water",
            "confidence": 1.0,
            "uuid": "6f2a7557-dfd2-49bc-9b4b-a93cd8e225d4",
            "name": "Water",
            "url": "https://haz-map.com/Agents/18668",
            "category": "agents"
          }
        ]
      },
      "category": {
        "original_name": "Category",
        "value": "Other Inorganic Compounds",
        "links": [],
        "cross_references": [
          {
            "type": "fuzzy_match",
            "text": "organic compounds",
            "matched_name": "Tin, organic compounds",
            "confidence": 0.8196969696969697,
            "uuid": "e027d413-8869-4308-9eb2-27d768b011ea",
            "category": "agents",
            "url": "https://haz-map.com/Agents/656"
          },
          {
            "type": "fuzzy_match",
            "text": "inorganic compounds",
            "matched_name": "Tin and inorganic compounds",
            "confidence": 0.8161375661375662,
            "uuid": "f9a072ab-0fbc-477a-88a2-1389e762d773",
            "category": "agents",
            "url": "https://haz-map.com/Agents/42"
          },
          {
            "type": "fuzzy_match",
            "text": "inorganic compounds",
            "matched_name": "Mercury, inorganic compounds",
            "confidence": 0.7455357142857143,
            "uuid": "4b03e512-ea73-428b-aa40-cfb4b29e3cd6",
            "category": "agents",
            "url": "https://haz-map.com/Agents/1954"
          }
        ]
      },
      "description": {
        "original_name": "Description",
        "value": "Clear colorless odorless liquid; [NTP]",
        "links": [],
        "cross_references": []
      },
      "sourcesuses": {
        "original_name": "Sources/Uses",
        "value": "The most universal solvent; [Merck Index] Used as a solvent, suspending agent, industrial coolant, diluent, moderator in nuclear reactors, nutrient, power source, hydration of lime, paper coatings, textile processing, debarking logs, filtration, washing and scouring, sulfur mining, hydrolysis, Portland cement, hydraulic systems, steam generation, and in foods and beverages; [NTP] Permitted for use as an inert ingredient in non-food pesticide products; [EPA]",
        "links": [],
        "cross_references": [
          {
            "type": "name_match",
            "text": "mining",
            "confidence": 1.0,
            "uuid": "aaa4a4af-567a-4a01-83bc-ccad9fc73d04",
            "name": "Mining",
            "url": "https://haz-map.com/Processes/219",
            "category": "processes"
          },
          {
            "type": "name_match",
            "text": "portland cement",
            "confidence": 1.0,
            "uuid": "9735491b-a99b-40e5-b3e3-8bcf992da5fb",
            "name": "Portland cement",
            "url": "https://haz-map.com/Agents/605",
            "category": "agents"
          },
          {
            "type": "name_match",
            "text": "tea",
            "confidence": 1.0,
            "uuid": "773409e5-ac1a-4c9e-9470-9667ca82091c",
            "name": "Tea",
            "url": "https://haz-map.com/Agents/878",
            "category": "agents"
          },
          {
            "type": "name_match",
            "text": "ash",
            "confidence": 1.0,
            "uuid": "68b360f1-5ad0-4337-bea0-d7adca2961b5",
            "name": "Ash",
            "url": "https://haz-map.com/Agents/965",
            "category": "agents"
          },
          {
            "type": "name_match",
            "text": "sulfur",
            "confidence": 1.0,
            "uuid": "5aabdef6-71c8-44c8-b762-feaabff50696",
            "name": "Sulfur",
            "url": "https://haz-map.com/Agents/1942",
            "category": "agents"
          }
        ]
      },
      "biomedical_references": {
        "original_name": "Biomedical References",
        "value": "Search PubMed",
        "links": [
          {
            "text": "Search PubMed",
            "url": "https://www.ncbi.nlm.nih.gov/pubmed?term=Water%20AND%20human%5Bmh%5D%20AND%20%28Occupational%20Diseases%20%5Bmh%5D%20OR%20Occupational%20Exposure%20%5Bmh%5D%29%20%20AND%20%28tox%5Bsb%5D%29&cmd=search"
          }
        ],
        "cross_references": []
      }
    },
    "exposure_assessment": {
      "vapor_pressure": {
        "original_name": "Vapor Pressure",
        "value": "23.75 mm Hg",
        "links": [],
        "cross_references": []
      }
    },
    "diseases_processes_and_activities_linked_to_this_agent": {
      "processes": {
        "original_name": "Processes",
        "value": "Industrial Processes with risk of exposure: Cement Producing Dressing Hair Electroplating Firefighting Leather Tanning and Processing Metal Extraction and Refining Mining Painting (Solvents) Petroleum Production and Refining Photographic Processing Pulp and Paper Processing Sewer and Wastewater Treatment Steel Producing Textiles (Fiber & Fabric Manufacturing) Textiles (Printing, Dyeing, or Finishing)",
        "links": [
          {
            "text": "Cement Producing",
            "url": "https://haz-map.com/Processes/234"
          },
          {
            "text": "Dressing Hair",
            "url": "https://haz-map.com/Processes/258"
          },
          {
            "text": "Electroplating",
            "url": "https://haz-map.com/Processes/66"
          },
          {
            "text": "Firefighting",
            "url": "https://haz-map.com/Processes/221"
          },
          {
            "text": "Leather Tanning and Processing",
            "url": "https://haz-map.com/Processes/230"
          },
          {
            "text": "Metal Extraction and Refining",
            "url": "https://haz-map.com/Processes/261"
          },
          {
            "text": "Mining",
            "url": "https://haz-map.com/Processes/219"
          },
          {
            "text": "Painting (Solvents)",
            "url": "https://haz-map.com/Processes/142"
          },
          {
            "text": "Petroleum Production and Refining",
            "url": "https://haz-map.com/Processes/75"
          },
          {
            "text": "Photographic Processing",
            "url": "https://haz-map.com/Processes/231"
          },
          {
            "text": "Pulp and Paper Processing",
            "url": "https://haz-map.com/Processes/132"
          },
          {
            "text": "Sewer and Wastewater Treatment",
            "url": "https://haz-map.com/Processes/220"
          },
          {
            "text": "Steel Producing",
            "url": "https://haz-map.com/Processes/2"
          },
          {
            "text": "Textiles (Fiber & Fabric Manufacturing)",
            "url": "https://haz-map.com/Processes/135"
          },
          {
            "text": "Textiles (Printing, Dyeing, or Finishing)",
            "url": "https://haz-map.com/Processes/235"
          }
        ],
        "cross_references": [
          {
            "type": "url_match",
            "text": "Electroplating",
            "url": "https://haz-map.com/Processes/66",
            "confidence": 1.0,
            "uuid": "ae1bd2c1-37de-4b26-82b6-47ee206af837",
            "name": "Electroplating",
            "category": "processes"
          },
          {
            "type": "url_match",
            "text": "Firefighting",
            "url": "https://haz-map.com/Processes/221",
            "confidence": 1.0,
            "uuid": "ec437a34-bce2-4c86-9170-b273a9b27af5",
            "name": "Firefighting",
            "category": "processes"
          },
          {
            "type": "url_match",
            "text": "Mining",
            "url": "https://haz-map.com/Processes/219",
            "confidence": 1.0,
            "uuid": "aaa4a4af-567a-4a01-83bc-ccad9fc73d04",
            "name": "Mining",
            "category": "processes"
          },
          {
            "type": "url_match",
            "text": "Painting (Solvents)",
            "url": "https://haz-map.com/Processes/142",
            "confidence": 1.0,
            "uuid": "ca747481-4da1-4550-a546-f0d43a41b46c",
            "name": "Painting (Solvents)",
            "category": "processes"
          },
          {
            "type": "url_match",
            "text": "Petroleum Production and Refining",
            "url": "https://haz-map.com/Processes/75",
            "confidence": 1.0,
            "uuid": "e2003948-ad28-44a5-85f6-2e3391da8917",
            "name": "Petroleum Production and Refining",
            "category": "processes"
          },
          {
            "type": "url_match",
            "text": "Pulp and Paper Processing",
            "url": "https://haz-map.com/Processes/132",
            "confidence": 1.0,
            "uuid": "30075079-d057-47e2-a7d8-e89bfc59d8df",
            "name": "Pulp and Paper Processing",
            "category": "processes"
          },
          {
            "type": "url_match",
            "text": "Sewer and Wastewater Treatment",
            "url": "https://haz-map.com/Processes/220",
            "confidence": 1.0,
            "uuid": "5fcac3ca-db2e-47cc-8175-126a1f3b1e1a",
            "name": "Sewer and Wastewater Treatment",
            "category": "processes"
          },
          {
            "type": "url_match",
            "text": "Steel Producing",
            "url": "https://haz-map.com/Processes/2",
            "confidence": 1.0,
            "uuid": "cb2ee08e-9765-41ce-a40f-b8d87704c7b5",
            "name": "Steel Producing",
            "category": "processes"
          },
          {
            "type": "url_match",
            "text": "Textiles (Fiber & Fabric Manufacturing)",
            "url": "https://haz-map.com/Processes/135",
            "confidence": 1.0,
            "uuid": "43ebdcdb-bb09-4402-87b6-ae8cf169dddd",
            "name": "Textiles (Fiber & Fabric Manufacturing)",
            "category": "processes"
          },
          {
            "type": "name_match",
            "text": "painting",
            "confidence": 1.0,
            "uuid": "19816ce9-9edf-4a86-8e64-b0cbf7dcf520",
            "name": "Painting",
            "url": "https://haz-map.com/Activities/9",
            "category": "activities"
          },
          {
            "type": "name_match",
            "text": "ht",
            "confidence": 1.0,
            "uuid": "764df367-8d53-4a11-81a2-31ccfe122a8d",
            "name": "HT",
            "url": "https://haz-map.com/Agents/2168",
            "category": "agents"
          },
          {
            "type": "name_match",
            "text": "oleum",
            "confidence": 1.0,
            "uuid": "12af84ee-bcf0-416d-9220-7c4c6dc330f1",
            "name": "Oleum",
            "url": "https://haz-map.com/Agents/2227",
            "category": "agents"
          },
          {
            "type": "name_match",
            "text": "water",
            "confidence": 1.0,
            "uuid": "6f2a7557-dfd2-49bc-9b4b-a93cd8e225d4",
            "name": "Water",
            "url": "https://haz-map.com/Agents/18668",
            "category": "agents"
          }
        ]
      }
    }
  },
  "cross_references": [
    {
      "type": "url_match",
      "text": "Electroplating",
      "url": "https://haz-map.com/Processes/66",
      "confidence": 1.0,
      "uuid": "ae1bd2c1-37de-4b26-82b6-47ee206af837",
      "name": "Electroplating",
      "category": "processes"
    },
    {
      "type": "url_match",
      "text": "Firefighting",
      "url": "https://haz-map.com/Processes/221",
      "confidence": 1.0,
      "uuid": "ec437a34-bce2-4c86-9170-b273a9b27af5",
      "name": "Firefighting",
      "category": "processes"
    },
    {
      "type": "url_match",
      "text": "Mining",
      "url": "https://haz-map.com/Processes/219",
      "confidence": 1.0,
      "uuid": "aaa4a4af-567a-4a01-83bc-ccad9fc73d04",
      "name": "Mining",
      "category": "processes"
    },
    {
      "type": "url_match",
      "text": "Painting (Solvents)",
      "url": "https://haz-map.com/Processes/142",
      "confidence": 1.0,
      "uuid": "ca747481-4da1-4550-a546-f0d43a41b46c",
      "name": "Painting (Solvents)",
      "category": "processes"
    },
    {
      "type": "url_match",
      "text": "Petroleum Production and Refining",
      "url": "https://haz-map.com/Processes/75",
      "confidence": 1.0,
      "uuid": "e2003948-ad28-44a5-85f6-2e3391da8917",
      "name": "Petroleum Production and Refining",
      "category": "processes"
    },
    {
      "type": "url_match",
      "text": "Pulp and Paper Processing",
      "url": "https://haz-map.com/Processes/132",
      "confidence": 1.0,
      "uuid": "30075079-d057-47e2-a7d8-e89bfc59d8df",
      "name": "Pulp and Paper Processing",
      "category": "processes"
    },
    {
      "type": "url_match",
      "text": "Sewer and Wastewater Treatment",
      "url": "https://haz-map.com/Processes/220",
      "confidence": 1.0,
      "uuid": "5fcac3ca-db2e-47cc-8175-126a1f3b1e1a",
      "name": "Sewer and Wastewater Treatment",
      "category": "processes"
    },
    {
      "type": "url_match",
      "text": "Steel Producing",
      "url": "https://haz-map.com/Processes/2",
      "confidence": 1.0,
      "uuid": "cb2ee08e-9765-41ce-a40f-b8d87704c7b5",
      "name": "Steel Producing",
      "category": "processes"
    },
    {
      "type": "url_match",
      "text": "Textiles (Fiber & Fabric Manufacturing)",
      "url": "https://haz-map.com/Processes/135",
      "confidence": 1.0,
      "uuid": "43ebdcdb-bb09-4402-87b6-ae8cf169dddd",
      "name": "Textiles (Fiber & Fabric Manufacturing)",
      "category": "processes"
    },
    {
      "type": "name_match",
      "text": "painting",
      "confidence": 1.0,
      "uuid": "19816ce9-9edf-4a86-8e64-b0cbf7dcf520",
      "name": "Painting",
      "url": "https://haz-map.com/Activities/9",
      "category": "activities"
    },
    {
      "type": "name_match",
      "text": "portland cement",
      "confidence": 1.0,
      "uuid": "9735491b-a99b-40e5-b3e3-8bcf992da5fb",
      "name": "Portland cement",
      "url": "https://haz-map.com/Agents/605",
      "category": "agents"
    },
    {
      "type": "name_match",
      "text": "tea",
      "confidence": 1.0,
      "uuid": "773409e5-ac1a-4c9e-9470-9667ca82091c",
      "name": "Tea",
      "url": "https://haz-map.com/Agents/878",
      "category": "agents"
    },
    {
      "type": "name_match",
      "text": "ash",
      "confidence": 1.0,
      "uuid": "68b360f1-5ad0-4337-bea0-d7adca2961b5",
      "name": "Ash",
      "url": "https://haz-map.com/Agents/965",
      "category": "agents"
    },
    {
      "type": "name_match",
      "text": "hydrogen",
      "confidence": 1.0,
      "uuid": "e2d9645f-5559-4d88-b820-fc4710c154f2",
      "name": "Hydrogen",
      "url": "https://haz-map.com/Agents/1070",
      "category": "agents"
    },
    {
      "type": "name_match",
      "text": "sulfur",
      "confidence": 1.0,
      "uuid": "5aabdef6-71c8-44c8-b762-feaabff50696",
      "name": "Sulfur",
      "url": "https://haz-map.com/Agents/1942",
      "category": "agents"
    },
    {
      "type": "name_match",
      "text": "ht",
      "confidence": 1.0,
      "uuid": "764df367-8d53-4a11-81a2-31ccfe122a8d",
      "name": "HT",
      "url": "https://haz-map.com/Agents/2168",
      "category": "agents"
    },
    {
      "type": "name_match",
      "text": "oleum",
      "confidence": 1.0,
      "uuid": "12af84ee-bcf0-416d-9220-7c4c6dc330f1",
      "name": "Oleum",
      "url": "https://haz-map.com/Agents/2227",
      "category": "agents"
    },
    {
      "type": "name_match",
      "text": "water",
      "confidence": 1.0,
      "uuid": "6f2a7557-dfd2-49bc-9b4b-a93cd8e225d4",
      "name": "Water",
      "url": "https://haz-map.com/Agents/18668",
      "category": "agents"
    },
    {
      "type": "fuzzy_match",
      "text": "organic compounds",
      "matched_name": "Tin, organic compounds",
      "confidence": 0.8196969696969697,
      "uuid": "e027d413-8869-4308-9eb2-27d768b011ea",
      "category": "agents",
      "url": "https://haz-map.com/Agents/656"
    },
    {
      "type": "fuzzy_match",
      "text": "inorganic compounds",
      "matched_name": "Tin and inorganic compounds",
      "confidence": 0.8161375661375662,
      "uuid": "f9a072ab-0fbc-477a-88a2-1389e762d773",
      "category": "agents",
      "url": "https://haz-map.com/Agents/42"
    },
    {
      "type": "fuzzy_match",
      "text": "inorganic compounds",
      "matched_name": "Mercury, inorganic compounds",
      "confidence": 0.7455357142857143,
      "uuid": "4b03e512-ea73-428b-aa40-cfb4b29e3cd6",
      "category": "agents",
      "url": "https://haz-map.com/Agents/1954"
    }
  ],
  "all_links": [
    {
      "text": "Search PubMed",
      "url": "https://www.ncbi.nlm.nih.gov/pubmed?term=Water%20AND%20human%5Bmh%5D%20AND%20%28Occupational%20Diseases%20%5Bmh%5D%20OR%20Occupational%20Exposure%20%5Bmh%5D%29%20%20AND%20%28tox%5Bsb%5D%29&cmd=search"
    },
    {
      "text": "Cement Producing",
      "url": "https://haz-map.com/Processes/234"
    },
    {
      "text": "Dressing Hair",
      "url": "https://haz-map.com/Processes/258"
    },
    {
      "text": "Electroplating",
      "url": "https://haz-map.com/Processes/66"
    },
    {
      "text": "Firefighting",
      "url": "https://haz-map.com/Processes/221"
    },
    {
      "text": "Leather Tanning and Processing",
      "url": "https://haz-map.com/Processes/230"
    },
    {
      "text": "Metal Extraction and Refining",
      "url": "https://haz-map.com/Processes/261"
    },
    {
      "text": "Mining",
      "url": "https://haz-map.com/Processes/219"
    },
    {
      "text": "Painting (Solvents)",
      "url": "https://haz-map.com/Processes/142"
    },
    {
      "text": "Petroleum Production and Refining",
      "url": "https://haz-map.com/Processes/75"
    },
    {
      "text": "Photographic Processing",
      "url": "https://haz-map.com/Processes/231"
    },
    {
      "text": "Pulp and Paper Processing",
      "url": "https://haz-map.com/Processes/132"
    },
    {
      "text": "Sewer and Wastewater Treatment",
      "url": "https://haz-map.com/Processes/220"
    },
    {
      "text": "Steel Producing",
      "url": "https://haz-map.com/Processes/2"
    },
    {
      "text": "Textiles (Fiber & Fabric Manufacturing)",
      "url": "https://haz-map.com/Processes/135"
    },
    {
      "text": "Textiles (Printing, Dyeing, or Finishing)",
      "url": "https://haz-map.com/Processes/235"
    }
  ]
}