{
  "metadata": {
    "scraped_from": "https://haz-map.com/Agents/16321",
    "entity_name": "Oxirane, 2,2'-((1-methylethylidene)bis(4,1-phenyleneoxymethylene))bis-, homopolymer",
    "category": "agents",
    "uuid": "6f63411b-1202-4007-9860-ed130102ab56",
    "scraped_at": "2025-07-23T21:36:29.319710"
  },
  "parsed_at": "2025-07-24T01:11:29.360736",
  "title": "Oxirane, 2,2'-((1-methylethylidene)bis(4,1-phenyleneoxymethylene))bis-, homopolymer",
  "sections": {
    "general": {
      "agent_name": {
        "original_name": "Agent Name",
        "value": "Oxirane, 2,2'-((1-methylethylidene)bis(4,1-phenyleneoxymethylene))bis-, homopolymer",
        "links": [],
        "cross_references": [
          {
            "type": "name_match",
            "text": "ethylene",
            "confidence": 1.0,
            "uuid": "958eacc0-5135-4b62-bb93-6df972bf552f",
            "name": "Ethylene",
            "url": "https://haz-map.com/Agents/1076",
            "category": "agents"
          },
          {
            "type": "name_match",
            "text": "oxirane, 2,2'-((1-methylethylidene)bis(4,1-phenyleneoxymethylene))bis-, homopolymer",
            "confidence": 1.0,
            "uuid": "6f63411b-1202-4007-9860-ed130102ab56",
            "name": "Oxirane, 2,2'-((1-methylethylidene)bis(4,1-phenyleneoxymethylene))bis-, homopolymer",
            "url": "https://haz-map.com/Agents/16321",
            "category": "agents"
          }
        ]
      },
      "cas_number": {
        "original_name": "CAS Number",
        "value": "25085-99-8",
        "links": [],
        "cross_references": []
      },
      "formula": {
        "original_name": "Formula",
        "value": "(C21-H24-O4)x-",
        "links": [],
        "cross_references": []
      },
      "major_category": {
        "original_name": "Major Category",
        "value": "Plastics & Rubber",
        "links": [],
        "cross_references": []
      },
      "synonyms": {
        "original_name": "Synonyms",
        "value": "Araldite B; [ChemIDplus] D.E.R. 331 EPOXY RESIN; Propane, 2,2-bis[p-(2,3-epoxypropoxy)phenyl]-, polymers; [Dow Chemical MSDS]",
        "links": [],
        "cross_references": [
          {
            "type": "name_match",
            "text": "propane",
            "confidence": 1.0,
            "uuid": "563a611b-46ea-4bdc-b77b-17d8f7646283",
            "name": "Propane",
            "url": "https://haz-map.com/Agents/607",
            "category": "agents"
          },
          {
            "type": "name_match",
            "text": "mica",
            "confidence": 1.0,
            "uuid": "433f26f1-c399-4596-b179-ce3843cfd465",
            "name": "Mica",
            "url": "https://haz-map.com/Agents/621",
            "category": "agents"
          }
        ]
      },
      "category": {
        "original_name": "Category",
        "value": "Glycidyl Ethers",
        "links": [],
        "cross_references": [
          {
            "type": "name_match",
            "text": "glycidyl ethers",
            "confidence": 1.0,
            "uuid": "98e1a57e-699e-42d4-9ba1-63424bb1f3ce",
            "name": "GLYCIDYL ETHERS",
            "url": "https://haz-map.com/Agents/705",
            "category": "agents"
          }
        ]
      },
      "description": {
        "original_name": "Description",
        "value": "Yellow viscous liquid with mild to no odor; [Dow Chemical MSDS]",
        "links": [],
        "cross_references": [
          {
            "type": "name_match",
            "text": "mica",
            "confidence": 1.0,
            "uuid": "433f26f1-c399-4596-b179-ce3843cfd465",
            "name": "Mica",
            "url": "https://haz-map.com/Agents/621",
            "category": "agents"
          }
        ]
      },
      "sourcesuses": {
        "original_name": "Sources/Uses",
        "value": "\"Polymer used in hip prosthesis.\" [ChemIDplus] Permitted for use as an inert ingredient in non-food pesticide products; [EPA]",
        "links": [],
        "cross_references": []
      },
      "comments": {
        "original_name": "Comments",
        "value": "May cause irritation and skin sensitization; [Dow Chemical MSDS] See \"p-Cresyl glycidyl ether.\"",
        "links": [],
        "cross_references": [
          {
            "type": "name_match",
            "text": "mica",
            "confidence": 1.0,
            "uuid": "433f26f1-c399-4596-b179-ce3843cfd465",
            "name": "Mica",
            "url": "https://haz-map.com/Agents/621",
            "category": "agents"
          },
          {
            "type": "name_match",
            "text": "p-cresyl glycidyl ether",
            "confidence": 1.0,
            "uuid": "bf179079-0f47-4756-81e7-b5de34f0c96a",
            "name": "p-Cresyl glycidyl ether",
            "url": "https://haz-map.com/Agents/8393",
            "category": "agents"
          }
        ]
      },
      "biomedical_references": {
        "original_name": "Biomedical References",
        "value": "Search PubMed",
        "links": [
          {
            "text": "Search PubMed",
            "url": "https://www.ncbi.nlm.nih.gov/pubmed?term=Oxirane%2c+2%2c2%26%2339%3b-((1-methylethylidene)bis(4%2c1-phenyleneoxymethylene))bis-%2c+homopolymer%20AND%20human%5Bmh%5D%20AND%20%28Occupational%20Diseases%20%5Bmh%5D%20OR%20Occupational%20Exposure%20%5Bmh%5D%29%20%20AND%20%28tox%5Bsb%5D%29&cmd=search"
          }
        ],
        "cross_references": []
      }
    },
    "exposure_assessment": {
      "vapor_pressure": {
        "original_name": "Vapor Pressure",
        "value": "3.45E-10 mm Hg",
        "links": [],
        "cross_references": []
      }
    },
    "adverse_effects": {
      "skin_sensitizer": {
        "original_name": "Skin Sensitizer",
        "value": "Yes",
        "links": [],
        "cross_references": []
      }
    },
    "diseases_processes_and_activities_linked_to_this_agent": {
      "diseases": {
        "original_name": "Diseases",
        "value": "Occupational diseases associated with exposure to this agent: Contact dermatitis, allergic",
        "links": [
          {
            "text": "Contact dermatitis, allergic",
            "url": "https://haz-map.com/Diseases/18"
          }
        ],
        "cross_references": [
          {
            "type": "url_match",
            "text": "Contact dermatitis, allergic",
            "url": "https://haz-map.com/Diseases/18",
            "confidence": 1.0,
            "uuid": "c9499de0-9aa1-41bf-8753-cd5b28a63e29",
            "name": "Contact dermatitis, allergic",
            "category": "diseases"
          },
          {
            "type": "name_match",
            "text": "dermatitis",
            "confidence": 1.0,
            "uuid": "fe9c05f2-b19f-4ceb-ac7a-ffb7d7a0cae0",
            "name": "dermatitis",
            "url": "https://haz-map.com/Findings/59",
            "category": "findings"
          }
        ]
      }
    }
  },
  "cross_references": [
    {
      "type": "url_match",
      "text": "Contact dermatitis, allergic",
      "url": "https://haz-map.com/Diseases/18",
      "confidence": 1.0,
      "uuid": "c9499de0-9aa1-41bf-8753-cd5b28a63e29",
      "name": "Contact dermatitis, allergic",
      "category": "diseases"
    },
    {
      "type": "name_match",
      "text": "dermatitis",
      "confidence": 1.0,
      "uuid": "fe9c05f2-b19f-4ceb-ac7a-ffb7d7a0cae0",
      "name": "dermatitis",
      "url": "https://haz-map.com/Findings/59",
      "category": "findings"
    },
    {
      "type": "name_match",
      "text": "propane",
      "confidence": 1.0,
      "uuid": "563a611b-46ea-4bdc-b77b-17d8f7646283",
      "name": "Propane",
      "url": "https://haz-map.com/Agents/607",
      "category": "agents"
    },
    {
      "type": "name_match",
      "text": "mica",
      "confidence": 1.0,
      "uuid": "433f26f1-c399-4596-b179-ce3843cfd465",
      "name": "Mica",
      "url": "https://haz-map.com/Agents/621",
      "category": "agents"
    },
    {
      "type": "name_match",
      "text": "glycidyl ethers",
      "confidence": 1.0,
      "uuid": "98e1a57e-699e-42d4-9ba1-63424bb1f3ce",
      "name": "GLYCIDYL ETHERS",
      "url": "https://haz-map.com/Agents/705",
      "category": "agents"
    },
    {
      "type": "name_match",
      "text": "ethylene",
      "confidence": 1.0,
      "uuid": "958eacc0-5135-4b62-bb93-6df972bf552f",
      "name": "Ethylene",
      "url": "https://haz-map.com/Agents/1076",
      "category": "agents"
    },
    {
      "type": "name_match",
      "text": "p-cresyl glycidyl ether",
      "confidence": 1.0,
      "uuid": "bf179079-0f47-4756-81e7-b5de34f0c96a",
      "name": "p-Cresyl glycidyl ether",
      "url": "https://haz-map.com/Agents/8393",
      "category": "agents"
    },
    {
      "type": "name_match",
      "text": "oxirane, 2,2'-((1-methylethylidene)bis(4,1-phenyleneoxymethylene))bis-, homopolymer",
      "confidence": 1.0,
      "uuid": "6f63411b-1202-4007-9860-ed130102ab56",
      "name": "Oxirane, 2,2'-((1-methylethylidene)bis(4,1-phenyleneoxymethylene))bis-, homopolymer",
      "url": "https://haz-map.com/Agents/16321",
      "category": "agents"
    }
  ],
  "all_links": [
    {
      "text": "Search PubMed",
      "url": "https://www.ncbi.nlm.nih.gov/pubmed?term=Oxirane%2c+2%2c2%26%2339%3b-((1-methylethylidene)bis(4%2c1-phenyleneoxymethylene))bis-%2c+homopolymer%20AND%20human%5Bmh%5D%20AND%20%28Occupational%20Diseases%20%5Bmh%5D%20OR%20Occupational%20Exposure%20%5Bmh%5D%29%20%20AND%20%28tox%5Bsb%5D%29&cmd=search"
    },
    {
      "text": "Contact dermatitis, allergic",
      "url": "https://haz-map.com/Diseases/18"
    }
  ]
}