{
  "metadata": {
    "scraped_from": "https://haz-map.com/Agents/7723",
    "entity_name": "Vernolate",
    "category": "agents",
    "uuid": "70c76830-da07-43e7-a22f-910d562ebbb2",
    "scraped_at": "2025-07-23T20:16:05.457166"
  },
  "parsed_at": "2025-07-24T01:05:36.055023",
  "title": "Vernolate",
  "sections": {
    "general": {
      "agent_name": {
        "original_name": "Agent Name",
        "value": "Vernolate",
        "links": [],
        "cross_references": [
          {
            "type": "name_match",
            "text": "vernolate",
            "confidence": 1.0,
            "uuid": "70c76830-da07-43e7-a22f-910d562ebbb2",
            "name": "Vernolate",
            "url": "https://haz-map.com/Agents/7723",
            "category": "agents"
          }
        ]
      },
      "cas_number": {
        "original_name": "CAS Number",
        "value": "1929-77-7",
        "links": [],
        "cross_references": []
      },
      "formula": {
        "original_name": "Formula",
        "value": "C10-H21-N-O-S",
        "links": [],
        "cross_references": []
      },
      "major_category": {
        "original_name": "Major Category",
        "value": "Pesticides",
        "links": [],
        "cross_references": []
      },
      "synonyms": {
        "original_name": "Synonyms",
        "value": "Dipropylcarbamothioic acid S-propyl ester; Dipropylthiocarbamic acid S-propyl ester; PPTC; Perbulate; Propyl N,N-dipropylthiolcarbamate; Propyl dipropylthiolcarbamate; Propyl-N,N-dipropylthiolcarbamate; R-1607; S-Propyl dipropylcarbamothioate; S-Propyl dipropylthiocarbamate; S-Propyl-N,N-dipropylthiocarbamate; Surpass; Surpass E; Vanalate; Vernam; Vernam 10G; Vernam 7E; Vernam E Vernam G Surpass E; Vernam G; n-Propyl-di-n-propylthiolcarbamate; n-Propyldi-n-propylthiocarbamate; Carbamic acid, dipropylthio-, S-propyl ester; Carbamothioic acid, dipropyl-, S-propyl ester; [ChemIDplus]",
        "links": [],
        "cross_references": [
          {
            "type": "name_match",
            "text": "moth",
            "confidence": 1.0,
            "uuid": "14a33a40-8ea5-4ef5-b71a-3731a9d4ba32",
            "name": "Moth",
            "url": "https://haz-map.com/Agents/907",
            "category": "agents"
          }
        ]
      },
      "category": {
        "original_name": "Category",
        "value": "Herbicides, Thiocarbamate",
        "links": [],
        "cross_references": [
          {
            "type": "name_match",
            "text": "herbicides",
            "confidence": 1.0,
            "uuid": "195f29ae-3f15-47c5-836d-0a9791db3fc1",
            "name": "HERBICIDES",
            "url": "https://haz-map.com/Agents/703",
            "category": "agents"
          }
        ]
      },
      "description": {
        "original_name": "Description",
        "value": "Clear liquid with a sweet mild odor of garlic; Technical product is clear yellow liquid; [HSDB] Clear liquid; [MSDSonline]",
        "links": [],
        "cross_references": [
          {
            "type": "name_match",
            "text": "garlic",
            "confidence": 1.0,
            "uuid": "b7d2adf7-e077-462e-ad96-e04fd354df5f",
            "name": "Garlic",
            "url": "https://haz-map.com/Agents/892",
            "category": "agents"
          }
        ]
      },
      "sourcesuses": {
        "original_name": "Sources/Uses",
        "value": "Used as selective soil incorporated herbicide; Not currently registered with the EPA for use in the US; [HSDB]",
        "links": [],
        "cross_references": []
      },
      "comments": {
        "original_name": "Comments",
        "value": "An eye irritant; [HSDB]",
        "links": [],
        "cross_references": []
      },
      "reference_link_1": {
        "original_name": "Reference Link #1",
        "value": "INCHEM: Thiocarbamate pesticides: a general introduction (EHC 76 - 1988)",
        "links": [
          {
            "text": "INCHEM: Thiocarbamate pesticides: a general introduction (EHC 76 - 1988)",
            "url": "http://www.inchem.org/documents/ehc/ehc/ehc76.htm"
          }
        ],
        "cross_references": []
      },
      "biomedical_references": {
        "original_name": "Biomedical References",
        "value": "Search PubMed",
        "links": [
          {
            "text": "Search PubMed",
            "url": "https://www.ncbi.nlm.nih.gov/pubmed?term=Vernolate%20AND%20human%5Bmh%5D%20AND%20%28Occupational%20Diseases%20%5Bmh%5D%20OR%20Occupational%20Exposure%20%5Bmh%5D%29%20%20AND%20%28tox%5Bsb%5D%29&cmd=search"
          }
        ],
        "cross_references": []
      }
    },
    "exposure_assessment": {
      "vapor_pressure": {
        "original_name": "Vapor Pressure",
        "value": "0.0104 mm Hg",
        "links": [],
        "cross_references": []
      },
      "lethal_concentration": {
        "original_name": "Lethal Concentration",
        "value": "LC (rat) > 1,102 mg/m3",
        "links": [],
        "cross_references": []
      },
      "reference_link_2": {
        "original_name": "Reference Link #2",
        "value": "EPA Pesticide Chemical Search",
        "links": [
          {
            "text": "EPA Pesticide Chemical Search",
            "url": "https://iaspub.epa.gov/apex/pesticides/f?p=CHEMICALSEARCH:1:"
          }
        ],
        "cross_references": [
          {
            "type": "name_match",
            "text": "mica",
            "confidence": 1.0,
            "uuid": "433f26f1-c399-4596-b179-ce3843cfd465",
            "name": "Mica",
            "url": "https://haz-map.com/Agents/621",
            "category": "agents"
          }
        ]
      }
    },
    "diseases_processes_and_activities_linked_to_this_agent": {
      "processes": {
        "original_name": "Processes",
        "value": "Industrial Processes with risk of exposure: Farming (Pesticides)",
        "links": [
          {
            "text": "Farming (Pesticides)",
            "url": "https://haz-map.com/Processes/218"
          }
        ],
        "cross_references": [
          {
            "type": "url_match",
            "text": "Farming (Pesticides)",
            "url": "https://haz-map.com/Processes/218",
            "confidence": 1.0,
            "uuid": "cf1e5815-c9bb-4917-82a5-391848170b7e",
            "name": "Farming (Pesticides)",
            "category": "processes"
          }
        ]
      }
    }
  },
  "cross_references": [
    {
      "type": "url_match",
      "text": "Farming (Pesticides)",
      "url": "https://haz-map.com/Processes/218",
      "confidence": 1.0,
      "uuid": "cf1e5815-c9bb-4917-82a5-391848170b7e",
      "name": "Farming (Pesticides)",
      "category": "processes"
    },
    {
      "type": "name_match",
      "text": "mica",
      "confidence": 1.0,
      "uuid": "433f26f1-c399-4596-b179-ce3843cfd465",
      "name": "Mica",
      "url": "https://haz-map.com/Agents/621",
      "category": "agents"
    },
    {
      "type": "name_match",
      "text": "herbicides",
      "confidence": 1.0,
      "uuid": "195f29ae-3f15-47c5-836d-0a9791db3fc1",
      "name": "HERBICIDES",
      "url": "https://haz-map.com/Agents/703",
      "category": "agents"
    },
    {
      "type": "name_match",
      "text": "garlic",
      "confidence": 1.0,
      "uuid": "b7d2adf7-e077-462e-ad96-e04fd354df5f",
      "name": "Garlic",
      "url": "https://haz-map.com/Agents/892",
      "category": "agents"
    },
    {
      "type": "name_match",
      "text": "moth",
      "confidence": 1.0,
      "uuid": "14a33a40-8ea5-4ef5-b71a-3731a9d4ba32",
      "name": "Moth",
      "url": "https://haz-map.com/Agents/907",
      "category": "agents"
    },
    {
      "type": "name_match",
      "text": "vernolate",
      "confidence": 1.0,
      "uuid": "70c76830-da07-43e7-a22f-910d562ebbb2",
      "name": "Vernolate",
      "url": "https://haz-map.com/Agents/7723",
      "category": "agents"
    }
  ],
  "all_links": [
    {
      "text": "INCHEM: Thiocarbamate pesticides: a general introduction (EHC 76 - 1988)",
      "url": "http://www.inchem.org/documents/ehc/ehc/ehc76.htm"
    },
    {
      "text": "Search PubMed",
      "url": "https://www.ncbi.nlm.nih.gov/pubmed?term=Vernolate%20AND%20human%5Bmh%5D%20AND%20%28Occupational%20Diseases%20%5Bmh%5D%20OR%20Occupational%20Exposure%20%5Bmh%5D%29%20%20AND%20%28tox%5Bsb%5D%29&cmd=search"
    },
    {
      "text": "EPA Pesticide Chemical Search",
      "url": "https://iaspub.epa.gov/apex/pesticides/f?p=CHEMICALSEARCH:1:"
    },
    {
      "text": "Farming (Pesticides)",
      "url": "https://haz-map.com/Processes/218"
    }
  ]
}