{
  "metadata": {
    "scraped_from": "https://haz-map.com/Agents/1628",
    "entity_name": "Thiophosgene",
    "category": "agents",
    "uuid": "70e35090-f50d-4af6-ab8d-a1d692e2f614",
    "scraped_at": "2025-07-23T19:02:25.003513"
  },
  "parsed_at": "2025-07-24T01:18:21.863525",
  "title": "Thiophosgene",
  "sections": {
    "general": {
      "agent_name": {
        "original_name": "Agent Name",
        "value": "Thiophosgene",
        "links": [],
        "cross_references": [
          {
            "type": "name_match",
            "text": "phosgene",
            "confidence": 1.0,
            "uuid": "f33b7a5f-d74f-4496-9217-bb55c9b22e8c",
            "name": "Phosgene",
            "url": "https://haz-map.com/Agents/24",
            "category": "agents"
          },
          {
            "type": "name_match",
            "text": "thiophosgene",
            "confidence": 1.0,
            "uuid": "70e35090-f50d-4af6-ab8d-a1d692e2f614",
            "name": "Thiophosgene",
            "url": "https://haz-map.com/Agents/1628",
            "category": "agents"
          }
        ]
      },
      "cas_number": {
        "original_name": "CAS Number",
        "value": "463-71-8",
        "links": [],
        "cross_references": []
      },
      "formula": {
        "original_name": "Formula",
        "value": "C-Cl2-S",
        "links": [],
        "cross_references": []
      },
      "major_category": {
        "original_name": "Major Category",
        "value": "Toxic Gases & Vapors",
        "links": [],
        "cross_references": []
      },
      "synonyms": {
        "original_name": "Synonyms",
        "value": "Carbon chlorosulfide; Carbonic dichloride, thio-; Carbonothioic dichloride; Carbonyl chloride, thio-; Dichlorothiocarbonyl; Phosgene, thio-; Thiocarbonic dichloride; Thiocarbonyl chloride; Thiocarbonyl dichloride; Thiofosgen [Czech]; Thiokarbonylchlorid [Czech]; Carbonothioic dichloride; Thiocarbonyl chloride; UN2474; [ChemIDplus]",
        "links": [],
        "cross_references": [
          {
            "type": "name_match",
            "text": "phosgene",
            "confidence": 1.0,
            "uuid": "f33b7a5f-d74f-4496-9217-bb55c9b22e8c",
            "name": "Phosgene",
            "url": "https://haz-map.com/Agents/24",
            "category": "agents"
          },
          {
            "type": "name_match",
            "text": "carbon",
            "confidence": 1.0,
            "uuid": "b53f8815-ee80-40ef-b4aa-3b000e17dab5",
            "name": "Carbon",
            "url": "https://haz-map.com/Agents/1891",
            "category": "agents"
          }
        ]
      },
      "category": {
        "original_name": "Category",
        "value": "Other Toxic Gases & Vapors",
        "links": [],
        "cross_references": []
      },
      "description": {
        "original_name": "Description",
        "value": "Red to reddish-yellow liquid with a sharp choking odor; [HSDB]",
        "links": [],
        "cross_references": []
      },
      "sourcesuses": {
        "original_name": "Sources/Uses",
        "value": "No production in U.S. but available as a reagent in small ampules; [HSDB]",
        "links": [],
        "cross_references": []
      },
      "comments": {
        "original_name": "Comments",
        "value": "Thiophosgene hydrolyzes (more slowly than phosgene) into CO2, H2S, and HCl. A corrosive lachrymator; [HSDB] Can cause severe burns and delayed pulmonary edema; [CAMEO]",
        "links": [],
        "cross_references": [
          {
            "type": "name_match",
            "text": "pulmonary edema",
            "confidence": 1.0,
            "uuid": "ee39114e-c922-40fd-9588-a532de404962",
            "name": "pulmonary edema",
            "url": "https://haz-map.com/Findings/186",
            "category": "findings"
          },
          {
            "type": "name_match",
            "text": "burn",
            "confidence": 1.0,
            "uuid": "63665de5-6376-4918-8dbf-4c10c4d63837",
            "name": "burn",
            "url": "https://haz-map.com/Findings/204",
            "category": "findings"
          },
          {
            "type": "name_match",
            "text": "phosgene",
            "confidence": 1.0,
            "uuid": "f33b7a5f-d74f-4496-9217-bb55c9b22e8c",
            "name": "Phosgene",
            "url": "https://haz-map.com/Agents/24",
            "category": "agents"
          },
          {
            "type": "name_match",
            "text": "thiophosgene",
            "confidence": 1.0,
            "uuid": "70e35090-f50d-4af6-ab8d-a1d692e2f614",
            "name": "Thiophosgene",
            "url": "https://haz-map.com/Agents/1628",
            "category": "agents"
          }
        ]
      },
      "biomedical_references": {
        "original_name": "Biomedical References",
        "value": "Search PubMed",
        "links": [
          {
            "text": "Search PubMed",
            "url": "https://www.ncbi.nlm.nih.gov/pubmed?term=Thiophosgene%20AND%20human%5Bmh%5D%20AND%20%28Occupational%20Diseases%20%5Bmh%5D%20OR%20Occupational%20Exposure%20%5Bmh%5D%29%20%20AND%20%28tox%5Bsb%5D%29&cmd=search"
          }
        ],
        "cross_references": []
      }
    },
    "exposure_assessment": {
      "tih": {
        "original_name": "TIH",
        "value": "Yes",
        "links": [],
        "cross_references": []
      },
      "vapor_pressure": {
        "original_name": "Vapor Pressure",
        "value": "116 mm Hg",
        "links": [],
        "cross_references": []
      },
      "explanatory_notes": {
        "original_name": "Explanatory Notes",
        "value": "Boiling point = 163 deg F; [CAMEO] VP from ChemIDplus;",
        "links": [],
        "cross_references": []
      }
    },
    "adverse_effects": {
      "lachrymator": {
        "original_name": "Lachrymator",
        "value": "Yes",
        "links": [],
        "cross_references": []
      },
      "toxic_pneumonitis": {
        "original_name": "Toxic Pneumonitis",
        "value": "Yes",
        "links": [],
        "cross_references": []
      },
      "dermatotoxin": {
        "original_name": "Dermatotoxin",
        "value": "Skin burns",
        "links": [],
        "cross_references": [
          {
            "type": "name_match",
            "text": "burn",
            "confidence": 1.0,
            "uuid": "63665de5-6376-4918-8dbf-4c10c4d63837",
            "name": "burn",
            "url": "https://haz-map.com/Findings/204",
            "category": "findings"
          }
        ]
      }
    },
    "diseases_processes_and_activities_linked_to_this_agent": {
      "diseases": {
        "original_name": "Diseases",
        "value": "Occupational diseases associated with exposure to this agent: Pneumonitis, toxic",
        "links": [
          {
            "text": "Pneumonitis, toxic",
            "url": "https://haz-map.com/Diseases/306"
          }
        ],
        "cross_references": [
          {
            "type": "url_match",
            "text": "Pneumonitis, toxic",
            "url": "https://haz-map.com/Diseases/306",
            "confidence": 1.0,
            "uuid": "cd799281-0284-450d-bb82-ed6b675616ac",
            "name": "Pneumonitis, toxic",
            "category": "diseases"
          }
        ]
      }
    }
  },
  "cross_references": [
    {
      "type": "url_match",
      "text": "Pneumonitis, toxic",
      "url": "https://haz-map.com/Diseases/306",
      "confidence": 1.0,
      "uuid": "cd799281-0284-450d-bb82-ed6b675616ac",
      "name": "Pneumonitis, toxic",
      "category": "diseases"
    },
    {
      "type": "name_match",
      "text": "pulmonary edema",
      "confidence": 1.0,
      "uuid": "ee39114e-c922-40fd-9588-a532de404962",
      "name": "pulmonary edema",
      "url": "https://haz-map.com/Findings/186",
      "category": "findings"
    },
    {
      "type": "name_match",
      "text": "burn",
      "confidence": 1.0,
      "uuid": "63665de5-6376-4918-8dbf-4c10c4d63837",
      "name": "burn",
      "url": "https://haz-map.com/Findings/204",
      "category": "findings"
    },
    {
      "type": "name_match",
      "text": "phosgene",
      "confidence": 1.0,
      "uuid": "f33b7a5f-d74f-4496-9217-bb55c9b22e8c",
      "name": "Phosgene",
      "url": "https://haz-map.com/Agents/24",
      "category": "agents"
    },
    {
      "type": "name_match",
      "text": "thiophosgene",
      "confidence": 1.0,
      "uuid": "70e35090-f50d-4af6-ab8d-a1d692e2f614",
      "name": "Thiophosgene",
      "url": "https://haz-map.com/Agents/1628",
      "category": "agents"
    },
    {
      "type": "name_match",
      "text": "carbon",
      "confidence": 1.0,
      "uuid": "b53f8815-ee80-40ef-b4aa-3b000e17dab5",
      "name": "Carbon",
      "url": "https://haz-map.com/Agents/1891",
      "category": "agents"
    }
  ],
  "all_links": [
    {
      "text": "Search PubMed",
      "url": "https://www.ncbi.nlm.nih.gov/pubmed?term=Thiophosgene%20AND%20human%5Bmh%5D%20AND%20%28Occupational%20Diseases%20%5Bmh%5D%20OR%20Occupational%20Exposure%20%5Bmh%5D%29%20%20AND%20%28tox%5Bsb%5D%29&cmd=search"
    },
    {
      "text": "Pneumonitis, toxic",
      "url": "https://haz-map.com/Diseases/306"
    }
  ]
}