{
  "metadata": {
    "scraped_from": "https://haz-map.com/Agents/1387",
    "entity_name": "3-Bromo-1-propanol",
    "category": "agents",
    "uuid": "71a5b99b-181c-4903-bd68-7d10d0acf01c",
    "scraped_at": "2025-07-23T18:57:56.178699"
  },
  "parsed_at": "2025-07-24T01:00:45.182834",
  "title": "3-Bromo-1-propanol",
  "sections": {
    "general": {
      "agent_name": {
        "original_name": "Agent Name",
        "value": "3-Bromo-1-propanol",
        "links": [],
        "cross_references": [
          {
            "type": "name_match",
            "text": "3-bromo-1-propanol",
            "confidence": 1.0,
            "uuid": "71a5b99b-181c-4903-bd68-7d10d0acf01c",
            "name": "3-Bromo-1-propanol",
            "url": "https://haz-map.com/Agents/1387",
            "category": "agents"
          }
        ]
      },
      "cas_number": {
        "original_name": "CAS Number",
        "value": "627-18-9",
        "links": [],
        "cross_references": []
      },
      "formula": {
        "original_name": "Formula",
        "value": "C3-H7-Br-O",
        "links": [],
        "cross_references": []
      },
      "major_category": {
        "original_name": "Major Category",
        "value": "Other Classes",
        "links": [],
        "cross_references": []
      },
      "synonyms": {
        "original_name": "Synonyms",
        "value": "3-Bromopropanol; 3-Hydroxypropyl bromide; 1-Propanol, 3-bromo-; 3-Bromopropan-1-ol; [ChemIDplus] 1-Bromo-3-hydroxypropane; 3-Bromopropyl alcohol; Trimethylene bromohydrin; [CAMEO]",
        "links": [],
        "cross_references": [
          {
            "type": "name_match",
            "text": "propane",
            "confidence": 1.0,
            "uuid": "563a611b-46ea-4bdc-b77b-17d8f7646283",
            "name": "Propane",
            "url": "https://haz-map.com/Agents/607",
            "category": "agents"
          },
          {
            "type": "name_match",
            "text": "ethylene",
            "confidence": 1.0,
            "uuid": "958eacc0-5135-4b62-bb93-6df972bf552f",
            "name": "Ethylene",
            "url": "https://haz-map.com/Agents/1076",
            "category": "agents"
          }
        ]
      },
      "category": {
        "original_name": "Category",
        "value": "Halogenated Alcohols",
        "links": [],
        "cross_references": []
      },
      "description": {
        "original_name": "Description",
        "value": "Clear colorless liquid; [CAMEO]",
        "links": [],
        "cross_references": []
      },
      "comments": {
        "original_name": "Comments",
        "value": "Skin irritant; [Quick CPC] Can cause severe lung injury if aspirated; [CAMEO] An irritant that may cause serious eye injury; Harmful by ingestion; [Aldrich MSDS] See \"1-Chloro-2-propanol.\"",
        "links": [],
        "cross_references": [
          {
            "type": "name_match",
            "text": "1-chloro-2-propanol",
            "confidence": 1.0,
            "uuid": "3e820ec5-6b33-472a-a625-b789ef396833",
            "name": "1-Chloro-2-propanol",
            "url": "https://haz-map.com/Agents/1649",
            "category": "agents"
          }
        ]
      },
      "biomedical_references": {
        "original_name": "Biomedical References",
        "value": "Search PubMed",
        "links": [
          {
            "text": "Search PubMed",
            "url": "https://www.ncbi.nlm.nih.gov/pubmed?term=3-Bromo-1-propanol%20AND%20human%5Bmh%5D%20AND%20%28Occupational%20Diseases%20%5Bmh%5D%20OR%20Occupational%20Exposure%20%5Bmh%5D%29%20%20AND%20%28tox%5Bsb%5D%29&cmd=search"
          }
        ],
        "cross_references": []
      }
    },
    "exposure_assessment": {
      "vapor_pressure": {
        "original_name": "Vapor Pressure",
        "value": "0.1 mm Hg",
        "links": [],
        "cross_references": []
      },
      "explanatory_notes": {
        "original_name": "Explanatory Notes",
        "value": "Flash point = 201 deg F;",
        "links": [],
        "cross_references": [
          {
            "type": "name_match",
            "text": "ash",
            "confidence": 1.0,
            "uuid": "68b360f1-5ad0-4337-bea0-d7adca2961b5",
            "name": "Ash",
            "url": "https://haz-map.com/Agents/965",
            "category": "agents"
          }
        ]
      }
    },
    "diseases_processes_and_activities_linked_to_this_agent": {
      "other_information": {
        "original_name": "Other Information",
        "value": "No other related information on this agent was found.",
        "links": [],
        "cross_references": []
      }
    }
  },
  "cross_references": [
    {
      "type": "name_match",
      "text": "propane",
      "confidence": 1.0,
      "uuid": "563a611b-46ea-4bdc-b77b-17d8f7646283",
      "name": "Propane",
      "url": "https://haz-map.com/Agents/607",
      "category": "agents"
    },
    {
      "type": "name_match",
      "text": "ash",
      "confidence": 1.0,
      "uuid": "68b360f1-5ad0-4337-bea0-d7adca2961b5",
      "name": "Ash",
      "url": "https://haz-map.com/Agents/965",
      "category": "agents"
    },
    {
      "type": "name_match",
      "text": "ethylene",
      "confidence": 1.0,
      "uuid": "958eacc0-5135-4b62-bb93-6df972bf552f",
      "name": "Ethylene",
      "url": "https://haz-map.com/Agents/1076",
      "category": "agents"
    },
    {
      "type": "name_match",
      "text": "3-bromo-1-propanol",
      "confidence": 1.0,
      "uuid": "71a5b99b-181c-4903-bd68-7d10d0acf01c",
      "name": "3-Bromo-1-propanol",
      "url": "https://haz-map.com/Agents/1387",
      "category": "agents"
    },
    {
      "type": "name_match",
      "text": "1-chloro-2-propanol",
      "confidence": 1.0,
      "uuid": "3e820ec5-6b33-472a-a625-b789ef396833",
      "name": "1-Chloro-2-propanol",
      "url": "https://haz-map.com/Agents/1649",
      "category": "agents"
    }
  ],
  "all_links": [
    {
      "text": "Search PubMed",
      "url": "https://www.ncbi.nlm.nih.gov/pubmed?term=3-Bromo-1-propanol%20AND%20human%5Bmh%5D%20AND%20%28Occupational%20Diseases%20%5Bmh%5D%20OR%20Occupational%20Exposure%20%5Bmh%5D%29%20%20AND%20%28tox%5Bsb%5D%29&cmd=search"
    }
  ]
}