{
  "metadata": {
    "scraped_from": "https://haz-map.com/Agents/4489",
    "entity_name": "Cocaine",
    "category": "agents",
    "uuid": "71c3be36-4314-42d5-83b0-17d0b82f42e0",
    "scraped_at": "2025-07-23T19:41:27.773698"
  },
  "parsed_at": "2025-07-24T01:03:17.253601",
  "title": "Cocaine",
  "sections": {
    "general": {
      "agent_name": {
        "original_name": "Agent Name",
        "value": "Cocaine",
        "links": [],
        "cross_references": [
          {
            "type": "name_match",
            "text": "cocaine",
            "confidence": 1.0,
            "uuid": "71c3be36-4314-42d5-83b0-17d0b82f42e0",
            "name": "Cocaine",
            "url": "https://haz-map.com/Agents/4489",
            "category": "agents"
          }
        ]
      },
      "cas_number": {
        "original_name": "CAS Number",
        "value": "50-36-2",
        "links": [],
        "cross_references": []
      },
      "formula": {
        "original_name": "Formula",
        "value": "C17-H21-N-O4",
        "links": [],
        "cross_references": []
      },
      "major_category": {
        "original_name": "Major Category",
        "value": "Biological Agents",
        "links": [],
        "cross_references": []
      },
      "synonyms": {
        "original_name": "Synonyms",
        "value": "\"C\" Carrie; (1R,2R,3S,5S)-2-Methoxycarbonyltropan-3-yl benzoate; 1-Cocaine; 1-alpha-H,5-alpha-H-Tropane-2-beta-carboxylic acid, 3-beta-hydroxy-, methyl ester, benzoate; 2-beta-Carbomethoxy-3-beta-benzoxytropane; 2-beta-Tropanecarboxylic acid, 3-beta-hydroxy-, methyl ester, benzoate (ester); 2beta-Carbomethoxy-3beta-benzoxytropane; 3-(Benzoyloxy)-8-methyl-8-azabicyclo-(3.2.1)octane-2-carboxylic acid methyl ether; 3-Tropanylbenzoate-2-carboxylic acid methyl ester; 3beta-Hydroxy-1alphaH,5alphaH-tropane-2beta-carboxylic acid methyl ester benzoate; 8-Azabicyclo(3.2.1)octane-2-carboxylic acid, 3-(benzoyloxy)-8-methyl-, methyl ester, (1R-(exo,exo))-; Benzoylmethylecgonine; Bernice; Bernies; Blow; Burese; Cecil; Cholly; Cocaina; Cocaine, l-; Coke; Corine; Crack; Crack cocaine; Dama blanca; Ecgonine, methyl ester, benzoate (ester); Eritroxilina; Erytroxylin; Flake; Girl; Gold dust; Green gold; Happy dust; Happy trails; Her; Jam; Kokain; Kokan; Kokayeen; L-Cocaine; Lady; Leaf; Methyl 3-beta-hydroxy-1-alpha-H,5-alpha-H-tropane-2-beta-carboxylate benzoate (ester); Methyl 3beta-hydroxy-1alphaH,5alphaH-tropane-2beta-carboxylate benzoate (ester); Methyl Benzoylecgonine; Neurocaine; Nose candy; Pimp's drug; Rock; Snow; Star dust; Star-spangled powder; Toot; White girl or lady; [ChemIDplus]",
        "links": [],
        "cross_references": [
          {
            "type": "name_match",
            "text": "octane",
            "confidence": 1.0,
            "uuid": "feb2932c-69c5-4142-b6b6-bde017998940",
            "name": "Octane",
            "url": "https://haz-map.com/Agents/106",
            "category": "agents"
          },
          {
            "type": "name_match",
            "text": "ethyl ether",
            "confidence": 1.0,
            "uuid": "c95edddc-9ad3-44f8-bafa-78e0bd19db3a",
            "name": "Ethyl ether",
            "url": "https://haz-map.com/Agents/455",
            "category": "agents"
          },
          {
            "type": "name_match",
            "text": "gold",
            "confidence": 1.0,
            "uuid": "8f37bad1-17df-446f-b0ed-11d2ef239483",
            "name": "Gold",
            "url": "https://haz-map.com/Agents/1186",
            "category": "agents"
          },
          {
            "type": "name_match",
            "text": "carbon",
            "confidence": 1.0,
            "uuid": "b53f8815-ee80-40ef-b4aa-3b000e17dab5",
            "name": "Carbon",
            "url": "https://haz-map.com/Agents/1891",
            "category": "agents"
          },
          {
            "type": "name_match",
            "text": "cocaine",
            "confidence": 1.0,
            "uuid": "71c3be36-4314-42d5-83b0-17d0b82f42e0",
            "name": "Cocaine",
            "url": "https://haz-map.com/Agents/4489",
            "category": "agents"
          }
        ]
      },
      "category": {
        "original_name": "Category",
        "value": "Plant Toxins",
        "links": [],
        "cross_references": []
      },
      "description": {
        "original_name": "Description",
        "value": "Colorless to white solid; [Hawley]",
        "links": [],
        "cross_references": []
      },
      "sourcesuses": {
        "original_name": "Sources/Uses",
        "value": "Extracted from the leaves of coca shrubs indigenous to South America; Used as local anesthetic (nasal and ophthalmic) and vasoconstrictor for otolaryngology procedures; [HSDB] Used as a controlled substance in medicine and dentistry, usually as the hydrochloride compound; [Hawley] A popular drug of abuse; [Olson, p. 201]",
        "links": [],
        "cross_references": [
          {
            "type": "name_match",
            "text": "ht",
            "confidence": 1.0,
            "uuid": "764df367-8d53-4a11-81a2-31ccfe122a8d",
            "name": "HT",
            "url": "https://haz-map.com/Agents/2168",
            "category": "agents"
          }
        ]
      },
      "comments": {
        "original_name": "Comments",
        "value": "CNS effects may include euphoria, delirium, agitation, muscle hyperactivity, and seizures. Cardiac effects may include arrhythmias, hypertension, hemorrhagic stroke, coronary artery spasm, and myocardial infarction. Death from overdose is usually due to fatal arrhythmias, status epilepticus, stroke, or hyperthermia. [Olson, p. 202-3] Use of cocaine during pregnancy is associated with premature birth, behavioral abnormalities of offspring, and possibly congenital anomalies of the urinary tract; [REPROTOX]",
        "links": [],
        "cross_references": [
          {
            "type": "name_match",
            "text": "delirium",
            "confidence": 1.0,
            "uuid": "6aac5657-d857-4ce5-97ba-3ad9dc5c4a98",
            "name": "delirium",
            "url": "https://haz-map.com/Findings/61",
            "category": "findings"
          },
          {
            "type": "name_match",
            "text": "arrhythmia",
            "confidence": 1.0,
            "uuid": "43fc0eec-4bd2-4007-a9ca-ecea440cf2c4",
            "name": "arrhythmia",
            "url": "https://haz-map.com/Findings/128",
            "category": "findings"
          },
          {
            "type": "name_match",
            "text": "cocaine",
            "confidence": 1.0,
            "uuid": "71c3be36-4314-42d5-83b0-17d0b82f42e0",
            "name": "Cocaine",
            "url": "https://haz-map.com/Agents/4489",
            "category": "agents"
          }
        ]
      },
      "biomedical_references": {
        "original_name": "Biomedical References",
        "value": "Search PubMed",
        "links": [
          {
            "text": "Search PubMed",
            "url": "https://www.ncbi.nlm.nih.gov/pubmed?term=Cocaine%20AND%20human%5Bmh%5D%20AND%20%28Occupational%20Diseases%20%5Bmh%5D%20OR%20Occupational%20Exposure%20%5Bmh%5D%29%20%20AND%20%28tox%5Bsb%5D%29&cmd=search"
          }
        ],
        "cross_references": []
      }
    },
    "exposure_assessment": {
      "vapor_pressure": {
        "original_name": "Vapor Pressure",
        "value": "1.91E-07 mm Hg",
        "links": [],
        "cross_references": []
      }
    },
    "adverse_effects": {
      "neurotoxin": {
        "original_name": "Neurotoxin",
        "value": "Other CNS neurotoxin",
        "links": [],
        "cross_references": []
      },
      "reproductive_toxin": {
        "original_name": "Reproductive Toxin",
        "value": "Yes",
        "links": [],
        "cross_references": []
      }
    },
    "diseases_processes_and_activities_linked_to_this_agent": {
      "other_information": {
        "original_name": "Other Information",
        "value": "No other related information on this agent was found.",
        "links": [],
        "cross_references": []
      }
    }
  },
  "cross_references": [
    {
      "type": "name_match",
      "text": "delirium",
      "confidence": 1.0,
      "uuid": "6aac5657-d857-4ce5-97ba-3ad9dc5c4a98",
      "name": "delirium",
      "url": "https://haz-map.com/Findings/61",
      "category": "findings"
    },
    {
      "type": "name_match",
      "text": "arrhythmia",
      "confidence": 1.0,
      "uuid": "43fc0eec-4bd2-4007-a9ca-ecea440cf2c4",
      "name": "arrhythmia",
      "url": "https://haz-map.com/Findings/128",
      "category": "findings"
    },
    {
      "type": "name_match",
      "text": "octane",
      "confidence": 1.0,
      "uuid": "feb2932c-69c5-4142-b6b6-bde017998940",
      "name": "Octane",
      "url": "https://haz-map.com/Agents/106",
      "category": "agents"
    },
    {
      "type": "name_match",
      "text": "ethyl ether",
      "confidence": 1.0,
      "uuid": "c95edddc-9ad3-44f8-bafa-78e0bd19db3a",
      "name": "Ethyl ether",
      "url": "https://haz-map.com/Agents/455",
      "category": "agents"
    },
    {
      "type": "name_match",
      "text": "gold",
      "confidence": 1.0,
      "uuid": "8f37bad1-17df-446f-b0ed-11d2ef239483",
      "name": "Gold",
      "url": "https://haz-map.com/Agents/1186",
      "category": "agents"
    },
    {
      "type": "name_match",
      "text": "carbon",
      "confidence": 1.0,
      "uuid": "b53f8815-ee80-40ef-b4aa-3b000e17dab5",
      "name": "Carbon",
      "url": "https://haz-map.com/Agents/1891",
      "category": "agents"
    },
    {
      "type": "name_match",
      "text": "ht",
      "confidence": 1.0,
      "uuid": "764df367-8d53-4a11-81a2-31ccfe122a8d",
      "name": "HT",
      "url": "https://haz-map.com/Agents/2168",
      "category": "agents"
    },
    {
      "type": "name_match",
      "text": "cocaine",
      "confidence": 1.0,
      "uuid": "71c3be36-4314-42d5-83b0-17d0b82f42e0",
      "name": "Cocaine",
      "url": "https://haz-map.com/Agents/4489",
      "category": "agents"
    }
  ],
  "all_links": [
    {
      "text": "Search PubMed",
      "url": "https://www.ncbi.nlm.nih.gov/pubmed?term=Cocaine%20AND%20human%5Bmh%5D%20AND%20%28Occupational%20Diseases%20%5Bmh%5D%20OR%20Occupational%20Exposure%20%5Bmh%5D%29%20%20AND%20%28tox%5Bsb%5D%29&cmd=search"
    }
  ]
}