{
  "metadata": {
    "scraped_from": "https://haz-map.com/Agents/10427",
    "entity_name": "2-Bromo-1-chloropropane",
    "category": "agents",
    "uuid": "71d37e90-384c-4232-9c8d-a3b621fa2026",
    "scraped_at": "2025-07-23T20:47:18.335475"
  },
  "parsed_at": "2025-07-24T01:17:40.347002",
  "title": "2-Bromo-1-chloropropane",
  "sections": {
    "general": {
      "agent_name": {
        "original_name": "Agent Name",
        "value": "2-Bromo-1-chloropropane",
        "links": [],
        "cross_references": [
          {
            "type": "name_match",
            "text": "propane",
            "confidence": 1.0,
            "uuid": "563a611b-46ea-4bdc-b77b-17d8f7646283",
            "name": "Propane",
            "url": "https://haz-map.com/Agents/607",
            "category": "agents"
          },
          {
            "type": "name_match",
            "text": "1-chloropropane",
            "confidence": 1.0,
            "uuid": "fc9f5fc7-d36d-4f29-89c3-88203c0a2f04",
            "name": "1-Chloropropane",
            "url": "https://haz-map.com/Agents/2877",
            "category": "agents"
          },
          {
            "type": "name_match",
            "text": "2-bromo-1-chloropropane",
            "confidence": 1.0,
            "uuid": "71d37e90-384c-4232-9c8d-a3b621fa2026",
            "name": "2-Bromo-1-chloropropane",
            "url": "https://haz-map.com/Agents/10427",
            "category": "agents"
          }
        ]
      },
      "cas_number": {
        "original_name": "CAS Number",
        "value": "3017-95-6",
        "links": [],
        "cross_references": []
      },
      "formula": {
        "original_name": "Formula",
        "value": "C3-H6-Br-Cl",
        "links": [],
        "cross_references": []
      },
      "major_category": {
        "original_name": "Major Category",
        "value": "Other Classes",
        "links": [],
        "cross_references": []
      },
      "synonyms": {
        "original_name": "Synonyms",
        "value": "1-Chloro-2-bromopropane; Propane, 2-bromo-1-chloro-; [ChemIDplus]",
        "links": [],
        "cross_references": [
          {
            "type": "name_match",
            "text": "propane",
            "confidence": 1.0,
            "uuid": "563a611b-46ea-4bdc-b77b-17d8f7646283",
            "name": "Propane",
            "url": "https://haz-map.com/Agents/607",
            "category": "agents"
          },
          {
            "type": "name_match",
            "text": "2-bromopropane",
            "confidence": 1.0,
            "uuid": "a5346807-32b7-4626-9d4e-4a5ee3c29217",
            "name": "2-Bromopropane",
            "url": "https://haz-map.com/Agents/3078",
            "category": "agents"
          }
        ]
      },
      "category": {
        "original_name": "Category",
        "value": "Halogenated Aliphatics, Saturated",
        "links": [],
        "cross_references": []
      },
      "description": {
        "original_name": "Description",
        "value": "Colorless odorless liquid; [CAMEO]",
        "links": [],
        "cross_references": []
      },
      "comments": {
        "original_name": "Comments",
        "value": "An irritant; Harmful by ingestion, inhalation, and skin absorption; [Alfa Aesar MSDS] See \"1-Bromo-3-chloropropane.\"",
        "links": [],
        "cross_references": [
          {
            "type": "name_match",
            "text": "propane",
            "confidence": 1.0,
            "uuid": "563a611b-46ea-4bdc-b77b-17d8f7646283",
            "name": "Propane",
            "url": "https://haz-map.com/Agents/607",
            "category": "agents"
          },
          {
            "type": "name_match",
            "text": "1-bromo-3-chloropropane",
            "confidence": 1.0,
            "uuid": "076f4a84-679a-404d-94c7-330d6b5393b1",
            "name": "1-Bromo-3-chloropropane",
            "url": "https://haz-map.com/Agents/2850",
            "category": "agents"
          }
        ]
      },
      "biomedical_references": {
        "original_name": "Biomedical References",
        "value": "Search PubMed",
        "links": [
          {
            "text": "Search PubMed",
            "url": "https://www.ncbi.nlm.nih.gov/pubmed?term=2-Bromo-1-chloropropane%20AND%20human%5Bmh%5D%20AND%20%28Occupational%20Diseases%20%5Bmh%5D%20OR%20Occupational%20Exposure%20%5Bmh%5D%29%20%20AND%20%28tox%5Bsb%5D%29&cmd=search"
          }
        ],
        "cross_references": []
      }
    },
    "exposure_assessment": {
      "vapor_pressure": {
        "original_name": "Vapor Pressure",
        "value": "11.3 mm Hg",
        "links": [],
        "cross_references": []
      },
      "explanatory_notes": {
        "original_name": "Explanatory Notes",
        "value": "VP from ChemIDplus;",
        "links": [],
        "cross_references": []
      }
    },
    "adverse_effects": {
      "neurotoxin": {
        "original_name": "Neurotoxin",
        "value": "Acute solvent syndrome",
        "links": [],
        "cross_references": []
      }
    },
    "diseases_processes_and_activities_linked_to_this_agent": {
      "diseases": {
        "original_name": "Diseases",
        "value": "Occupational diseases associated with exposure to this agent: Solvents, acute toxic effect",
        "links": [
          {
            "text": "Solvents, acute toxic effect",
            "url": "https://haz-map.com/Diseases/326"
          }
        ],
        "cross_references": [
          {
            "type": "url_match",
            "text": "Solvents, acute toxic effect",
            "url": "https://haz-map.com/Diseases/326",
            "confidence": 1.0,
            "uuid": "581e90e3-9d0c-45f0-aa6c-3468c28da129",
            "name": "Solvents, acute toxic effect",
            "category": "diseases"
          }
        ]
      }
    }
  },
  "cross_references": [
    {
      "type": "url_match",
      "text": "Solvents, acute toxic effect",
      "url": "https://haz-map.com/Diseases/326",
      "confidence": 1.0,
      "uuid": "581e90e3-9d0c-45f0-aa6c-3468c28da129",
      "name": "Solvents, acute toxic effect",
      "category": "diseases"
    },
    {
      "type": "name_match",
      "text": "propane",
      "confidence": 1.0,
      "uuid": "563a611b-46ea-4bdc-b77b-17d8f7646283",
      "name": "Propane",
      "url": "https://haz-map.com/Agents/607",
      "category": "agents"
    },
    {
      "type": "name_match",
      "text": "1-bromo-3-chloropropane",
      "confidence": 1.0,
      "uuid": "076f4a84-679a-404d-94c7-330d6b5393b1",
      "name": "1-Bromo-3-chloropropane",
      "url": "https://haz-map.com/Agents/2850",
      "category": "agents"
    },
    {
      "type": "name_match",
      "text": "1-chloropropane",
      "confidence": 1.0,
      "uuid": "fc9f5fc7-d36d-4f29-89c3-88203c0a2f04",
      "name": "1-Chloropropane",
      "url": "https://haz-map.com/Agents/2877",
      "category": "agents"
    },
    {
      "type": "name_match",
      "text": "2-bromopropane",
      "confidence": 1.0,
      "uuid": "a5346807-32b7-4626-9d4e-4a5ee3c29217",
      "name": "2-Bromopropane",
      "url": "https://haz-map.com/Agents/3078",
      "category": "agents"
    },
    {
      "type": "name_match",
      "text": "2-bromo-1-chloropropane",
      "confidence": 1.0,
      "uuid": "71d37e90-384c-4232-9c8d-a3b621fa2026",
      "name": "2-Bromo-1-chloropropane",
      "url": "https://haz-map.com/Agents/10427",
      "category": "agents"
    }
  ],
  "all_links": [
    {
      "text": "Search PubMed",
      "url": "https://www.ncbi.nlm.nih.gov/pubmed?term=2-Bromo-1-chloropropane%20AND%20human%5Bmh%5D%20AND%20%28Occupational%20Diseases%20%5Bmh%5D%20OR%20Occupational%20Exposure%20%5Bmh%5D%29%20%20AND%20%28tox%5Bsb%5D%29&cmd=search"
    },
    {
      "text": "Solvents, acute toxic effect",
      "url": "https://haz-map.com/Diseases/326"
    }
  ]
}