{
  "metadata": {
    "scraped_from": "https://haz-map.com/Agents/7526",
    "entity_name": "Trichlorobenzene, all isomers",
    "category": "agents",
    "uuid": "71d6e508-cd35-477c-b257-7187537fe104",
    "scraped_at": "2025-07-23T20:13:43.228669"
  },
  "parsed_at": "2025-07-24T00:55:26.757357",
  "title": "Trichlorobenzene, all isomers",
  "sections": {
    "general": {
      "agent_name": {
        "original_name": "Agent Name",
        "value": "Trichlorobenzene, all isomers",
        "links": [],
        "cross_references": [
          {
            "type": "name_match",
            "text": "benzene",
            "confidence": 1.0,
            "uuid": "b05124de-5f34-4c14-8f04-ccb20c3780d9",
            "name": "Benzene",
            "url": "https://haz-map.com/Agents/5",
            "category": "agents"
          },
          {
            "type": "name_match",
            "text": "chlorobenzene",
            "confidence": 1.0,
            "uuid": "7e598eca-f35d-493c-aa78-93bb67744c4c",
            "name": "Chlorobenzene",
            "url": "https://haz-map.com/Agents/85",
            "category": "agents"
          },
          {
            "type": "name_match",
            "text": "trichlorobenzene, all isomers",
            "confidence": 1.0,
            "uuid": "71d6e508-cd35-477c-b257-7187537fe104",
            "name": "Trichlorobenzene, all isomers",
            "url": "https://haz-map.com/Agents/7526",
            "category": "agents"
          }
        ]
      },
      "cas_number": {
        "original_name": "CAS Number",
        "value": "12002-48-1",
        "links": [],
        "cross_references": []
      },
      "formula": {
        "original_name": "Formula",
        "value": "C6-H3-Cl3",
        "links": [],
        "cross_references": []
      },
      "major_category": {
        "original_name": "Major Category",
        "value": "Solvents",
        "links": [],
        "cross_references": []
      },
      "synonyms": {
        "original_name": "Synonyms",
        "value": "Benzene, trichloro-; Invalon TC; Pyranol 1478; TCB; Trichlorbenzene; Trichlorobencenos [Spanish]; Trichlorobenzene; [ChemIDplus] UN2321",
        "links": [],
        "cross_references": [
          {
            "type": "name_match",
            "text": "benzene",
            "confidence": 1.0,
            "uuid": "b05124de-5f34-4c14-8f04-ccb20c3780d9",
            "name": "Benzene",
            "url": "https://haz-map.com/Agents/5",
            "category": "agents"
          },
          {
            "type": "name_match",
            "text": "chlorobenzene",
            "confidence": 1.0,
            "uuid": "7e598eca-f35d-493c-aa78-93bb67744c4c",
            "name": "Chlorobenzene",
            "url": "https://haz-map.com/Agents/85",
            "category": "agents"
          }
        ]
      },
      "category": {
        "original_name": "Category",
        "value": "Chlorinated Aromatics",
        "links": [],
        "cross_references": [
          {
            "type": "name_match",
            "text": "chlorin",
            "confidence": 1.0,
            "uuid": "4a566fec-ec7e-42b0-9f14-ec586335e694",
            "name": "Chlorin",
            "url": "https://haz-map.com/Agents/20422",
            "category": "agents"
          }
        ]
      },
      "description": {
        "original_name": "Description",
        "value": "Colorless liquid; mp = 17-63.5 deg C; [HSDB] Colorless to yellowish liquid with a sweet odor like almonds; [CAMEO]",
        "links": [],
        "cross_references": []
      },
      "sourcesuses": {
        "original_name": "Sources/Uses",
        "value": "Used as an intermediate and solvent (oil-soluble dyes, degreasing solvent, dielectric fluid, lubricating-oil additive, and heat transfer medium); Formerly used in termite preparations; [HSDB] Used to make pesticides; [CAMEO]",
        "links": [],
        "cross_references": []
      },
      "comments": {
        "original_name": "Comments",
        "value": "Commercially available as mixture of three isomers; [HSDB] See \"1,2,3-Trichlorobenzene,\" \"1,2,4-Trichlorobenzene,\" and \"1,3,5-Trichlorobenzene.\"",
        "links": [],
        "cross_references": [
          {
            "type": "name_match",
            "text": "benzene",
            "confidence": 1.0,
            "uuid": "b05124de-5f34-4c14-8f04-ccb20c3780d9",
            "name": "Benzene",
            "url": "https://haz-map.com/Agents/5",
            "category": "agents"
          },
          {
            "type": "name_match",
            "text": "chlorobenzene",
            "confidence": 1.0,
            "uuid": "7e598eca-f35d-493c-aa78-93bb67744c4c",
            "name": "Chlorobenzene",
            "url": "https://haz-map.com/Agents/85",
            "category": "agents"
          },
          {
            "type": "name_match",
            "text": "1,2,4-trichlorobenzene",
            "confidence": 1.0,
            "uuid": "0139af49-f424-4d9d-8284-3822042f51da",
            "name": "1,2,4-Trichlorobenzene",
            "url": "https://haz-map.com/Agents/661",
            "category": "agents"
          },
          {
            "type": "name_match",
            "text": "1,2,3-trichlorobenzene",
            "confidence": 1.0,
            "uuid": "38cca9b3-e27d-4f89-ad88-1997f03c18d8",
            "name": "1,2,3-Trichlorobenzene",
            "url": "https://haz-map.com/Agents/2728",
            "category": "agents"
          },
          {
            "type": "name_match",
            "text": "1,3,5-trichlorobenzene",
            "confidence": 1.0,
            "uuid": "73c2f5cb-7854-4f8c-8335-42ef95f67345",
            "name": "1,3,5-Trichlorobenzene",
            "url": "https://haz-map.com/Agents/2777",
            "category": "agents"
          }
        ]
      },
      "biomedical_references": {
        "original_name": "Biomedical References",
        "value": "Search PubMed",
        "links": [
          {
            "text": "Search PubMed",
            "url": "https://www.ncbi.nlm.nih.gov/pubmed?term=Trichlorobenzene%2c+all+isomers%20AND%20human%5Bmh%5D%20AND%20%28Occupational%20Diseases%20%5Bmh%5D%20OR%20Occupational%20Exposure%20%5Bmh%5D%29%20%20AND%20%28tox%5Bsb%5D%29&cmd=search"
          }
        ],
        "cross_references": []
      }
    },
    "exposure_assessment": {
      "vapor_pressure": {
        "original_name": "Vapor Pressure",
        "value": "0.46 mm Hg",
        "links": [],
        "cross_references": []
      },
      "explanatory_notes": {
        "original_name": "Explanatory Notes",
        "value": "VP = 0.21-0.46 mm Hg at 25 deg C; [HSDB]",
        "links": [],
        "cross_references": []
      }
    },
    "adverse_effects": {
      "neurotoxin": {
        "original_name": "Neurotoxin",
        "value": "Acute solvent syndrome",
        "links": [],
        "cross_references": []
      },
      "hepatotoxin": {
        "original_name": "Hepatotoxin",
        "value": "Hepatoxic (a) from occupational exposure (secondary effect) or (b) in animal studies or in humans after ingestion",
        "links": [],
        "cross_references": []
      }
    },
    "diseases_processes_and_activities_linked_to_this_agent": {
      "diseases": {
        "original_name": "Diseases",
        "value": "Occupational diseases associated with exposure to this agent: Solvents, acute toxic effect",
        "links": [
          {
            "text": "Solvents, acute toxic effect",
            "url": "https://haz-map.com/Diseases/326"
          }
        ],
        "cross_references": [
          {
            "type": "url_match",
            "text": "Solvents, acute toxic effect",
            "url": "https://haz-map.com/Diseases/326",
            "confidence": 1.0,
            "uuid": "581e90e3-9d0c-45f0-aa6c-3468c28da129",
            "name": "Solvents, acute toxic effect",
            "category": "diseases"
          }
        ]
      }
    }
  },
  "cross_references": [
    {
      "type": "url_match",
      "text": "Solvents, acute toxic effect",
      "url": "https://haz-map.com/Diseases/326",
      "confidence": 1.0,
      "uuid": "581e90e3-9d0c-45f0-aa6c-3468c28da129",
      "name": "Solvents, acute toxic effect",
      "category": "diseases"
    },
    {
      "type": "name_match",
      "text": "benzene",
      "confidence": 1.0,
      "uuid": "b05124de-5f34-4c14-8f04-ccb20c3780d9",
      "name": "Benzene",
      "url": "https://haz-map.com/Agents/5",
      "category": "agents"
    },
    {
      "type": "name_match",
      "text": "chlorobenzene",
      "confidence": 1.0,
      "uuid": "7e598eca-f35d-493c-aa78-93bb67744c4c",
      "name": "Chlorobenzene",
      "url": "https://haz-map.com/Agents/85",
      "category": "agents"
    },
    {
      "type": "name_match",
      "text": "1,2,4-trichlorobenzene",
      "confidence": 1.0,
      "uuid": "0139af49-f424-4d9d-8284-3822042f51da",
      "name": "1,2,4-Trichlorobenzene",
      "url": "https://haz-map.com/Agents/661",
      "category": "agents"
    },
    {
      "type": "name_match",
      "text": "1,2,3-trichlorobenzene",
      "confidence": 1.0,
      "uuid": "38cca9b3-e27d-4f89-ad88-1997f03c18d8",
      "name": "1,2,3-Trichlorobenzene",
      "url": "https://haz-map.com/Agents/2728",
      "category": "agents"
    },
    {
      "type": "name_match",
      "text": "1,3,5-trichlorobenzene",
      "confidence": 1.0,
      "uuid": "73c2f5cb-7854-4f8c-8335-42ef95f67345",
      "name": "1,3,5-Trichlorobenzene",
      "url": "https://haz-map.com/Agents/2777",
      "category": "agents"
    },
    {
      "type": "name_match",
      "text": "trichlorobenzene, all isomers",
      "confidence": 1.0,
      "uuid": "71d6e508-cd35-477c-b257-7187537fe104",
      "name": "Trichlorobenzene, all isomers",
      "url": "https://haz-map.com/Agents/7526",
      "category": "agents"
    },
    {
      "type": "name_match",
      "text": "chlorin",
      "confidence": 1.0,
      "uuid": "4a566fec-ec7e-42b0-9f14-ec586335e694",
      "name": "Chlorin",
      "url": "https://haz-map.com/Agents/20422",
      "category": "agents"
    }
  ],
  "all_links": [
    {
      "text": "Search PubMed",
      "url": "https://www.ncbi.nlm.nih.gov/pubmed?term=Trichlorobenzene%2c+all+isomers%20AND%20human%5Bmh%5D%20AND%20%28Occupational%20Diseases%20%5Bmh%5D%20OR%20Occupational%20Exposure%20%5Bmh%5D%29%20%20AND%20%28tox%5Bsb%5D%29&cmd=search"
    },
    {
      "text": "Solvents, acute toxic effect",
      "url": "https://haz-map.com/Diseases/326"
    }
  ]
}