{
  "metadata": {
    "scraped_from": "https://haz-map.com/Agents/10934",
    "entity_name": "2-Methyl-2-nitropropane",
    "category": "agents",
    "uuid": "721361d8-e637-48bd-9ade-035fe39cc7a3",
    "scraped_at": "2025-07-23T20:54:30.382366"
  },
  "parsed_at": "2025-07-24T01:14:35.550261",
  "title": "2-Methyl-2-nitropropane",
  "sections": {
    "general": {
      "agent_name": {
        "original_name": "Agent Name",
        "value": "2-Methyl-2-nitropropane",
        "links": [],
        "cross_references": [
          {
            "type": "name_match",
            "text": "2-nitropropane",
            "confidence": 1.0,
            "uuid": "13da4398-5a0e-41d2-8e0b-fa590dbd6a37",
            "name": "2-Nitropropane",
            "url": "https://haz-map.com/Agents/418",
            "category": "agents"
          },
          {
            "type": "name_match",
            "text": "propane",
            "confidence": 1.0,
            "uuid": "563a611b-46ea-4bdc-b77b-17d8f7646283",
            "name": "Propane",
            "url": "https://haz-map.com/Agents/607",
            "category": "agents"
          },
          {
            "type": "name_match",
            "text": "2-methyl-2-nitropropane",
            "confidence": 1.0,
            "uuid": "721361d8-e637-48bd-9ade-035fe39cc7a3",
            "name": "2-Methyl-2-nitropropane",
            "url": "https://haz-map.com/Agents/10934",
            "category": "agents"
          }
        ]
      },
      "cas_number": {
        "original_name": "CAS Number",
        "value": "594-70-7",
        "links": [],
        "cross_references": []
      },
      "formula": {
        "original_name": "Formula",
        "value": "C4-H9-N-O2",
        "links": [],
        "cross_references": []
      },
      "major_category": {
        "original_name": "Major Category",
        "value": "Nitrogen Compounds",
        "links": [],
        "cross_references": [
          {
            "type": "name_match",
            "text": "nitrogen",
            "confidence": 1.0,
            "uuid": "db5e90a9-06d2-45b9-8b81-f345a89b0bc0",
            "name": "Nitrogen",
            "url": "https://haz-map.com/Agents/1072",
            "category": "agents"
          }
        ]
      },
      "synonyms": {
        "original_name": "Synonyms",
        "value": "1,1-Dimethyl-1-nitroethane; 2-Nitro-2-methylpropane; 2-Nitroisobutane; Trimethylnitromethane; Nitro-tert-butane; Propane, 2-methyl-2-nitro-; [ChemIDplus] tert-Nitrobutane; [Acros Organics MSDS]",
        "links": [],
        "cross_references": [
          {
            "type": "name_match",
            "text": "nitroethane",
            "confidence": 1.0,
            "uuid": "629833cf-5709-4364-82ed-199b57356803",
            "name": "Nitroethane",
            "url": "https://haz-map.com/Agents/570",
            "category": "agents"
          },
          {
            "type": "name_match",
            "text": "nitromethane",
            "confidence": 1.0,
            "uuid": "301bf66e-ff69-4a04-9df5-de827adfe18e",
            "name": "Nitromethane",
            "url": "https://haz-map.com/Agents/573",
            "category": "agents"
          },
          {
            "type": "name_match",
            "text": "propane",
            "confidence": 1.0,
            "uuid": "563a611b-46ea-4bdc-b77b-17d8f7646283",
            "name": "Propane",
            "url": "https://haz-map.com/Agents/607",
            "category": "agents"
          },
          {
            "type": "name_match",
            "text": "methane",
            "confidence": 1.0,
            "uuid": "5018bf73-24be-4353-8643-c351d5f52186",
            "name": "Methane",
            "url": "https://haz-map.com/Agents/1074",
            "category": "agents"
          },
          {
            "type": "name_match",
            "text": "ethane",
            "confidence": 1.0,
            "uuid": "5162cc8c-dfb9-4060-81ac-38a8cec7f9dd",
            "name": "Ethane",
            "url": "https://haz-map.com/Agents/1075",
            "category": "agents"
          },
          {
            "type": "name_match",
            "text": "isobutane",
            "confidence": 1.0,
            "uuid": "9a4cf2e6-02b0-45a3-8589-afc3acf47e00",
            "name": "Isobutane",
            "url": "https://haz-map.com/Agents/1534",
            "category": "agents"
          }
        ]
      },
      "category": {
        "original_name": "Category",
        "value": "Nitros, Aliphatic",
        "links": [],
        "cross_references": []
      },
      "description": {
        "original_name": "Description",
        "value": "Melting point = 26.23 deg C; [ChemIDplus] Colorless liquid; [Acros Organics MSDS] Colorless low melting solid; mp = 27-31 deg C; [Alfa Aesar MSDS]",
        "links": [],
        "cross_references": []
      },
      "comments": {
        "original_name": "Comments",
        "value": "May cause irritation, CNS depression, and cardiac disturbances; [Acros Organics MSDS] An irritant; [Alfa Aesar MSDS] See \"2-Nitropropane,\" a primary hepatotoxin.",
        "links": [],
        "cross_references": [
          {
            "type": "name_match",
            "text": "2-nitropropane",
            "confidence": 1.0,
            "uuid": "13da4398-5a0e-41d2-8e0b-fa590dbd6a37",
            "name": "2-Nitropropane",
            "url": "https://haz-map.com/Agents/418",
            "category": "agents"
          },
          {
            "type": "name_match",
            "text": "propane",
            "confidence": 1.0,
            "uuid": "563a611b-46ea-4bdc-b77b-17d8f7646283",
            "name": "Propane",
            "url": "https://haz-map.com/Agents/607",
            "category": "agents"
          }
        ]
      },
      "biomedical_references": {
        "original_name": "Biomedical References",
        "value": "Search PubMed",
        "links": [
          {
            "text": "Search PubMed",
            "url": "https://www.ncbi.nlm.nih.gov/pubmed?term=2-Methyl-2-nitropropane%20AND%20human%5Bmh%5D%20AND%20%28Occupational%20Diseases%20%5Bmh%5D%20OR%20Occupational%20Exposure%20%5Bmh%5D%29%20%20AND%20%28tox%5Bsb%5D%29&cmd=search"
          }
        ],
        "cross_references": []
      }
    },
    "diseases_processes_and_activities_linked_to_this_agent": {
      "other_information": {
        "original_name": "Other Information",
        "value": "No other related information on this agent was found.",
        "links": [],
        "cross_references": []
      }
    }
  },
  "cross_references": [
    {
      "type": "name_match",
      "text": "2-nitropropane",
      "confidence": 1.0,
      "uuid": "13da4398-5a0e-41d2-8e0b-fa590dbd6a37",
      "name": "2-Nitropropane",
      "url": "https://haz-map.com/Agents/418",
      "category": "agents"
    },
    {
      "type": "name_match",
      "text": "nitroethane",
      "confidence": 1.0,
      "uuid": "629833cf-5709-4364-82ed-199b57356803",
      "name": "Nitroethane",
      "url": "https://haz-map.com/Agents/570",
      "category": "agents"
    },
    {
      "type": "name_match",
      "text": "nitromethane",
      "confidence": 1.0,
      "uuid": "301bf66e-ff69-4a04-9df5-de827adfe18e",
      "name": "Nitromethane",
      "url": "https://haz-map.com/Agents/573",
      "category": "agents"
    },
    {
      "type": "name_match",
      "text": "propane",
      "confidence": 1.0,
      "uuid": "563a611b-46ea-4bdc-b77b-17d8f7646283",
      "name": "Propane",
      "url": "https://haz-map.com/Agents/607",
      "category": "agents"
    },
    {
      "type": "name_match",
      "text": "nitrogen",
      "confidence": 1.0,
      "uuid": "db5e90a9-06d2-45b9-8b81-f345a89b0bc0",
      "name": "Nitrogen",
      "url": "https://haz-map.com/Agents/1072",
      "category": "agents"
    },
    {
      "type": "name_match",
      "text": "methane",
      "confidence": 1.0,
      "uuid": "5018bf73-24be-4353-8643-c351d5f52186",
      "name": "Methane",
      "url": "https://haz-map.com/Agents/1074",
      "category": "agents"
    },
    {
      "type": "name_match",
      "text": "ethane",
      "confidence": 1.0,
      "uuid": "5162cc8c-dfb9-4060-81ac-38a8cec7f9dd",
      "name": "Ethane",
      "url": "https://haz-map.com/Agents/1075",
      "category": "agents"
    },
    {
      "type": "name_match",
      "text": "isobutane",
      "confidence": 1.0,
      "uuid": "9a4cf2e6-02b0-45a3-8589-afc3acf47e00",
      "name": "Isobutane",
      "url": "https://haz-map.com/Agents/1534",
      "category": "agents"
    },
    {
      "type": "name_match",
      "text": "2-methyl-2-nitropropane",
      "confidence": 1.0,
      "uuid": "721361d8-e637-48bd-9ade-035fe39cc7a3",
      "name": "2-Methyl-2-nitropropane",
      "url": "https://haz-map.com/Agents/10934",
      "category": "agents"
    }
  ],
  "all_links": [
    {
      "text": "Search PubMed",
      "url": "https://www.ncbi.nlm.nih.gov/pubmed?term=2-Methyl-2-nitropropane%20AND%20human%5Bmh%5D%20AND%20%28Occupational%20Diseases%20%5Bmh%5D%20OR%20Occupational%20Exposure%20%5Bmh%5D%29%20%20AND%20%28tox%5Bsb%5D%29&cmd=search"
    }
  ]
}