{
  "metadata": {
    "scraped_from": "https://haz-map.com/Agents/2945",
    "entity_name": "2,3,4,5-Tetrachloronitrobenzene",
    "category": "agents",
    "uuid": "72fe59ff-be54-45be-a89f-eb29823e8166",
    "scraped_at": "2025-07-23T19:21:25.046741"
  },
  "parsed_at": "2025-07-24T01:16:02.685712",
  "title": "2,3,4,5-Tetrachloronitrobenzene",
  "sections": {
    "general": {
      "agent_name": {
        "original_name": "Agent Name",
        "value": "2,3,4,5-Tetrachloronitrobenzene",
        "links": [],
        "cross_references": [
          {
            "type": "name_match",
            "text": "benzene",
            "confidence": 1.0,
            "uuid": "b05124de-5f34-4c14-8f04-ccb20c3780d9",
            "name": "Benzene",
            "url": "https://haz-map.com/Agents/5",
            "category": "agents"
          },
          {
            "type": "name_match",
            "text": "nitrobenzene",
            "confidence": 1.0,
            "uuid": "4488262c-4790-4774-a462-bf0cc71ff40c",
            "name": "Nitrobenzene",
            "url": "https://haz-map.com/Agents/569",
            "category": "agents"
          },
          {
            "type": "name_match",
            "text": "2,3,4,5-tetrachloronitrobenzene",
            "confidence": 1.0,
            "uuid": "72fe59ff-be54-45be-a89f-eb29823e8166",
            "name": "2,3,4,5-Tetrachloronitrobenzene",
            "url": "https://haz-map.com/Agents/2945",
            "category": "agents"
          }
        ]
      },
      "cas_number": {
        "original_name": "CAS Number",
        "value": "879-39-0",
        "links": [],
        "cross_references": []
      },
      "formula": {
        "original_name": "Formula",
        "value": "C6-H-Cl4-N-O2",
        "links": [],
        "cross_references": []
      },
      "major_category": {
        "original_name": "Major Category",
        "value": "Nitrogen Compounds",
        "links": [],
        "cross_references": [
          {
            "type": "name_match",
            "text": "nitrogen",
            "confidence": 1.0,
            "uuid": "db5e90a9-06d2-45b9-8b81-f345a89b0bc0",
            "name": "Nitrogen",
            "url": "https://haz-map.com/Agents/1072",
            "category": "agents"
          }
        ]
      },
      "synonyms": {
        "original_name": "Synonyms",
        "value": "1,2,3,4-Tetrachloro-5-nitrobenzene; 1-Nitro-2,3,4,5-tetrachlorobenzene; 2,3,4,5-Tetrachloro-1-nitrobenzene; Benzene, 1,2,3,4-tetrachloro-5-nitro-; Benzene, 5-nitro-1,2,3,4-tetrachloro-; DB-905; Folosan DB-905 fumite; TCBN; [ChemIDplus]",
        "links": [],
        "cross_references": [
          {
            "type": "name_match",
            "text": "benzene",
            "confidence": 1.0,
            "uuid": "b05124de-5f34-4c14-8f04-ccb20c3780d9",
            "name": "Benzene",
            "url": "https://haz-map.com/Agents/5",
            "category": "agents"
          },
          {
            "type": "name_match",
            "text": "chlorobenzene",
            "confidence": 1.0,
            "uuid": "7e598eca-f35d-493c-aa78-93bb67744c4c",
            "name": "Chlorobenzene",
            "url": "https://haz-map.com/Agents/85",
            "category": "agents"
          },
          {
            "type": "name_match",
            "text": "nitrobenzene",
            "confidence": 1.0,
            "uuid": "4488262c-4790-4774-a462-bf0cc71ff40c",
            "name": "Nitrobenzene",
            "url": "https://haz-map.com/Agents/569",
            "category": "agents"
          },
          {
            "type": "name_match",
            "text": "tetrachlorobenzene",
            "confidence": 1.0,
            "uuid": "701f600c-c6da-4dcd-89fd-4fa91ea6938e",
            "name": "Tetrachlorobenzene",
            "url": "https://haz-map.com/Agents/19835",
            "category": "agents"
          },
          {
            "type": "fuzzy_match",
            "text": "5-tetrachlorobenzene",
            "matched_name": "1,2,4,5-Tetrachlorobenzene",
            "confidence": 0.7669683257918551,
            "uuid": "1f7f5834-196a-49da-b6f7-54a1b43003f1",
            "category": "agents",
            "url": "https://haz-map.com/Agents/1580"
          },
          {
            "type": "fuzzy_match",
            "text": "5-tetrachlorobenzene",
            "matched_name": "1,2,3,5-Tetrachlorobenzene",
            "confidence": 0.7669683257918551,
            "uuid": "ed987ae3-d79b-499d-8137-8c1bc4d2f4fe",
            "category": "agents",
            "url": "https://haz-map.com/Agents/2721"
          }
        ]
      },
      "category": {
        "original_name": "Category",
        "value": "Nitros, Aromatic",
        "links": [],
        "cross_references": []
      },
      "description": {
        "original_name": "Description",
        "value": "Pale yellow solid; [CAMEO]",
        "links": [],
        "cross_references": []
      },
      "sourcesuses": {
        "original_name": "Sources/Uses",
        "value": "Used in organic synthesis, including anthraquinone vat dyes; Also used in UV oxidation, stabilizers for plastics, and experimental antineoplastic drugs; [HSDB]",
        "links": [],
        "cross_references": [
          {
            "type": "name_match",
            "text": "quinone",
            "confidence": 1.0,
            "uuid": "d01e66c3-ad06-4707-8d42-3c6655001c1a",
            "name": "Quinone",
            "url": "https://haz-map.com/Agents/303",
            "category": "agents"
          },
          {
            "type": "name_match",
            "text": "anthraquinone",
            "confidence": 1.0,
            "uuid": "953f43e3-2275-41f0-9f8e-f5764f83b717",
            "name": "Anthraquinone",
            "url": "https://haz-map.com/Agents/3713",
            "category": "agents"
          }
        ]
      },
      "comments": {
        "original_name": "Comments",
        "value": "A tumorigen; [RTECS] An irritant; [MSDSonline]",
        "links": [],
        "cross_references": []
      },
      "biomedical_references": {
        "original_name": "Biomedical References",
        "value": "Search PubMed",
        "links": [
          {
            "text": "Search PubMed",
            "url": "https://www.ncbi.nlm.nih.gov/pubmed?term=2%2c3%2c4%2c5-Tetrachloronitrobenzene%20AND%20human%5Bmh%5D%20AND%20%28Occupational%20Diseases%20%5Bmh%5D%20OR%20Occupational%20Exposure%20%5Bmh%5D%29%20%20AND%20%28tox%5Bsb%5D%29&cmd=search"
          }
        ],
        "cross_references": []
      }
    },
    "exposure_assessment": {
      "vapor_pressure": {
        "original_name": "Vapor Pressure",
        "value": "0.000138 mm Hg",
        "links": [],
        "cross_references": []
      }
    },
    "diseases_processes_and_activities_linked_to_this_agent": {
      "other_information": {
        "original_name": "Other Information",
        "value": "No other related information on this agent was found.",
        "links": [],
        "cross_references": []
      }
    }
  },
  "cross_references": [
    {
      "type": "name_match",
      "text": "benzene",
      "confidence": 1.0,
      "uuid": "b05124de-5f34-4c14-8f04-ccb20c3780d9",
      "name": "Benzene",
      "url": "https://haz-map.com/Agents/5",
      "category": "agents"
    },
    {
      "type": "name_match",
      "text": "chlorobenzene",
      "confidence": 1.0,
      "uuid": "7e598eca-f35d-493c-aa78-93bb67744c4c",
      "name": "Chlorobenzene",
      "url": "https://haz-map.com/Agents/85",
      "category": "agents"
    },
    {
      "type": "name_match",
      "text": "quinone",
      "confidence": 1.0,
      "uuid": "d01e66c3-ad06-4707-8d42-3c6655001c1a",
      "name": "Quinone",
      "url": "https://haz-map.com/Agents/303",
      "category": "agents"
    },
    {
      "type": "name_match",
      "text": "nitrobenzene",
      "confidence": 1.0,
      "uuid": "4488262c-4790-4774-a462-bf0cc71ff40c",
      "name": "Nitrobenzene",
      "url": "https://haz-map.com/Agents/569",
      "category": "agents"
    },
    {
      "type": "name_match",
      "text": "nitrogen",
      "confidence": 1.0,
      "uuid": "db5e90a9-06d2-45b9-8b81-f345a89b0bc0",
      "name": "Nitrogen",
      "url": "https://haz-map.com/Agents/1072",
      "category": "agents"
    },
    {
      "type": "name_match",
      "text": "2,3,4,5-tetrachloronitrobenzene",
      "confidence": 1.0,
      "uuid": "72fe59ff-be54-45be-a89f-eb29823e8166",
      "name": "2,3,4,5-Tetrachloronitrobenzene",
      "url": "https://haz-map.com/Agents/2945",
      "category": "agents"
    },
    {
      "type": "name_match",
      "text": "anthraquinone",
      "confidence": 1.0,
      "uuid": "953f43e3-2275-41f0-9f8e-f5764f83b717",
      "name": "Anthraquinone",
      "url": "https://haz-map.com/Agents/3713",
      "category": "agents"
    },
    {
      "type": "name_match",
      "text": "tetrachlorobenzene",
      "confidence": 1.0,
      "uuid": "701f600c-c6da-4dcd-89fd-4fa91ea6938e",
      "name": "Tetrachlorobenzene",
      "url": "https://haz-map.com/Agents/19835",
      "category": "agents"
    },
    {
      "type": "fuzzy_match",
      "text": "5-tetrachlorobenzene",
      "matched_name": "1,2,4,5-Tetrachlorobenzene",
      "confidence": 0.7669683257918551,
      "uuid": "1f7f5834-196a-49da-b6f7-54a1b43003f1",
      "category": "agents",
      "url": "https://haz-map.com/Agents/1580"
    },
    {
      "type": "fuzzy_match",
      "text": "5-tetrachlorobenzene",
      "matched_name": "1,2,3,5-Tetrachlorobenzene",
      "confidence": 0.7669683257918551,
      "uuid": "ed987ae3-d79b-499d-8137-8c1bc4d2f4fe",
      "category": "agents",
      "url": "https://haz-map.com/Agents/2721"
    }
  ],
  "all_links": [
    {
      "text": "Search PubMed",
      "url": "https://www.ncbi.nlm.nih.gov/pubmed?term=2%2c3%2c4%2c5-Tetrachloronitrobenzene%20AND%20human%5Bmh%5D%20AND%20%28Occupational%20Diseases%20%5Bmh%5D%20OR%20Occupational%20Exposure%20%5Bmh%5D%29%20%20AND%20%28tox%5Bsb%5D%29&cmd=search"
    }
  ]
}