{
  "metadata": {
    "scraped_from": "https://haz-map.com/Agents/2199",
    "entity_name": "Selenium oxychloride",
    "category": "agents",
    "uuid": "7302aba7-5320-47c5-b542-80d1039a28f5",
    "scraped_at": "2025-07-23T19:12:03.795730"
  },
  "parsed_at": "2025-07-24T01:04:44.512354",
  "title": "Selenium oxychloride",
  "sections": {
    "general": {
      "agent_name": {
        "original_name": "Agent Name",
        "value": "Selenium oxychloride",
        "links": [],
        "cross_references": [
          {
            "type": "name_match",
            "text": "selenium",
            "confidence": 1.0,
            "uuid": "88c3436b-5c9d-4005-a842-a4b848085647",
            "name": "Selenium",
            "url": "https://haz-map.com/Agents/66",
            "category": "agents"
          },
          {
            "type": "name_match",
            "text": "selenium oxychloride",
            "confidence": 1.0,
            "uuid": "7302aba7-5320-47c5-b542-80d1039a28f5",
            "name": "Selenium oxychloride",
            "url": "https://haz-map.com/Agents/2199",
            "category": "agents"
          }
        ]
      },
      "cas_number": {
        "original_name": "CAS Number",
        "value": "7791-23-3",
        "links": [],
        "cross_references": []
      },
      "formula": {
        "original_name": "Formula",
        "value": "Cl2-O-Se",
        "links": [],
        "cross_references": []
      },
      "major_category": {
        "original_name": "Major Category",
        "value": "Other Classes",
        "links": [],
        "cross_references": []
      },
      "synonyms": {
        "original_name": "Synonyms",
        "value": "Seleninyl chloride; Seleninyl dichloride; Selenium chloride oxide; Selenium chloride oxide (SeCl2O); Selenium oxydichloride; [ChemIDplus] UN 2879",
        "links": [],
        "cross_references": [
          {
            "type": "name_match",
            "text": "selenium",
            "confidence": 1.0,
            "uuid": "88c3436b-5c9d-4005-a842-a4b848085647",
            "name": "Selenium",
            "url": "https://haz-map.com/Agents/66",
            "category": "agents"
          },
          {
            "type": "name_match",
            "text": "selenium chloride",
            "confidence": 1.0,
            "uuid": "7a55b024-d80b-4d74-bbf7-96172343032d",
            "name": "Selenium chloride",
            "url": "https://haz-map.com/Agents/9322",
            "category": "agents"
          }
        ]
      },
      "category": {
        "original_name": "Category",
        "value": "Other Inorganic Compounds",
        "links": [],
        "cross_references": [
          {
            "type": "fuzzy_match",
            "text": "organic compounds",
            "matched_name": "Tin, organic compounds",
            "confidence": 0.8196969696969697,
            "uuid": "e027d413-8869-4308-9eb2-27d768b011ea",
            "category": "agents",
            "url": "https://haz-map.com/Agents/656"
          },
          {
            "type": "fuzzy_match",
            "text": "inorganic compounds",
            "matched_name": "Tin and inorganic compounds",
            "confidence": 0.8161375661375662,
            "uuid": "f9a072ab-0fbc-477a-88a2-1389e762d773",
            "category": "agents",
            "url": "https://haz-map.com/Agents/42"
          },
          {
            "type": "fuzzy_match",
            "text": "inorganic compounds",
            "matched_name": "Mercury, inorganic compounds",
            "confidence": 0.7455357142857143,
            "uuid": "4b03e512-ea73-428b-aa40-cfb4b29e3cd6",
            "category": "agents",
            "url": "https://haz-map.com/Agents/1954"
          }
        ]
      },
      "description": {
        "original_name": "Description",
        "value": "Nearly colorless or yellowish liquid. [HSDB]",
        "links": [],
        "cross_references": []
      },
      "sourcesuses": {
        "original_name": "Sources/Uses",
        "value": "Used as a chlorinating agent and plasticizer; Also used as a solvent for sulfur, selenium, tellurium, rubber, Bakelite, gums, resins, celluloid, gelatin, glue, and asphalt; [HSDB]",
        "links": [],
        "cross_references": [
          {
            "type": "name_match",
            "text": "selenium",
            "confidence": 1.0,
            "uuid": "88c3436b-5c9d-4005-a842-a4b848085647",
            "name": "Selenium",
            "url": "https://haz-map.com/Agents/66",
            "category": "agents"
          },
          {
            "type": "name_match",
            "text": "tellurium",
            "confidence": 1.0,
            "uuid": "d017d635-c637-42fc-87e9-dcf280415ff2",
            "name": "Tellurium",
            "url": "https://haz-map.com/Agents/643",
            "category": "agents"
          },
          {
            "type": "name_match",
            "text": "sulfur",
            "confidence": 1.0,
            "uuid": "5aabdef6-71c8-44c8-b762-feaabff50696",
            "name": "Sulfur",
            "url": "https://haz-map.com/Agents/1942",
            "category": "agents"
          },
          {
            "type": "name_match",
            "text": "gelatin",
            "confidence": 1.0,
            "uuid": "1d71ef32-f659-485c-9265-d4bf0fdd3e59",
            "name": "Gelatin",
            "url": "https://haz-map.com/Agents/5410",
            "category": "agents"
          },
          {
            "type": "name_match",
            "text": "chlorin",
            "confidence": 1.0,
            "uuid": "4a566fec-ec7e-42b0-9f14-ec586335e694",
            "name": "Chlorin",
            "url": "https://haz-map.com/Agents/20422",
            "category": "agents"
          }
        ]
      },
      "comments": {
        "original_name": "Comments",
        "value": "Produces HCl and selenious acid on contact with moisture; Can cause severe burns and toxic pneumonitis; [Olson, p. 761] Long-term exposure can result in skin sensitization, liver injury, and damage to the CNS; [ICSC] See \"Selenium.\"",
        "links": [],
        "cross_references": [
          {
            "type": "name_match",
            "text": "burn",
            "confidence": 1.0,
            "uuid": "63665de5-6376-4918-8dbf-4c10c4d63837",
            "name": "burn",
            "url": "https://haz-map.com/Findings/204",
            "category": "findings"
          },
          {
            "type": "name_match",
            "text": "selenium",
            "confidence": 1.0,
            "uuid": "88c3436b-5c9d-4005-a842-a4b848085647",
            "name": "Selenium",
            "url": "https://haz-map.com/Agents/66",
            "category": "agents"
          },
          {
            "type": "name_match",
            "text": "selenious acid",
            "confidence": 1.0,
            "uuid": "3eab8208-34b3-4f6d-bccc-789b430b0fda",
            "name": "Selenious acid",
            "url": "https://haz-map.com/Agents/7009",
            "category": "agents"
          }
        ]
      },
      "biomedical_references": {
        "original_name": "Biomedical References",
        "value": "Search PubMed",
        "links": [
          {
            "text": "Search PubMed",
            "url": "https://www.ncbi.nlm.nih.gov/pubmed?term=Selenium+oxychloride%20AND%20human%5Bmh%5D%20AND%20%28Occupational%20Diseases%20%5Bmh%5D%20OR%20Occupational%20Exposure%20%5Bmh%5D%29%20%20AND%20%28tox%5Bsb%5D%29&cmd=search"
          }
        ],
        "cross_references": []
      }
    },
    "exposure_assessment": {
      "tlv_acgih": {
        "original_name": "TLV (ACGIH)",
        "value": "0.2 mg/m3, as Se",
        "links": [],
        "cross_references": []
      },
      "pel_osha": {
        "original_name": "PEL (OSHA)",
        "value": "0.2 mg/m3, as Se",
        "links": [],
        "cross_references": []
      },
      "mak": {
        "original_name": "MAK",
        "value": "0.02 mg/m3, as Se, inhalable fraction",
        "links": [],
        "cross_references": []
      },
      "idlh_niosh": {
        "original_name": "IDLH (NIOSH)",
        "value": "1 mg/m3, as Se",
        "links": [],
        "cross_references": []
      },
      "vapor_pressure": {
        "original_name": "Vapor Pressure",
        "value": "0.05 mm Hg",
        "links": [],
        "cross_references": []
      }
    },
    "adverse_effects": {
      "skin_sensitizer": {
        "original_name": "Skin Sensitizer",
        "value": "Yes",
        "links": [],
        "cross_references": []
      },
      "toxic_pneumonitis": {
        "original_name": "Toxic Pneumonitis",
        "value": "Yes",
        "links": [],
        "cross_references": []
      },
      "neurotoxin": {
        "original_name": "Neurotoxin",
        "value": "Other CNS neurotoxin",
        "links": [],
        "cross_references": []
      },
      "hepatotoxin": {
        "original_name": "Hepatotoxin",
        "value": "Hepatoxic (a) from occupational exposure (secondary effect) or (b) in animal studies or in humans after ingestion",
        "links": [],
        "cross_references": []
      },
      "reproductive_toxin": {
        "original_name": "Reproductive Toxin",
        "value": "Yes",
        "links": [],
        "cross_references": []
      },
      "dermatotoxin": {
        "original_name": "Dermatotoxin",
        "value": "Skin burns",
        "links": [],
        "cross_references": [
          {
            "type": "name_match",
            "text": "burn",
            "confidence": 1.0,
            "uuid": "63665de5-6376-4918-8dbf-4c10c4d63837",
            "name": "burn",
            "url": "https://haz-map.com/Findings/204",
            "category": "findings"
          }
        ]
      }
    },
    "diseases_processes_and_activities_linked_to_this_agent": {
      "diseases": {
        "original_name": "Diseases",
        "value": "Occupational diseases associated with exposure to this agent: Contact dermatitis, allergic",
        "links": [
          {
            "text": "Contact dermatitis, allergic",
            "url": "https://haz-map.com/Diseases/18"
          }
        ],
        "cross_references": [
          {
            "type": "url_match",
            "text": "Contact dermatitis, allergic",
            "url": "https://haz-map.com/Diseases/18",
            "confidence": 1.0,
            "uuid": "c9499de0-9aa1-41bf-8753-cd5b28a63e29",
            "name": "Contact dermatitis, allergic",
            "category": "diseases"
          },
          {
            "type": "name_match",
            "text": "dermatitis",
            "confidence": 1.0,
            "uuid": "fe9c05f2-b19f-4ceb-ac7a-ffb7d7a0cae0",
            "name": "dermatitis",
            "url": "https://haz-map.com/Findings/59",
            "category": "findings"
          }
        ]
      }
    }
  },
  "cross_references": [
    {
      "type": "url_match",
      "text": "Contact dermatitis, allergic",
      "url": "https://haz-map.com/Diseases/18",
      "confidence": 1.0,
      "uuid": "c9499de0-9aa1-41bf-8753-cd5b28a63e29",
      "name": "Contact dermatitis, allergic",
      "category": "diseases"
    },
    {
      "type": "name_match",
      "text": "dermatitis",
      "confidence": 1.0,
      "uuid": "fe9c05f2-b19f-4ceb-ac7a-ffb7d7a0cae0",
      "name": "dermatitis",
      "url": "https://haz-map.com/Findings/59",
      "category": "findings"
    },
    {
      "type": "name_match",
      "text": "burn",
      "confidence": 1.0,
      "uuid": "63665de5-6376-4918-8dbf-4c10c4d63837",
      "name": "burn",
      "url": "https://haz-map.com/Findings/204",
      "category": "findings"
    },
    {
      "type": "name_match",
      "text": "selenium",
      "confidence": 1.0,
      "uuid": "88c3436b-5c9d-4005-a842-a4b848085647",
      "name": "Selenium",
      "url": "https://haz-map.com/Agents/66",
      "category": "agents"
    },
    {
      "type": "name_match",
      "text": "tellurium",
      "confidence": 1.0,
      "uuid": "d017d635-c637-42fc-87e9-dcf280415ff2",
      "name": "Tellurium",
      "url": "https://haz-map.com/Agents/643",
      "category": "agents"
    },
    {
      "type": "name_match",
      "text": "sulfur",
      "confidence": 1.0,
      "uuid": "5aabdef6-71c8-44c8-b762-feaabff50696",
      "name": "Sulfur",
      "url": "https://haz-map.com/Agents/1942",
      "category": "agents"
    },
    {
      "type": "name_match",
      "text": "selenium oxychloride",
      "confidence": 1.0,
      "uuid": "7302aba7-5320-47c5-b542-80d1039a28f5",
      "name": "Selenium oxychloride",
      "url": "https://haz-map.com/Agents/2199",
      "category": "agents"
    },
    {
      "type": "name_match",
      "text": "gelatin",
      "confidence": 1.0,
      "uuid": "1d71ef32-f659-485c-9265-d4bf0fdd3e59",
      "name": "Gelatin",
      "url": "https://haz-map.com/Agents/5410",
      "category": "agents"
    },
    {
      "type": "name_match",
      "text": "selenious acid",
      "confidence": 1.0,
      "uuid": "3eab8208-34b3-4f6d-bccc-789b430b0fda",
      "name": "Selenious acid",
      "url": "https://haz-map.com/Agents/7009",
      "category": "agents"
    },
    {
      "type": "name_match",
      "text": "selenium chloride",
      "confidence": 1.0,
      "uuid": "7a55b024-d80b-4d74-bbf7-96172343032d",
      "name": "Selenium chloride",
      "url": "https://haz-map.com/Agents/9322",
      "category": "agents"
    },
    {
      "type": "name_match",
      "text": "chlorin",
      "confidence": 1.0,
      "uuid": "4a566fec-ec7e-42b0-9f14-ec586335e694",
      "name": "Chlorin",
      "url": "https://haz-map.com/Agents/20422",
      "category": "agents"
    },
    {
      "type": "fuzzy_match",
      "text": "organic compounds",
      "matched_name": "Tin, organic compounds",
      "confidence": 0.8196969696969697,
      "uuid": "e027d413-8869-4308-9eb2-27d768b011ea",
      "category": "agents",
      "url": "https://haz-map.com/Agents/656"
    },
    {
      "type": "fuzzy_match",
      "text": "inorganic compounds",
      "matched_name": "Tin and inorganic compounds",
      "confidence": 0.8161375661375662,
      "uuid": "f9a072ab-0fbc-477a-88a2-1389e762d773",
      "category": "agents",
      "url": "https://haz-map.com/Agents/42"
    },
    {
      "type": "fuzzy_match",
      "text": "inorganic compounds",
      "matched_name": "Mercury, inorganic compounds",
      "confidence": 0.7455357142857143,
      "uuid": "4b03e512-ea73-428b-aa40-cfb4b29e3cd6",
      "category": "agents",
      "url": "https://haz-map.com/Agents/1954"
    }
  ],
  "all_links": [
    {
      "text": "Search PubMed",
      "url": "https://www.ncbi.nlm.nih.gov/pubmed?term=Selenium+oxychloride%20AND%20human%5Bmh%5D%20AND%20%28Occupational%20Diseases%20%5Bmh%5D%20OR%20Occupational%20Exposure%20%5Bmh%5D%29%20%20AND%20%28tox%5Bsb%5D%29&cmd=search"
    },
    {
      "text": "Contact dermatitis, allergic",
      "url": "https://haz-map.com/Diseases/18"
    }
  ]
}