{
  "metadata": {
    "scraped_from": "https://haz-map.com/Agents/20614",
    "entity_name": "Dimethyl octynediol",
    "category": "agents",
    "uuid": "733414d2-24f6-4cfb-8d54-0e4ed1777ad7",
    "scraped_at": "2025-07-23T22:28:33.300807"
  },
  "parsed_at": "2025-07-24T00:55:32.887303",
  "title": "Dimethyl octynediol",
  "sections": {
    "general": {
      "agent_name": {
        "original_name": "Agent Name",
        "value": "Dimethyl octynediol",
        "links": [],
        "cross_references": [
          {
            "type": "name_match",
            "text": "dimethyl octynediol",
            "confidence": 1.0,
            "uuid": "733414d2-24f6-4cfb-8d54-0e4ed1777ad7",
            "name": "Dimethyl octynediol",
            "url": "https://haz-map.com/Agents/20614",
            "category": "agents"
          }
        ]
      },
      "cas_number": {
        "original_name": "CAS Number",
        "value": "1321-87-5",
        "links": [],
        "cross_references": []
      },
      "formula": {
        "original_name": "Formula",
        "value": "C10-H18-O2",
        "links": [],
        "cross_references": []
      },
      "major_category": {
        "original_name": "Major Category",
        "value": "Other Classes",
        "links": [],
        "cross_references": []
      },
      "category": {
        "original_name": "Category",
        "value": "Alcohols and Polyols, Other",
        "links": [],
        "cross_references": []
      },
      "comments": {
        "original_name": "Comments",
        "value": "See \"1,2-Octanediol.\"",
        "links": [],
        "cross_references": [
          {
            "type": "name_match",
            "text": "octane",
            "confidence": 1.0,
            "uuid": "feb2932c-69c5-4142-b6b6-bde017998940",
            "name": "Octane",
            "url": "https://haz-map.com/Agents/106",
            "category": "agents"
          },
          {
            "type": "name_match",
            "text": "1,2-octanediol",
            "confidence": 1.0,
            "uuid": "c8eb2c5f-27c1-4bbb-863c-d5d7038fdf12",
            "name": "1,2-Octanediol",
            "url": "https://haz-map.com/Agents/19220",
            "category": "agents"
          }
        ]
      },
      "biomedical_references": {
        "original_name": "Biomedical References",
        "value": "Search PubMed",
        "links": [
          {
            "text": "Search PubMed",
            "url": "https://www.ncbi.nlm.nih.gov/pubmed?term=Dimethyl+octynediol%20AND%20human%5Bmh%5D%20AND%20%28Occupational%20Diseases%20%5Bmh%5D%20OR%20Occupational%20Exposure%20%5Bmh%5D%29%20%20AND%20%28tox%5Bsb%5D%29&cmd=search"
          }
        ],
        "cross_references": []
      }
    },
    "exposure_assessment": {
      "vapor_pressure": {
        "original_name": "Vapor Pressure",
        "value": "0.000971 mm Hg",
        "links": [],
        "cross_references": []
      }
    },
    "diseases_processes_and_activities_linked_to_this_agent": {
      "other_information": {
        "original_name": "Other Information",
        "value": "No other related information on this agent was found.",
        "links": [],
        "cross_references": []
      }
    }
  },
  "cross_references": [
    {
      "type": "name_match",
      "text": "octane",
      "confidence": 1.0,
      "uuid": "feb2932c-69c5-4142-b6b6-bde017998940",
      "name": "Octane",
      "url": "https://haz-map.com/Agents/106",
      "category": "agents"
    },
    {
      "type": "name_match",
      "text": "1,2-octanediol",
      "confidence": 1.0,
      "uuid": "c8eb2c5f-27c1-4bbb-863c-d5d7038fdf12",
      "name": "1,2-Octanediol",
      "url": "https://haz-map.com/Agents/19220",
      "category": "agents"
    },
    {
      "type": "name_match",
      "text": "dimethyl octynediol",
      "confidence": 1.0,
      "uuid": "733414d2-24f6-4cfb-8d54-0e4ed1777ad7",
      "name": "Dimethyl octynediol",
      "url": "https://haz-map.com/Agents/20614",
      "category": "agents"
    }
  ],
  "all_links": [
    {
      "text": "Search PubMed",
      "url": "https://www.ncbi.nlm.nih.gov/pubmed?term=Dimethyl+octynediol%20AND%20human%5Bmh%5D%20AND%20%28Occupational%20Diseases%20%5Bmh%5D%20OR%20Occupational%20Exposure%20%5Bmh%5D%29%20%20AND%20%28tox%5Bsb%5D%29&cmd=search"
    }
  ]
}