{
  "metadata": {
    "scraped_from": "https://haz-map.com/Agents/3390",
    "entity_name": "Acetanilide",
    "category": "agents",
    "uuid": "73a5c68d-8466-44fa-a773-12d44f7b1458",
    "scraped_at": "2025-07-23T19:28:35.545587"
  },
  "parsed_at": "2025-07-24T01:06:13.528163",
  "title": "Acetanilide",
  "sections": {
    "general": {
      "agent_name": {
        "original_name": "Agent Name",
        "value": "Acetanilide",
        "links": [],
        "cross_references": [
          {
            "type": "name_match",
            "text": "acetanilide",
            "confidence": 1.0,
            "uuid": "73a5c68d-8466-44fa-a773-12d44f7b1458",
            "name": "Acetanilide",
            "url": "https://haz-map.com/Agents/3390",
            "category": "agents"
          }
        ]
      },
      "cas_number": {
        "original_name": "CAS Number",
        "value": "103-84-4",
        "links": [],
        "cross_references": []
      },
      "formula": {
        "original_name": "Formula",
        "value": "C8-H9-N-O",
        "links": [],
        "cross_references": []
      },
      "major_category": {
        "original_name": "Major Category",
        "value": "Nitrogen Compounds",
        "links": [],
        "cross_references": [
          {
            "type": "name_match",
            "text": "nitrogen",
            "confidence": 1.0,
            "uuid": "db5e90a9-06d2-45b9-8b81-f345a89b0bc0",
            "name": "Nitrogen",
            "url": "https://haz-map.com/Agents/1072",
            "category": "agents"
          }
        ]
      },
      "synonyms": {
        "original_name": "Synonyms",
        "value": "AN; Acetamide, N-phenyl-; Acetamidobenzene; Acetanil; Acetanilid; Acetic acid amide, N-phenyl-; Acetic acid anilide; Acetoanilide; Acetylaminobenzene; Acetylaniline; Aniline, N-acetyl-; Antifebrin; Benzenamine, N-acetyl-; N-Acetylaniline; N-Phenylacetamide; Phenalgene; Phenalgin; [ChemIDplus]",
        "links": [],
        "cross_references": [
          {
            "type": "name_match",
            "text": "benzene",
            "confidence": 1.0,
            "uuid": "b05124de-5f34-4c14-8f04-ccb20c3780d9",
            "name": "Benzene",
            "url": "https://haz-map.com/Agents/5",
            "category": "agents"
          },
          {
            "type": "name_match",
            "text": "acetic acid",
            "confidence": 1.0,
            "uuid": "0905c6e4-df84-4895-a92d-658819239bbd",
            "name": "Acetic acid",
            "url": "https://haz-map.com/Agents/207",
            "category": "agents"
          },
          {
            "type": "name_match",
            "text": "aniline",
            "confidence": 1.0,
            "uuid": "e4932692-8d9c-4a98-8c5c-81e55b12aedf",
            "name": "Aniline",
            "url": "https://haz-map.com/Agents/296",
            "category": "agents"
          },
          {
            "type": "name_match",
            "text": "acetamide",
            "confidence": 1.0,
            "uuid": "dd8ffc77-2f5f-4c87-8995-3206d6c9affc",
            "name": "Acetamide",
            "url": "https://haz-map.com/Agents/3385",
            "category": "agents"
          },
          {
            "type": "name_match",
            "text": "algin",
            "confidence": 1.0,
            "uuid": "404409f8-6c0a-47dd-bd0b-831d8304d1e5",
            "name": "Algin",
            "url": "https://haz-map.com/Agents/3555",
            "category": "agents"
          }
        ]
      },
      "category": {
        "original_name": "Category",
        "value": "Other Aromatics (Nitrogen)",
        "links": [],
        "cross_references": [
          {
            "type": "name_match",
            "text": "nitrogen",
            "confidence": 1.0,
            "uuid": "db5e90a9-06d2-45b9-8b81-f345a89b0bc0",
            "name": "Nitrogen",
            "url": "https://haz-map.com/Agents/1072",
            "category": "agents"
          }
        ]
      },
      "description": {
        "original_name": "Description",
        "value": "White odorless solid; [Hawley] White to gray solid; Sensitive to prolonged contact with air; [CAMEO] Off-white chips; [Alfa Aesar MSDS]",
        "links": [],
        "cross_references": []
      },
      "sourcesuses": {
        "original_name": "Sources/Uses",
        "value": "Used in the manufacture of camphor, penicillin, sulfa drugs, and dyes; Also used as a stabilizer for hydrogen peroxide, an additive to cellulose ester varnishes, a rubber accelerator, an antiseptic, a plasticizer, and a veterinary analgesic and antipyretic agent; [HSDB]",
        "links": [],
        "cross_references": [
          {
            "type": "name_match",
            "text": "cellulose",
            "confidence": 1.0,
            "uuid": "b9b1b190-806c-4622-8201-8f09b0a87eca",
            "name": "Cellulose",
            "url": "https://haz-map.com/Agents/347",
            "category": "agents"
          },
          {
            "type": "name_match",
            "text": "hydrogen peroxide",
            "confidence": 1.0,
            "uuid": "7bb77192-848e-464d-b9bf-df9eaa7f36d2",
            "name": "Hydrogen peroxide",
            "url": "https://haz-map.com/Agents/515",
            "category": "agents"
          },
          {
            "type": "name_match",
            "text": "hydrogen",
            "confidence": 1.0,
            "uuid": "e2d9645f-5559-4d88-b820-fc4710c154f2",
            "name": "Hydrogen",
            "url": "https://haz-map.com/Agents/1070",
            "category": "agents"
          },
          {
            "type": "name_match",
            "text": "penicillin",
            "confidence": 1.0,
            "uuid": "b224d4d5-7bcd-4a40-b1a6-93fb3292b0ef",
            "name": "Penicillin",
            "url": "https://haz-map.com/Agents/1299",
            "category": "agents"
          }
        ]
      },
      "comments": {
        "original_name": "Comments",
        "value": "Heavy or repeated exposure may produce methemoglobinemia, CNS depression, circulatory collapse, and contact dermatitis in humans; Causes methemoglobinemia in high-dose animal studies; Mutagenic in micronucleus assay with mice; Emergency treatment: \"Phenacetin\"; Phenacetin was used as a pain-relieving drug, but has not been available in the US since 1983. Can cause methemoglobinemia after ingestion >1 gram/day; Phenacetin can cause renal papillary necrosis following ingestion of large doses for years; [HSDB] An irritant; May cause contact dermatitis, eczematous skin eruptions, anemia, and cyanosis; [CAMEO] An allergen; May cause eczematous dermatitis, methemoglobinemia, and cyanosis; [EPA OHM/TADS] Causes acute tubular necrosis and methemoglobinemia in oral toxic-dose exposures in humans; [RTECS] An irritant; May cause serious eye injury; Harmful if swallowed; [Aldrich MSDS]",
        "links": [],
        "cross_references": [
          {
            "type": "name_match",
            "text": "anemia",
            "confidence": 1.0,
            "uuid": "be5db7c0-2652-4940-a3d9-d0afb3e2b182",
            "name": "anemia",
            "url": "https://haz-map.com/Findings/54",
            "category": "findings"
          },
          {
            "type": "name_match",
            "text": "dermatitis",
            "confidence": 1.0,
            "uuid": "fe9c05f2-b19f-4ceb-ac7a-ffb7d7a0cae0",
            "name": "dermatitis",
            "url": "https://haz-map.com/Findings/59",
            "category": "findings"
          },
          {
            "type": "name_match",
            "text": "methemoglobin",
            "confidence": 1.0,
            "uuid": "afb7ebf5-d2a3-4e60-8d2e-3a19456344ee",
            "name": "Methemoglobin",
            "url": "https://haz-map.com/Agents/15467",
            "category": "agents"
          },
          {
            "type": "fuzzy_match",
            "text": "contact dermatitis",
            "matched_name": "Contact dermatitis, allergic",
            "confidence": 0.7214285714285715,
            "uuid": "c9499de0-9aa1-41bf-8753-cd5b28a63e29",
            "category": "diseases",
            "url": "https://haz-map.com/Diseases/18"
          },
          {
            "type": "fuzzy_match",
            "text": "methemoglobinemia",
            "matched_name": "Methemoglobinemia, acute",
            "confidence": 0.7208333333333333,
            "uuid": "473a44bd-cf11-4710-a769-e8e2b25ba317",
            "category": "diseases",
            "url": "https://haz-map.com/Diseases/210"
          }
        ]
      },
      "biomedical_references": {
        "original_name": "Biomedical References",
        "value": "Search PubMed",
        "links": [
          {
            "text": "Search PubMed",
            "url": "https://www.ncbi.nlm.nih.gov/pubmed?term=Acetanilide%20AND%20human%5Bmh%5D%20AND%20%28Occupational%20Diseases%20%5Bmh%5D%20OR%20Occupational%20Exposure%20%5Bmh%5D%29%20%20AND%20%28tox%5Bsb%5D%29&cmd=search"
          }
        ],
        "cross_references": []
      }
    },
    "exposure_assessment": {
      "vapor_pressure": {
        "original_name": "Vapor Pressure",
        "value": "0.00122 mm Hg",
        "links": [],
        "cross_references": []
      },
      "explanatory_notes": {
        "original_name": "Explanatory Notes",
        "value": "Flash point = 169 deg C; [HSDB]",
        "links": [],
        "cross_references": [
          {
            "type": "name_match",
            "text": "ash",
            "confidence": 1.0,
            "uuid": "68b360f1-5ad0-4337-bea0-d7adca2961b5",
            "name": "Ash",
            "url": "https://haz-map.com/Agents/965",
            "category": "agents"
          }
        ]
      },
      "nfpa": {
        "original_name": "NFPA",
        "value": "must be preheated",
        "links": [],
        "cross_references": []
      }
    },
    "adverse_effects": {
      "skin_sensitizer": {
        "original_name": "Skin Sensitizer",
        "value": "Yes",
        "links": [],
        "cross_references": []
      },
      "methemoglobinemia": {
        "original_name": "Methemoglobinemia",
        "value": "MetHgb is secondary toxic effect",
        "links": [],
        "cross_references": []
      },
      "nephrotoxin": {
        "original_name": "Nephrotoxin",
        "value": "Yes",
        "links": [],
        "cross_references": []
      }
    },
    "diseases_processes_and_activities_linked_to_this_agent": {
      "diseases": {
        "original_name": "Diseases",
        "value": "Occupational diseases associated with exposure to this agent: Contact dermatitis, allergic",
        "links": [
          {
            "text": "Contact dermatitis, allergic",
            "url": "https://haz-map.com/Diseases/18"
          }
        ],
        "cross_references": [
          {
            "type": "url_match",
            "text": "Contact dermatitis, allergic",
            "url": "https://haz-map.com/Diseases/18",
            "confidence": 1.0,
            "uuid": "c9499de0-9aa1-41bf-8753-cd5b28a63e29",
            "name": "Contact dermatitis, allergic",
            "category": "diseases"
          },
          {
            "type": "name_match",
            "text": "dermatitis",
            "confidence": 1.0,
            "uuid": "fe9c05f2-b19f-4ceb-ac7a-ffb7d7a0cae0",
            "name": "dermatitis",
            "url": "https://haz-map.com/Findings/59",
            "category": "findings"
          }
        ]
      },
      "processes": {
        "original_name": "Processes",
        "value": "Industrial Processes with risk of exposure: Painting (Pigments, Binders, and Biocides) Using Disinfectants or Biocides",
        "links": [
          {
            "text": "Painting (Pigments, Binders, and Biocides)",
            "url": "https://haz-map.com/Processes/145"
          },
          {
            "text": "Using Disinfectants or Biocides",
            "url": "https://haz-map.com/Processes/167"
          }
        ],
        "cross_references": [
          {
            "type": "url_match",
            "text": "Painting (Pigments, Binders, and Biocides)",
            "url": "https://haz-map.com/Processes/145",
            "confidence": 1.0,
            "uuid": "25867878-e178-4c21-906f-d392d86b76de",
            "name": "Painting (Pigments, Binders, and Biocides)",
            "category": "processes"
          },
          {
            "type": "url_match",
            "text": "Using Disinfectants or Biocides",
            "url": "https://haz-map.com/Processes/167",
            "confidence": 1.0,
            "uuid": "7accb745-ad60-4ef8-9039-8ac4febb8fd8",
            "name": "Using Disinfectants or Biocides",
            "category": "processes"
          },
          {
            "type": "name_match",
            "text": "painting",
            "confidence": 1.0,
            "uuid": "19816ce9-9edf-4a86-8e64-b0cbf7dcf520",
            "name": "Painting",
            "url": "https://haz-map.com/Activities/9",
            "category": "activities"
          }
        ]
      }
    }
  },
  "cross_references": [
    {
      "type": "url_match",
      "text": "Contact dermatitis, allergic",
      "url": "https://haz-map.com/Diseases/18",
      "confidence": 1.0,
      "uuid": "c9499de0-9aa1-41bf-8753-cd5b28a63e29",
      "name": "Contact dermatitis, allergic",
      "category": "diseases"
    },
    {
      "type": "url_match",
      "text": "Painting (Pigments, Binders, and Biocides)",
      "url": "https://haz-map.com/Processes/145",
      "confidence": 1.0,
      "uuid": "25867878-e178-4c21-906f-d392d86b76de",
      "name": "Painting (Pigments, Binders, and Biocides)",
      "category": "processes"
    },
    {
      "type": "url_match",
      "text": "Using Disinfectants or Biocides",
      "url": "https://haz-map.com/Processes/167",
      "confidence": 1.0,
      "uuid": "7accb745-ad60-4ef8-9039-8ac4febb8fd8",
      "name": "Using Disinfectants or Biocides",
      "category": "processes"
    },
    {
      "type": "name_match",
      "text": "painting",
      "confidence": 1.0,
      "uuid": "19816ce9-9edf-4a86-8e64-b0cbf7dcf520",
      "name": "Painting",
      "url": "https://haz-map.com/Activities/9",
      "category": "activities"
    },
    {
      "type": "name_match",
      "text": "anemia",
      "confidence": 1.0,
      "uuid": "be5db7c0-2652-4940-a3d9-d0afb3e2b182",
      "name": "anemia",
      "url": "https://haz-map.com/Findings/54",
      "category": "findings"
    },
    {
      "type": "name_match",
      "text": "dermatitis",
      "confidence": 1.0,
      "uuid": "fe9c05f2-b19f-4ceb-ac7a-ffb7d7a0cae0",
      "name": "dermatitis",
      "url": "https://haz-map.com/Findings/59",
      "category": "findings"
    },
    {
      "type": "name_match",
      "text": "benzene",
      "confidence": 1.0,
      "uuid": "b05124de-5f34-4c14-8f04-ccb20c3780d9",
      "name": "Benzene",
      "url": "https://haz-map.com/Agents/5",
      "category": "agents"
    },
    {
      "type": "name_match",
      "text": "acetic acid",
      "confidence": 1.0,
      "uuid": "0905c6e4-df84-4895-a92d-658819239bbd",
      "name": "Acetic acid",
      "url": "https://haz-map.com/Agents/207",
      "category": "agents"
    },
    {
      "type": "name_match",
      "text": "aniline",
      "confidence": 1.0,
      "uuid": "e4932692-8d9c-4a98-8c5c-81e55b12aedf",
      "name": "Aniline",
      "url": "https://haz-map.com/Agents/296",
      "category": "agents"
    },
    {
      "type": "name_match",
      "text": "cellulose",
      "confidence": 1.0,
      "uuid": "b9b1b190-806c-4622-8201-8f09b0a87eca",
      "name": "Cellulose",
      "url": "https://haz-map.com/Agents/347",
      "category": "agents"
    },
    {
      "type": "name_match",
      "text": "hydrogen peroxide",
      "confidence": 1.0,
      "uuid": "7bb77192-848e-464d-b9bf-df9eaa7f36d2",
      "name": "Hydrogen peroxide",
      "url": "https://haz-map.com/Agents/515",
      "category": "agents"
    },
    {
      "type": "name_match",
      "text": "ash",
      "confidence": 1.0,
      "uuid": "68b360f1-5ad0-4337-bea0-d7adca2961b5",
      "name": "Ash",
      "url": "https://haz-map.com/Agents/965",
      "category": "agents"
    },
    {
      "type": "name_match",
      "text": "hydrogen",
      "confidence": 1.0,
      "uuid": "e2d9645f-5559-4d88-b820-fc4710c154f2",
      "name": "Hydrogen",
      "url": "https://haz-map.com/Agents/1070",
      "category": "agents"
    },
    {
      "type": "name_match",
      "text": "nitrogen",
      "confidence": 1.0,
      "uuid": "db5e90a9-06d2-45b9-8b81-f345a89b0bc0",
      "name": "Nitrogen",
      "url": "https://haz-map.com/Agents/1072",
      "category": "agents"
    },
    {
      "type": "name_match",
      "text": "penicillin",
      "confidence": 1.0,
      "uuid": "b224d4d5-7bcd-4a40-b1a6-93fb3292b0ef",
      "name": "Penicillin",
      "url": "https://haz-map.com/Agents/1299",
      "category": "agents"
    },
    {
      "type": "name_match",
      "text": "acetamide",
      "confidence": 1.0,
      "uuid": "dd8ffc77-2f5f-4c87-8995-3206d6c9affc",
      "name": "Acetamide",
      "url": "https://haz-map.com/Agents/3385",
      "category": "agents"
    },
    {
      "type": "name_match",
      "text": "acetanilide",
      "confidence": 1.0,
      "uuid": "73a5c68d-8466-44fa-a773-12d44f7b1458",
      "name": "Acetanilide",
      "url": "https://haz-map.com/Agents/3390",
      "category": "agents"
    },
    {
      "type": "name_match",
      "text": "algin",
      "confidence": 1.0,
      "uuid": "404409f8-6c0a-47dd-bd0b-831d8304d1e5",
      "name": "Algin",
      "url": "https://haz-map.com/Agents/3555",
      "category": "agents"
    },
    {
      "type": "name_match",
      "text": "methemoglobin",
      "confidence": 1.0,
      "uuid": "afb7ebf5-d2a3-4e60-8d2e-3a19456344ee",
      "name": "Methemoglobin",
      "url": "https://haz-map.com/Agents/15467",
      "category": "agents"
    },
    {
      "type": "fuzzy_match",
      "text": "methemoglobinemia",
      "matched_name": "Methemoglobinemia, acute",
      "confidence": 0.7208333333333333,
      "uuid": "473a44bd-cf11-4710-a769-e8e2b25ba317",
      "category": "diseases",
      "url": "https://haz-map.com/Diseases/210"
    }
  ],
  "all_links": [
    {
      "text": "Search PubMed",
      "url": "https://www.ncbi.nlm.nih.gov/pubmed?term=Acetanilide%20AND%20human%5Bmh%5D%20AND%20%28Occupational%20Diseases%20%5Bmh%5D%20OR%20Occupational%20Exposure%20%5Bmh%5D%29%20%20AND%20%28tox%5Bsb%5D%29&cmd=search"
    },
    {
      "text": "Contact dermatitis, allergic",
      "url": "https://haz-map.com/Diseases/18"
    },
    {
      "text": "Painting (Pigments, Binders, and Biocides)",
      "url": "https://haz-map.com/Processes/145"
    },
    {
      "text": "Using Disinfectants or Biocides",
      "url": "https://haz-map.com/Processes/167"
    }
  ]
}