{
  "metadata": {
    "scraped_from": "https://haz-map.com/Agents/12503",
    "entity_name": "Fuel oil No. 6",
    "category": "agents",
    "uuid": "73b163ce-c09e-4a2d-a8b0-ea30c326d2a9",
    "scraped_at": "2025-07-23T21:08:11.094546"
  },
  "parsed_at": "2025-07-24T01:03:11.488460",
  "title": "Fuel oil No. 6",
  "sections": {
    "general": {
      "agent_name": {
        "original_name": "Agent Name",
        "value": "Fuel oil No. 6",
        "links": [],
        "cross_references": [
          {
            "type": "name_match",
            "text": "fuel oil no. 6",
            "confidence": 1.0,
            "uuid": "73b163ce-c09e-4a2d-a8b0-ea30c326d2a9",
            "name": "Fuel oil No. 6",
            "url": "https://haz-map.com/Agents/12503",
            "category": "agents"
          }
        ]
      },
      "cas_number": {
        "original_name": "CAS Number",
        "value": "68553-00-4",
        "links": [],
        "cross_references": []
      },
      "formula": {
        "original_name": "Formula",
        "value": "Unspecified",
        "links": [],
        "cross_references": []
      },
      "major_category": {
        "original_name": "Major Category",
        "value": "Other Classes",
        "links": [],
        "cross_references": []
      },
      "synonyms": {
        "original_name": "Synonyms",
        "value": "Bunker fuel; Fuel Oil No. 6; No. 6 fuel oil; Fuel No. 6; Fuel No. 6 [Oil, fuel]; Fuel oil, No. 6; [ChemIDplus] Bunker C oil; Fuel oil, [no. 6]; Fuel oils; No. 6; Oils, fuel: no. 6; Residual fuel oil; [CAMEO] Carbon black feedstock; Catalytic cracked slurry oil; Catalytic cracked clarified oil; Aromatic process oil; Aromatic petroleum oil; Secondary plasticizer; Lubricating oil; Fuel Oil; Heavy fuel oil; Heavy fuel oil (low sulphur); Heizol schwer, HS; Olio combustibile, nafta, denso.; Pyrolyseol; Residuo; Residuo da Thermal Cracking; Residuo olio combustibile; [IUCLID] Heavy Fuel oil, No. 6; [EPA ChAMP: Hazard Characterization: Heavy Fuel Oils] Bunker C; Grade 6; [EPA OHM/TADS] Heavy Oil Product (HOP); Six Oil; 6 oil; [Total Petrochemicals MSDS] UN1268",
        "links": [],
        "cross_references": [
          {
            "type": "name_match",
            "text": "carbon black",
            "confidence": 1.0,
            "uuid": "46b67d8f-e6e3-437c-83c9-036b40880f65",
            "name": "Carbon black",
            "url": "https://haz-map.com/Agents/342",
            "category": "agents"
          },
          {
            "type": "name_match",
            "text": "mica",
            "confidence": 1.0,
            "uuid": "433f26f1-c399-4596-b179-ce3843cfd465",
            "name": "Mica",
            "url": "https://haz-map.com/Agents/621",
            "category": "agents"
          },
          {
            "type": "name_match",
            "text": "carbon",
            "confidence": 1.0,
            "uuid": "b53f8815-ee80-40ef-b4aa-3b000e17dab5",
            "name": "Carbon",
            "url": "https://haz-map.com/Agents/1891",
            "category": "agents"
          },
          {
            "type": "name_match",
            "text": "oleum",
            "confidence": 1.0,
            "uuid": "12af84ee-bcf0-416d-9220-7c4c6dc330f1",
            "name": "Oleum",
            "url": "https://haz-map.com/Agents/2227",
            "category": "agents"
          },
          {
            "type": "name_match",
            "text": "fuel oil no. 6",
            "confidence": 1.0,
            "uuid": "73b163ce-c09e-4a2d-a8b0-ea30c326d2a9",
            "name": "Fuel oil No. 6",
            "url": "https://haz-map.com/Agents/12503",
            "category": "agents"
          }
        ]
      },
      "category": {
        "original_name": "Category",
        "value": "Petroleum Distillates, Other",
        "links": [],
        "cross_references": [
          {
            "type": "name_match",
            "text": "oleum",
            "confidence": 1.0,
            "uuid": "12af84ee-bcf0-416d-9220-7c4c6dc330f1",
            "name": "Oleum",
            "url": "https://haz-map.com/Agents/2227",
            "category": "agents"
          }
        ]
      },
      "description": {
        "original_name": "Description",
        "value": "Thick black heated liquid with an odor of tar; mp = -4-13 deg C; [CHRIS] Dark brown liquid with an odor like asphalt; [Total Petrochemicals MSDS]",
        "links": [],
        "cross_references": [
          {
            "type": "name_match",
            "text": "mica",
            "confidence": 1.0,
            "uuid": "433f26f1-c399-4596-b179-ce3843cfd465",
            "name": "Mica",
            "url": "https://haz-map.com/Agents/621",
            "category": "agents"
          }
        ]
      },
      "sourcesuses": {
        "original_name": "Sources/Uses",
        "value": "Permitted for use as an inert ingredient in non-food pesticide products; [EPA] Used in the fuel, chemical, and power industries; Used as a fuel, bitumen for roads, feedstock, and chemical intermediate; [IUCLID]",
        "links": [],
        "cross_references": [
          {
            "type": "name_match",
            "text": "mica",
            "confidence": 1.0,
            "uuid": "433f26f1-c399-4596-b179-ce3843cfd465",
            "name": "Mica",
            "url": "https://haz-map.com/Agents/621",
            "category": "agents"
          }
        ]
      },
      "comments": {
        "original_name": "Comments",
        "value": "TSCA Definition 2008: A distillate oil having a minimum viscosity of 900 SUS at 37.7 deg C to a maximum of 9000 SUS at 37.7 deg C; [ChemIDplus] Causes mild skin and eye irritation in rabbits (classified by the EC as not irritating); Not sensitizing in guinea pig patch tests; Adverse skin effects and histopathological changes of the liver and urinary bladder observed in 10-day dermal study of rabbits; Adverse skin effects and histopathological changes of the liver observed in 10-day dermal study of rats; [IUCLID]A skin and eye irritant; May cause smarting and reddening of the skin if spilled on clothes and remains; [CHRIS] May release hydrogen sulfide gas; May cause irritation; [Total Petrochemicals MSDS]",
        "links": [],
        "cross_references": [
          {
            "type": "name_match",
            "text": "hydrogen sulfide",
            "confidence": 1.0,
            "uuid": "f19cb2ec-fb76-4caf-bf11-33b23fef9ae6",
            "name": "Hydrogen sulfide",
            "url": "https://haz-map.com/Agents/22",
            "category": "agents"
          },
          {
            "type": "name_match",
            "text": "mica",
            "confidence": 1.0,
            "uuid": "433f26f1-c399-4596-b179-ce3843cfd465",
            "name": "Mica",
            "url": "https://haz-map.com/Agents/621",
            "category": "agents"
          },
          {
            "type": "name_match",
            "text": "hydrogen",
            "confidence": 1.0,
            "uuid": "e2d9645f-5559-4d88-b820-fc4710c154f2",
            "name": "Hydrogen",
            "url": "https://haz-map.com/Agents/1070",
            "category": "agents"
          },
          {
            "type": "name_match",
            "text": "dde",
            "confidence": 1.0,
            "uuid": "88506fb4-e7b1-4bde-a283-917057f67fc2",
            "name": "DDE",
            "url": "https://haz-map.com/Agents/4656",
            "category": "agents"
          }
        ]
      },
      "biomedical_references": {
        "original_name": "Biomedical References",
        "value": "Search PubMed",
        "links": [
          {
            "text": "Search PubMed",
            "url": "https://www.ncbi.nlm.nih.gov/pubmed?term=Fuel+oil+No.+6%20AND%20human%5Bmh%5D%20AND%20%28Occupational%20Diseases%20%5Bmh%5D%20OR%20Occupational%20Exposure%20%5Bmh%5D%29%20%20AND%20%28tox%5Bsb%5D%29&cmd=search"
          }
        ],
        "cross_references": []
      }
    },
    "exposure_assessment": {
      "explanatory_notes": {
        "original_name": "Explanatory Notes",
        "value": "Vapor pressure > 3.7 mm Hg at 20 deg C; [IUCLID] The Guide in the Emergency Response Guidebook is for \"Petroleum distillates, n.o.s.\"",
        "links": [],
        "cross_references": [
          {
            "type": "name_match",
            "text": "oleum",
            "confidence": 1.0,
            "uuid": "12af84ee-bcf0-416d-9220-7c4c6dc330f1",
            "name": "Oleum",
            "url": "https://haz-map.com/Agents/2227",
            "category": "agents"
          }
        ]
      },
      "nfpa": {
        "original_name": "NFPA",
        "value": "high ambient temp required",
        "links": [],
        "cross_references": []
      }
    },
    "adverse_effects": {
      "hepatotoxin": {
        "original_name": "Hepatotoxin",
        "value": "Hepatoxic (a) from occupational exposure (secondary effect) or (b) in animal studies or in humans after ingestion",
        "links": [],
        "cross_references": []
      }
    },
    "diseases_processes_and_activities_linked_to_this_agent": {
      "other_information": {
        "original_name": "Other Information",
        "value": "No other related information on this agent was found.",
        "links": [],
        "cross_references": []
      }
    }
  },
  "cross_references": [
    {
      "type": "name_match",
      "text": "hydrogen sulfide",
      "confidence": 1.0,
      "uuid": "f19cb2ec-fb76-4caf-bf11-33b23fef9ae6",
      "name": "Hydrogen sulfide",
      "url": "https://haz-map.com/Agents/22",
      "category": "agents"
    },
    {
      "type": "name_match",
      "text": "carbon black",
      "confidence": 1.0,
      "uuid": "46b67d8f-e6e3-437c-83c9-036b40880f65",
      "name": "Carbon black",
      "url": "https://haz-map.com/Agents/342",
      "category": "agents"
    },
    {
      "type": "name_match",
      "text": "mica",
      "confidence": 1.0,
      "uuid": "433f26f1-c399-4596-b179-ce3843cfd465",
      "name": "Mica",
      "url": "https://haz-map.com/Agents/621",
      "category": "agents"
    },
    {
      "type": "name_match",
      "text": "hydrogen",
      "confidence": 1.0,
      "uuid": "e2d9645f-5559-4d88-b820-fc4710c154f2",
      "name": "Hydrogen",
      "url": "https://haz-map.com/Agents/1070",
      "category": "agents"
    },
    {
      "type": "name_match",
      "text": "carbon",
      "confidence": 1.0,
      "uuid": "b53f8815-ee80-40ef-b4aa-3b000e17dab5",
      "name": "Carbon",
      "url": "https://haz-map.com/Agents/1891",
      "category": "agents"
    },
    {
      "type": "name_match",
      "text": "oleum",
      "confidence": 1.0,
      "uuid": "12af84ee-bcf0-416d-9220-7c4c6dc330f1",
      "name": "Oleum",
      "url": "https://haz-map.com/Agents/2227",
      "category": "agents"
    },
    {
      "type": "name_match",
      "text": "dde",
      "confidence": 1.0,
      "uuid": "88506fb4-e7b1-4bde-a283-917057f67fc2",
      "name": "DDE",
      "url": "https://haz-map.com/Agents/4656",
      "category": "agents"
    },
    {
      "type": "name_match",
      "text": "fuel oil no. 6",
      "confidence": 1.0,
      "uuid": "73b163ce-c09e-4a2d-a8b0-ea30c326d2a9",
      "name": "Fuel oil No. 6",
      "url": "https://haz-map.com/Agents/12503",
      "category": "agents"
    }
  ],
  "all_links": [
    {
      "text": "Search PubMed",
      "url": "https://www.ncbi.nlm.nih.gov/pubmed?term=Fuel+oil+No.+6%20AND%20human%5Bmh%5D%20AND%20%28Occupational%20Diseases%20%5Bmh%5D%20OR%20Occupational%20Exposure%20%5Bmh%5D%29%20%20AND%20%28tox%5Bsb%5D%29&cmd=search"
    }
  ]
}