{
  "metadata": {
    "scraped_from": "https://haz-map.com/Agents/1140",
    "entity_name": "Mipafox",
    "category": "agents",
    "uuid": "73f16b59-0f2d-4988-84f6-76fb0712a720",
    "scraped_at": "2025-07-23T18:53:20.721119"
  },
  "parsed_at": "2025-07-24T01:15:43.855555",
  "title": "Mipafox",
  "sections": {
    "general": {
      "agent_name": {
        "original_name": "Agent Name",
        "value": "Mipafox",
        "links": [],
        "cross_references": [
          {
            "type": "name_match",
            "text": "mipafox",
            "confidence": 1.0,
            "uuid": "73f16b59-0f2d-4988-84f6-76fb0712a720",
            "name": "Mipafox",
            "url": "https://haz-map.com/Agents/1140",
            "category": "agents"
          }
        ]
      },
      "cas_number": {
        "original_name": "CAS Number",
        "value": "371-86-8",
        "links": [],
        "cross_references": []
      },
      "formula": {
        "original_name": "Formula",
        "value": "C6-H16-F-N2-O-P",
        "links": [],
        "cross_references": []
      },
      "major_category": {
        "original_name": "Major Category",
        "value": "Pesticides",
        "links": [],
        "cross_references": []
      },
      "synonyms": {
        "original_name": "Synonyms",
        "value": "Bis(isopropylamido) fluorophosphate; Bis(isopropylamido)fluorophosphate; Bis(monoisopropylamino)fluorophosphate; Bis(monoisopropylamino)fluorophosphine oxide; Bisisopropylaminofluorophosphine oxide; Di(isopropylamido)phosphoryl fluoride; Fluorobisisopropylaminophosphine oxide; Fluorure de N,N'-diisopropyle phosphorodiamide [French]; Isopestox; Mipafox [ISO]; N,N'-Diisopropil-fosforodiammido-fluoruro [Italian]; N,N'-Diisopropyl-diamido-fosforzuur-fluoride [Dutch]; N,N'-Diisopropyl-diamido-phosphorsaeure-fluorid [German]; N,N'-Diisopropyldiamidophosphoryl fluoride; N,N'-Diisopropylphosphorodiamidic fluoride; Peston XV; Pestox 15; Pestox XV; Phosphine oxide, fluorobis(isopropylamino)-; Phosphorodi(isopropylamidic) fluoride; Phosphorodiamidic fluoride, N,N'-bis(1-methylethyl)-; Phosphorodiamidic fluoride, N,N'-diisopropyl-; [ChemIDplus]",
        "links": [],
        "cross_references": [
          {
            "type": "name_match",
            "text": "phosphine",
            "confidence": 1.0,
            "uuid": "b9783685-a2f4-44ef-8b65-6c1ab72fbfde",
            "name": "Phosphine",
            "url": "https://haz-map.com/Agents/74",
            "category": "agents"
          },
          {
            "type": "name_match",
            "text": "tali",
            "confidence": 1.0,
            "uuid": "8c3a0f99-2143-4122-b539-ec5cc49596b0",
            "name": "Tali",
            "url": "https://haz-map.com/Agents/1128",
            "category": "agents"
          },
          {
            "type": "name_match",
            "text": "mipafox",
            "confidence": 1.0,
            "uuid": "73f16b59-0f2d-4988-84f6-76fb0712a720",
            "name": "Mipafox",
            "url": "https://haz-map.com/Agents/1140",
            "category": "agents"
          },
          {
            "type": "name_match",
            "text": "diamide",
            "confidence": 1.0,
            "uuid": "9ef6c163-7996-4c0d-9f51-af32859c168a",
            "name": "Diamide",
            "url": "https://haz-map.com/Agents/13707",
            "category": "agents"
          },
          {
            "type": "name_match",
            "text": "phosphine oxide",
            "confidence": 1.0,
            "uuid": "40bd4350-9947-43ef-9dcc-388ee0a52680",
            "name": "Phosphine oxide",
            "url": "https://haz-map.com/Agents/16591",
            "category": "agents"
          }
        ]
      },
      "category": {
        "original_name": "Category",
        "value": "Organophosphate Insecticides",
        "links": [],
        "cross_references": []
      },
      "description": {
        "original_name": "Description",
        "value": "Odorless crystals; [HSDB]",
        "links": [],
        "cross_references": []
      },
      "sourcesuses": {
        "original_name": "Sources/Uses",
        "value": "Used as an insecticide; [Merck Index] Used in neurotoxicology studies; [HSDB]",
        "links": [],
        "cross_references": []
      },
      "comments": {
        "original_name": "Comments",
        "value": "A small number of the organophosphates (OPs) can Induce Delayed Neuropathy (OPIDN). OPIDN usually occurs after ingestion and is usually nonoccupational. [Levy, p. 431] Immediate and delayed neurotoxic effects observed in experimental animals; [HSDB] “The average of two baseline respective cholinesterase activity determinations three days apart, with no exposures to enzyme inhibiting pesticides for at least 30 days, is recommended for each worker prior to exposure to cholinesterase inhibitors because of large inter-individual differences in published baseline values. To be established at least once a year. Removal from workplace exposures is recommended until the cholinesterase activity returns to within 20% of baseline.” [TLVs and BEIs]",
        "links": [],
        "cross_references": [
          {
            "type": "name_match",
            "text": "neuropathy",
            "confidence": 1.0,
            "uuid": "8708368f-f68b-4a51-b1ea-01982070ed28",
            "name": "neuropathy",
            "url": "https://haz-map.com/Findings/85",
            "category": "findings"
          },
          {
            "type": "name_match",
            "text": "organophosphates",
            "confidence": 1.0,
            "uuid": "8d2d239c-20f9-4f02-9916-5e7667b9990c",
            "name": "ORGANOPHOSPHATES",
            "url": "https://haz-map.com/Agents/702",
            "category": "agents"
          },
          {
            "type": "name_match",
            "text": "choline",
            "confidence": 1.0,
            "uuid": "a21a71e9-9d67-4563-9da2-98c4dcb1b766",
            "name": "Choline",
            "url": "https://haz-map.com/Agents/12978",
            "category": "agents"
          }
        ]
      },
      "restricted": {
        "original_name": "Restricted",
        "value": "Not used in the US; [HSDB] \"This chemical ingredient is not found in any products.\" [NPIRS]",
        "links": [],
        "cross_references": [
          {
            "type": "name_match",
            "text": "mica",
            "confidence": 1.0,
            "uuid": "433f26f1-c399-4596-b179-ce3843cfd465",
            "name": "Mica",
            "url": "https://haz-map.com/Agents/621",
            "category": "agents"
          }
        ]
      },
      "biomedical_references": {
        "original_name": "Biomedical References",
        "value": "Search PubMed",
        "links": [
          {
            "text": "Search PubMed",
            "url": "https://www.ncbi.nlm.nih.gov/pubmed?term=Mipafox%20AND%20human%5Bmh%5D%20AND%20%28Occupational%20Diseases%20%5Bmh%5D%20OR%20Occupational%20Exposure%20%5Bmh%5D%29%20%20AND%20%28tox%5Bsb%5D%29&cmd=search"
          }
        ],
        "cross_references": []
      }
    },
    "exposure_assessment": {
      "bei": {
        "original_name": "BEI",
        "value": "Acetylcholinesterase activity in red blood cells = 70% of individual's baseline; Butylcholinesterase activity in serum or plasma = 60% of individual's baseline; Sample at end of shift; [TLVs and BEIs]",
        "links": [],
        "cross_references": [
          {
            "type": "name_match",
            "text": "choline",
            "confidence": 1.0,
            "uuid": "a21a71e9-9d67-4563-9da2-98c4dcb1b766",
            "name": "Choline",
            "url": "https://haz-map.com/Agents/12978",
            "category": "agents"
          }
        ]
      },
      "vapor_pressure": {
        "original_name": "Vapor Pressure",
        "value": "0.001 mm Hg",
        "links": [],
        "cross_references": []
      }
    },
    "adverse_effects": {
      "neurotoxin": {
        "original_name": "Neurotoxin",
        "value": "Predominantly motor",
        "links": [],
        "cross_references": []
      },
      "other_poison": {
        "original_name": "Other Poison",
        "value": "Organophosphate",
        "links": [],
        "cross_references": []
      }
    },
    "diseases_processes_and_activities_linked_to_this_agent": {
      "diseases": {
        "original_name": "Diseases",
        "value": "Occupational diseases associated with exposure to this agent: Organophosphates & carbamates, acute poisoning",
        "links": [
          {
            "text": "Organophosphates & carbamates, acute poisoning",
            "url": "https://haz-map.com/Diseases/66"
          }
        ],
        "cross_references": [
          {
            "type": "url_match",
            "text": "Organophosphates & carbamates, acute poisoning",
            "url": "https://haz-map.com/Diseases/66",
            "confidence": 1.0,
            "uuid": "aea2cba9-fb36-463f-84d8-b819551bb327",
            "name": "Organophosphates & carbamates, acute poisoning",
            "category": "diseases"
          },
          {
            "type": "name_match",
            "text": "organophosphates",
            "confidence": 1.0,
            "uuid": "8d2d239c-20f9-4f02-9916-5e7667b9990c",
            "name": "ORGANOPHOSPHATES",
            "url": "https://haz-map.com/Agents/702",
            "category": "agents"
          }
        ]
      },
      "processes": {
        "original_name": "Processes",
        "value": "Industrial Processes with risk of exposure: Farming (Pesticides)",
        "links": [
          {
            "text": "Farming (Pesticides)",
            "url": "https://haz-map.com/Processes/218"
          }
        ],
        "cross_references": [
          {
            "type": "url_match",
            "text": "Farming (Pesticides)",
            "url": "https://haz-map.com/Processes/218",
            "confidence": 1.0,
            "uuid": "cf1e5815-c9bb-4917-82a5-391848170b7e",
            "name": "Farming (Pesticides)",
            "category": "processes"
          }
        ]
      }
    }
  },
  "cross_references": [
    {
      "type": "url_match",
      "text": "Organophosphates & carbamates, acute poisoning",
      "url": "https://haz-map.com/Diseases/66",
      "confidence": 1.0,
      "uuid": "aea2cba9-fb36-463f-84d8-b819551bb327",
      "name": "Organophosphates & carbamates, acute poisoning",
      "category": "diseases"
    },
    {
      "type": "url_match",
      "text": "Farming (Pesticides)",
      "url": "https://haz-map.com/Processes/218",
      "confidence": 1.0,
      "uuid": "cf1e5815-c9bb-4917-82a5-391848170b7e",
      "name": "Farming (Pesticides)",
      "category": "processes"
    },
    {
      "type": "name_match",
      "text": "neuropathy",
      "confidence": 1.0,
      "uuid": "8708368f-f68b-4a51-b1ea-01982070ed28",
      "name": "neuropathy",
      "url": "https://haz-map.com/Findings/85",
      "category": "findings"
    },
    {
      "type": "name_match",
      "text": "phosphine",
      "confidence": 1.0,
      "uuid": "b9783685-a2f4-44ef-8b65-6c1ab72fbfde",
      "name": "Phosphine",
      "url": "https://haz-map.com/Agents/74",
      "category": "agents"
    },
    {
      "type": "name_match",
      "text": "mica",
      "confidence": 1.0,
      "uuid": "433f26f1-c399-4596-b179-ce3843cfd465",
      "name": "Mica",
      "url": "https://haz-map.com/Agents/621",
      "category": "agents"
    },
    {
      "type": "name_match",
      "text": "organophosphates",
      "confidence": 1.0,
      "uuid": "8d2d239c-20f9-4f02-9916-5e7667b9990c",
      "name": "ORGANOPHOSPHATES",
      "url": "https://haz-map.com/Agents/702",
      "category": "agents"
    },
    {
      "type": "name_match",
      "text": "tali",
      "confidence": 1.0,
      "uuid": "8c3a0f99-2143-4122-b539-ec5cc49596b0",
      "name": "Tali",
      "url": "https://haz-map.com/Agents/1128",
      "category": "agents"
    },
    {
      "type": "name_match",
      "text": "mipafox",
      "confidence": 1.0,
      "uuid": "73f16b59-0f2d-4988-84f6-76fb0712a720",
      "name": "Mipafox",
      "url": "https://haz-map.com/Agents/1140",
      "category": "agents"
    },
    {
      "type": "name_match",
      "text": "choline",
      "confidence": 1.0,
      "uuid": "a21a71e9-9d67-4563-9da2-98c4dcb1b766",
      "name": "Choline",
      "url": "https://haz-map.com/Agents/12978",
      "category": "agents"
    },
    {
      "type": "name_match",
      "text": "diamide",
      "confidence": 1.0,
      "uuid": "9ef6c163-7996-4c0d-9f51-af32859c168a",
      "name": "Diamide",
      "url": "https://haz-map.com/Agents/13707",
      "category": "agents"
    },
    {
      "type": "name_match",
      "text": "phosphine oxide",
      "confidence": 1.0,
      "uuid": "40bd4350-9947-43ef-9dcc-388ee0a52680",
      "name": "Phosphine oxide",
      "url": "https://haz-map.com/Agents/16591",
      "category": "agents"
    }
  ],
  "all_links": [
    {
      "text": "Search PubMed",
      "url": "https://www.ncbi.nlm.nih.gov/pubmed?term=Mipafox%20AND%20human%5Bmh%5D%20AND%20%28Occupational%20Diseases%20%5Bmh%5D%20OR%20Occupational%20Exposure%20%5Bmh%5D%29%20%20AND%20%28tox%5Bsb%5D%29&cmd=search"
    },
    {
      "text": "Organophosphates & carbamates, acute poisoning",
      "url": "https://haz-map.com/Diseases/66"
    },
    {
      "text": "Farming (Pesticides)",
      "url": "https://haz-map.com/Processes/218"
    }
  ]
}