{
  "metadata": {
    "scraped_from": "https://haz-map.com/Agents/15193",
    "entity_name": "L-Proline",
    "category": "agents",
    "uuid": "74095acb-a7d1-4480-b181-21f922782451",
    "scraped_at": "2025-07-23T21:28:25.988360"
  },
  "parsed_at": "2025-07-24T01:05:27.649360",
  "title": "L-Proline",
  "sections": {
    "general": {
      "agent_name": {
        "original_name": "Agent Name",
        "value": "L-Proline",
        "links": [],
        "cross_references": [
          {
            "type": "name_match",
            "text": "l-proline",
            "confidence": 1.0,
            "uuid": "74095acb-a7d1-4480-b181-21f922782451",
            "name": "L-Proline",
            "url": "https://haz-map.com/Agents/15193",
            "category": "agents"
          }
        ]
      },
      "cas_number": {
        "original_name": "CAS Number",
        "value": "147-85-3",
        "links": [],
        "cross_references": []
      },
      "formula": {
        "original_name": "Formula",
        "value": "C5-H9-N-O2",
        "links": [],
        "cross_references": []
      },
      "major_category": {
        "original_name": "Major Category",
        "value": "Biological Agents",
        "links": [],
        "cross_references": []
      },
      "synonyms": {
        "original_name": "Synonyms",
        "value": "(L)-Proline; (-)-(S)-Proline; (-)-2-Pyrrolidinecarboxylic acid; (-)-Proline; (S)-2-Pyrrolidinecarboxylic acid; 2-Pyrrolidinecarboxylic acid, (S)-; CB 1707; L-(-)-Proline; L-Pyrrolidine-2-carboxylic acid; L-alpha-Pyrrolidinecarboxylic acid; PRO (IUPAC abbreviation); Prolina [Spanish]; Proline (VAN); Prolinum [Latin]; Proline, L-; [ChemIDplus] Pro; P; [Merck Index] Pyrrolidine-2-carboxylic acid; L-Pyrrolidiencarboxylic acid; [JECFA]",
        "links": [],
        "cross_references": [
          {
            "type": "name_match",
            "text": "pyrrolidine",
            "confidence": 1.0,
            "uuid": "2d5875c0-8966-4b9b-8176-e71ea453a10c",
            "name": "Pyrrolidine",
            "url": "https://haz-map.com/Agents/1429",
            "category": "agents"
          }
        ]
      },
      "category": {
        "original_name": "Category",
        "value": "Amino Acids and Derivatives",
        "links": [],
        "cross_references": []
      },
      "description": {
        "original_name": "Description",
        "value": "Colorless solid; [HSDB] White powder; [Sigma-Aldrich MSDS]",
        "links": [],
        "cross_references": []
      },
      "sourcesuses": {
        "original_name": "Sources/Uses",
        "value": "A non-essential amino acid; [Merck Index] Used in biochemical and nutritional research, pharmaceuticals for injection or infusion, microbiological tests, culture media, as a lab reagent, nutritional supplement, and starting material for captopril and enalapril; [HSDB] Used as a flavoring agent and nutritional supplement for foods; [FDA]",
        "links": [],
        "cross_references": [
          {
            "type": "name_match",
            "text": "mica",
            "confidence": 1.0,
            "uuid": "433f26f1-c399-4596-b179-ce3843cfd465",
            "name": "Mica",
            "url": "https://haz-map.com/Agents/621",
            "category": "agents"
          },
          {
            "type": "name_match",
            "text": "pharmaceuticals",
            "confidence": 1.0,
            "uuid": "713c3c30-b67e-4a2f-a90f-b32f8a306332",
            "name": "PHARMACEUTICALS",
            "url": "https://haz-map.com/Agents/1000",
            "category": "agents"
          }
        ]
      },
      "comments": {
        "original_name": "Comments",
        "value": "Small increase in resorptions observed in intraperitoneal study of rats; [REPROTOX] Safe when used as a flavoring agent in food; [JECFA] May cause irritation; [Sigma-Aldrich MSDS]",
        "links": [],
        "cross_references": []
      },
      "biomedical_references": {
        "original_name": "Biomedical References",
        "value": "Search PubMed",
        "links": [
          {
            "text": "Search PubMed",
            "url": "https://www.ncbi.nlm.nih.gov/pubmed?term=L-Proline%20AND%20human%5Bmh%5D%20AND%20%28Occupational%20Diseases%20%5Bmh%5D%20OR%20Occupational%20Exposure%20%5Bmh%5D%29%20%20AND%20%28tox%5Bsb%5D%29&cmd=search"
          }
        ],
        "cross_references": []
      }
    },
    "exposure_assessment": {
      "vapor_pressure": {
        "original_name": "Vapor Pressure",
        "value": "3.77E-09 mm Hg",
        "links": [],
        "cross_references": []
      }
    },
    "diseases_processes_and_activities_linked_to_this_agent": {
      "other_information": {
        "original_name": "Other Information",
        "value": "No other related information on this agent was found.",
        "links": [],
        "cross_references": []
      }
    }
  },
  "cross_references": [
    {
      "type": "name_match",
      "text": "mica",
      "confidence": 1.0,
      "uuid": "433f26f1-c399-4596-b179-ce3843cfd465",
      "name": "Mica",
      "url": "https://haz-map.com/Agents/621",
      "category": "agents"
    },
    {
      "type": "name_match",
      "text": "pharmaceuticals",
      "confidence": 1.0,
      "uuid": "713c3c30-b67e-4a2f-a90f-b32f8a306332",
      "name": "PHARMACEUTICALS",
      "url": "https://haz-map.com/Agents/1000",
      "category": "agents"
    },
    {
      "type": "name_match",
      "text": "pyrrolidine",
      "confidence": 1.0,
      "uuid": "2d5875c0-8966-4b9b-8176-e71ea453a10c",
      "name": "Pyrrolidine",
      "url": "https://haz-map.com/Agents/1429",
      "category": "agents"
    },
    {
      "type": "name_match",
      "text": "l-proline",
      "confidence": 1.0,
      "uuid": "74095acb-a7d1-4480-b181-21f922782451",
      "name": "L-Proline",
      "url": "https://haz-map.com/Agents/15193",
      "category": "agents"
    }
  ],
  "all_links": [
    {
      "text": "Search PubMed",
      "url": "https://www.ncbi.nlm.nih.gov/pubmed?term=L-Proline%20AND%20human%5Bmh%5D%20AND%20%28Occupational%20Diseases%20%5Bmh%5D%20OR%20Occupational%20Exposure%20%5Bmh%5D%29%20%20AND%20%28tox%5Bsb%5D%29&cmd=search"
    }
  ]
}