{
  "metadata": {
    "scraped_from": "https://haz-map.com/Agents/16513",
    "entity_name": "Phenazine",
    "category": "agents",
    "uuid": "74526397-c7b6-46ca-b37a-1450d7c17011",
    "scraped_at": "2025-07-23T21:38:05.544130"
  },
  "parsed_at": "2025-07-24T00:54:52.558384",
  "title": "Phenazine",
  "sections": {
    "general": {
      "agent_name": {
        "original_name": "Agent Name",
        "value": "Phenazine",
        "links": [],
        "cross_references": [
          {
            "type": "name_match",
            "text": "phenazine",
            "confidence": 1.0,
            "uuid": "74526397-c7b6-46ca-b37a-1450d7c17011",
            "name": "Phenazine",
            "url": "https://haz-map.com/Agents/16513",
            "category": "agents"
          }
        ]
      },
      "cas_number": {
        "original_name": "CAS Number",
        "value": "92-82-0",
        "links": [],
        "cross_references": []
      },
      "formula": {
        "original_name": "Formula",
        "value": "C12-H8-N2",
        "links": [],
        "cross_references": []
      },
      "major_category": {
        "original_name": "Major Category",
        "value": "Nitrogen Compounds",
        "links": [],
        "cross_references": [
          {
            "type": "name_match",
            "text": "nitrogen",
            "confidence": 1.0,
            "uuid": "db5e90a9-06d2-45b9-8b81-f345a89b0bc0",
            "name": "Nitrogen",
            "url": "https://haz-map.com/Agents/1072",
            "category": "agents"
          }
        ]
      },
      "synonyms": {
        "original_name": "Synonyms",
        "value": "9,10-Diazaanthracene; Acridizine; Azophenylene; Dibenzoparadiazine; Dibenzopyrazine; [ChemIDplus]",
        "links": [],
        "cross_references": [
          {
            "type": "name_match",
            "text": "anthracene",
            "confidence": 1.0,
            "uuid": "f11a62e4-1e69-4f6d-a8b7-240c9de086ff",
            "name": "Anthracene",
            "url": "https://haz-map.com/Agents/7821",
            "category": "agents"
          },
          {
            "type": "name_match",
            "text": "pyrazine",
            "confidence": 1.0,
            "uuid": "de296522-8691-4497-9f6f-9a448cfb6a83",
            "name": "Pyrazine",
            "url": "https://haz-map.com/Agents/17010",
            "category": "agents"
          }
        ]
      },
      "category": {
        "original_name": "Category",
        "value": "Other Aromatics (Nitrogen)",
        "links": [],
        "cross_references": [
          {
            "type": "name_match",
            "text": "nitrogen",
            "confidence": 1.0,
            "uuid": "db5e90a9-06d2-45b9-8b81-f345a89b0bc0",
            "name": "Nitrogen",
            "url": "https://haz-map.com/Agents/1072",
            "category": "agents"
          }
        ]
      },
      "description": {
        "original_name": "Description",
        "value": "Colorless or light yellow solid; [Merck Index] Yellow crystalline powder; [Alfa Aesar MSDS]",
        "links": [],
        "cross_references": [
          {
            "type": "name_match",
            "text": "ht",
            "confidence": 1.0,
            "uuid": "764df367-8d53-4a11-81a2-31ccfe122a8d",
            "name": "HT",
            "url": "https://haz-map.com/Agents/2168",
            "category": "agents"
          },
          {
            "type": "fuzzy_match",
            "text": "crystalline",
            "matched_name": "Silica, crystalline",
            "confidence": 0.7061403508771931,
            "uuid": "f920e8a2-46df-41b7-af8d-0368a777251e",
            "category": "agents",
            "url": "https://haz-map.com/Agents/427"
          }
        ]
      },
      "sourcesuses": {
        "original_name": "Sources/Uses",
        "value": "Used to make azine dyes; [Wikipedia]",
        "links": [],
        "cross_references": []
      },
      "comments": {
        "original_name": "Comments",
        "value": "Oral lethal-dose (rat) > 500 mg/kg; [RTECS] May cause irritation; [Alfa Aesar MSDS]",
        "links": [],
        "cross_references": []
      },
      "biomedical_references": {
        "original_name": "Biomedical References",
        "value": "Search PubMed",
        "links": [
          {
            "text": "Search PubMed",
            "url": "https://www.ncbi.nlm.nih.gov/pubmed?term=Phenazine%20AND%20human%5Bmh%5D%20AND%20%28Occupational%20Diseases%20%5Bmh%5D%20OR%20Occupational%20Exposure%20%5Bmh%5D%29%20%20AND%20%28tox%5Bsb%5D%29&cmd=search"
          }
        ],
        "cross_references": []
      }
    },
    "exposure_assessment": {
      "vapor_pressure": {
        "original_name": "Vapor Pressure",
        "value": "3.26E-05 mm Hg",
        "links": [],
        "cross_references": []
      }
    },
    "diseases_processes_and_activities_linked_to_this_agent": {
      "other_information": {
        "original_name": "Other Information",
        "value": "No other related information on this agent was found.",
        "links": [],
        "cross_references": []
      }
    }
  },
  "cross_references": [
    {
      "type": "name_match",
      "text": "nitrogen",
      "confidence": 1.0,
      "uuid": "db5e90a9-06d2-45b9-8b81-f345a89b0bc0",
      "name": "Nitrogen",
      "url": "https://haz-map.com/Agents/1072",
      "category": "agents"
    },
    {
      "type": "name_match",
      "text": "ht",
      "confidence": 1.0,
      "uuid": "764df367-8d53-4a11-81a2-31ccfe122a8d",
      "name": "HT",
      "url": "https://haz-map.com/Agents/2168",
      "category": "agents"
    },
    {
      "type": "name_match",
      "text": "anthracene",
      "confidence": 1.0,
      "uuid": "f11a62e4-1e69-4f6d-a8b7-240c9de086ff",
      "name": "Anthracene",
      "url": "https://haz-map.com/Agents/7821",
      "category": "agents"
    },
    {
      "type": "name_match",
      "text": "phenazine",
      "confidence": 1.0,
      "uuid": "74526397-c7b6-46ca-b37a-1450d7c17011",
      "name": "Phenazine",
      "url": "https://haz-map.com/Agents/16513",
      "category": "agents"
    },
    {
      "type": "name_match",
      "text": "pyrazine",
      "confidence": 1.0,
      "uuid": "de296522-8691-4497-9f6f-9a448cfb6a83",
      "name": "Pyrazine",
      "url": "https://haz-map.com/Agents/17010",
      "category": "agents"
    },
    {
      "type": "fuzzy_match",
      "text": "crystalline",
      "matched_name": "Silica, crystalline",
      "confidence": 0.7061403508771931,
      "uuid": "f920e8a2-46df-41b7-af8d-0368a777251e",
      "category": "agents",
      "url": "https://haz-map.com/Agents/427"
    }
  ],
  "all_links": [
    {
      "text": "Search PubMed",
      "url": "https://www.ncbi.nlm.nih.gov/pubmed?term=Phenazine%20AND%20human%5Bmh%5D%20AND%20%28Occupational%20Diseases%20%5Bmh%5D%20OR%20Occupational%20Exposure%20%5Bmh%5D%29%20%20AND%20%28tox%5Bsb%5D%29&cmd=search"
    }
  ]
}