{
  "metadata": {
    "scraped_from": "https://haz-map.com/Agents/14421",
    "entity_name": "DL-Glutamic acid",
    "category": "agents",
    "uuid": "747d1ef6-f4a1-46c3-bff1-8ecff203b522",
    "scraped_at": "2025-07-23T21:22:35.331790"
  },
  "parsed_at": "2025-07-24T00:52:32.770913",
  "title": "DL-Glutamic acid",
  "sections": {
    "general": {
      "agent_name": {
        "original_name": "Agent Name",
        "value": "DL-Glutamic acid",
        "links": [],
        "cross_references": [
          {
            "type": "name_match",
            "text": "glutamic acid",
            "confidence": 1.0,
            "uuid": "dbdea175-eb1d-411e-a848-f822084191d7",
            "name": "Glutamic acid",
            "url": "https://haz-map.com/Agents/14420",
            "category": "agents"
          },
          {
            "type": "name_match",
            "text": "dl-glutamic acid",
            "confidence": 1.0,
            "uuid": "747d1ef6-f4a1-46c3-bff1-8ecff203b522",
            "name": "DL-Glutamic acid",
            "url": "https://haz-map.com/Agents/14421",
            "category": "agents"
          }
        ]
      },
      "cas_number": {
        "original_name": "CAS Number",
        "value": "617-65-2",
        "links": [],
        "cross_references": []
      },
      "formula": {
        "original_name": "Formula",
        "value": "C5-H9-N-O4",
        "links": [],
        "cross_references": []
      },
      "major_category": {
        "original_name": "Major Category",
        "value": "Biological Agents",
        "links": [],
        "cross_references": []
      },
      "synonyms": {
        "original_name": "Synonyms",
        "value": "Glutamic acid DL-form; Glutamic acid, dl-; (+-)-Glutamic acid; [ChemIDplus]",
        "links": [],
        "cross_references": [
          {
            "type": "name_match",
            "text": "glutamic acid",
            "confidence": 1.0,
            "uuid": "dbdea175-eb1d-411e-a848-f822084191d7",
            "name": "Glutamic acid",
            "url": "https://haz-map.com/Agents/14420",
            "category": "agents"
          }
        ]
      },
      "category": {
        "original_name": "Category",
        "value": "Amino Acids and Derivatives",
        "links": [],
        "cross_references": []
      },
      "description": {
        "original_name": "Description",
        "value": "Solid; [Merck Index]",
        "links": [],
        "cross_references": []
      },
      "sourcesuses": {
        "original_name": "Sources/Uses",
        "value": "Glutamic acid is a non-essential amino acid and an excitatory neurotransmitter; Used as a nutritional supplement; [Merck Index]",
        "links": [],
        "cross_references": [
          {
            "type": "name_match",
            "text": "glutamic acid",
            "confidence": 1.0,
            "uuid": "dbdea175-eb1d-411e-a848-f822084191d7",
            "name": "Glutamic acid",
            "url": "https://haz-map.com/Agents/14420",
            "category": "agents"
          }
        ]
      },
      "comments": {
        "original_name": "Comments",
        "value": "Human ingestion of 71 mg/kg causes headache; [RTECS] May cause irritation; [Sigma-Aldrich MSDS] See \"Glutamic acid.\"",
        "links": [],
        "cross_references": [
          {
            "type": "name_match",
            "text": "headache",
            "confidence": 1.0,
            "uuid": "a474a38d-66ac-44da-92de-de1c781a30e7",
            "name": "headache",
            "url": "https://haz-map.com/Findings/17",
            "category": "findings"
          },
          {
            "type": "name_match",
            "text": "glutamic acid",
            "confidence": 1.0,
            "uuid": "dbdea175-eb1d-411e-a848-f822084191d7",
            "name": "Glutamic acid",
            "url": "https://haz-map.com/Agents/14420",
            "category": "agents"
          }
        ]
      },
      "biomedical_references": {
        "original_name": "Biomedical References",
        "value": "Search PubMed",
        "links": [
          {
            "text": "Search PubMed",
            "url": "https://www.ncbi.nlm.nih.gov/pubmed?term=DL-Glutamic+acid%20AND%20human%5Bmh%5D%20AND%20%28Occupational%20Diseases%20%5Bmh%5D%20OR%20Occupational%20Exposure%20%5Bmh%5D%29%20%20AND%20%28tox%5Bsb%5D%29&cmd=search"
          }
        ],
        "cross_references": []
      }
    },
    "exposure_assessment": {
      "vapor_pressure": {
        "original_name": "Vapor Pressure",
        "value": "5.19E-07 mm Hg",
        "links": [],
        "cross_references": []
      }
    },
    "diseases_processes_and_activities_linked_to_this_agent": {
      "other_information": {
        "original_name": "Other Information",
        "value": "No other related information on this agent was found.",
        "links": [],
        "cross_references": []
      }
    }
  },
  "cross_references": [
    {
      "type": "name_match",
      "text": "headache",
      "confidence": 1.0,
      "uuid": "a474a38d-66ac-44da-92de-de1c781a30e7",
      "name": "headache",
      "url": "https://haz-map.com/Findings/17",
      "category": "findings"
    },
    {
      "type": "name_match",
      "text": "glutamic acid",
      "confidence": 1.0,
      "uuid": "dbdea175-eb1d-411e-a848-f822084191d7",
      "name": "Glutamic acid",
      "url": "https://haz-map.com/Agents/14420",
      "category": "agents"
    },
    {
      "type": "name_match",
      "text": "dl-glutamic acid",
      "confidence": 1.0,
      "uuid": "747d1ef6-f4a1-46c3-bff1-8ecff203b522",
      "name": "DL-Glutamic acid",
      "url": "https://haz-map.com/Agents/14421",
      "category": "agents"
    }
  ],
  "all_links": [
    {
      "text": "Search PubMed",
      "url": "https://www.ncbi.nlm.nih.gov/pubmed?term=DL-Glutamic+acid%20AND%20human%5Bmh%5D%20AND%20%28Occupational%20Diseases%20%5Bmh%5D%20OR%20Occupational%20Exposure%20%5Bmh%5D%29%20%20AND%20%28tox%5Bsb%5D%29&cmd=search"
    }
  ]
}