{
  "metadata": {
    "scraped_from": "https://haz-map.com/Agents/3547",
    "entity_name": "1-Pentanol",
    "category": "agents",
    "uuid": "74c9beda-4812-46af-930c-b4b8c6b2cee3",
    "scraped_at": "2025-07-23T19:30:43.990125"
  },
  "parsed_at": "2025-07-24T00:50:33.576937",
  "title": "1-Pentanol",
  "sections": {
    "general": {
      "agent_name": {
        "original_name": "Agent Name",
        "value": "1-Pentanol",
        "links": [],
        "cross_references": [
          {
            "type": "name_match",
            "text": "1-pentanol",
            "confidence": 1.0,
            "uuid": "74c9beda-4812-46af-930c-b4b8c6b2cee3",
            "name": "1-Pentanol",
            "url": "https://haz-map.com/Agents/3547",
            "category": "agents"
          }
        ]
      },
      "cas_number": {
        "original_name": "CAS Number",
        "value": "71-41-0",
        "links": [],
        "cross_references": []
      },
      "formula": {
        "original_name": "Formula",
        "value": "C5-H12-O",
        "links": [],
        "cross_references": []
      },
      "major_category": {
        "original_name": "Major Category",
        "value": "Solvents",
        "links": [],
        "cross_references": []
      },
      "synonyms": {
        "original_name": "Synonyms",
        "value": "1-Pentyl alcohol; Alcool amylique [French]; Amyl alcohol; Amyl alcohol (natural); Amyl alcohol, normal; Amylol; Butyl carbinol; Butylcarbinol; N-Amyl alcohol; Pentanol; Pentanol (VAN); Pentanol-1; Pentasol; Pentyl alcohol; Petan-1-ol; Primary amyl alcohol; n-Amyl alcohol; n-Amylalkohol [Czech]; n-Butylcarbinol; n-Pentan-1-ol; n-Pentyl alcohol; [ChemIDplus] UN1105",
        "links": [],
        "cross_references": []
      },
      "category": {
        "original_name": "Category",
        "value": "Alcohols (<C12)",
        "links": [],
        "cross_references": []
      },
      "description": {
        "original_name": "Description",
        "value": "Colorless liquid; [Hawley]",
        "links": [],
        "cross_references": []
      },
      "sourcesuses": {
        "original_name": "Sources/Uses",
        "value": "Used as a solvent (resins, gums, petroleum additives, synthetic flavors, hydraulic fluids), intermediate, lubricant, ore-flotation agent, plasticizer, corrosion inhibitor, and antioxidant; [HSDB] Occurs naturally in many foods; [CHEMINFO]",
        "links": [],
        "cross_references": [
          {
            "type": "name_match",
            "text": "oleum",
            "confidence": 1.0,
            "uuid": "12af84ee-bcf0-416d-9220-7c4c6dc330f1",
            "name": "Oleum",
            "url": "https://haz-map.com/Agents/2227",
            "category": "agents"
          }
        ]
      },
      "comments": {
        "original_name": "Comments",
        "value": "A skin, eye, and respiratory tract irritant; Inhalation of high concentrations can cause CNS depression; [ICSC] Vapor can cause lacrimation, but no significant corneal injury; [HSDB]",
        "links": [],
        "cross_references": [
          {
            "type": "name_match",
            "text": "lacrimation",
            "confidence": 1.0,
            "uuid": "392ff8e7-90fa-4d6d-8f67-3e49d053ffac",
            "name": "lacrimation",
            "url": "https://haz-map.com/Findings/199",
            "category": "findings"
          }
        ]
      },
      "biomedical_references": {
        "original_name": "Biomedical References",
        "value": "Search PubMed",
        "links": [
          {
            "text": "Search PubMed",
            "url": "https://www.ncbi.nlm.nih.gov/pubmed?term=1-Pentanol%20AND%20human%5Bmh%5D%20AND%20%28Occupational%20Diseases%20%5Bmh%5D%20OR%20Occupational%20Exposure%20%5Bmh%5D%29%20%20AND%20%28tox%5Bsb%5D%29&cmd=search"
          }
        ],
        "cross_references": []
      }
    },
    "exposure_assessment": {
      "mak": {
        "original_name": "MAK",
        "value": "20 ppm",
        "links": [],
        "cross_references": []
      },
      "vapor_pressure": {
        "original_name": "Vapor Pressure",
        "value": "2.2 mm Hg",
        "links": [],
        "cross_references": []
      },
      "odor_threshold_low": {
        "original_name": "Odor Threshold Low",
        "value": "0.12 ppm",
        "links": [],
        "cross_references": []
      },
      "odor_threshold_high": {
        "original_name": "Odor Threshold High",
        "value": "20.03 ppm",
        "links": [],
        "cross_references": []
      },
      "lethal_concentration": {
        "original_name": "Lethal Concentration",
        "value": "LCLo (rat) = 14,000 mg/m3/6h",
        "links": [],
        "cross_references": []
      },
      "explanatory_notes": {
        "original_name": "Explanatory Notes",
        "value": "Flash point = 38 deg C; [Merck Index] Odor threshold low = 0.4332 mg/m3; Odor high = 72.2 mg/m3; [HSDB] The Guide in the Emergency Response Guidebook is for \"Pentanols.\" VP from ChemIDplus;",
        "links": [],
        "cross_references": [
          {
            "type": "name_match",
            "text": "ash",
            "confidence": 1.0,
            "uuid": "68b360f1-5ad0-4337-bea0-d7adca2961b5",
            "name": "Ash",
            "url": "https://haz-map.com/Agents/965",
            "category": "agents"
          }
        ]
      },
      "nfpa": {
        "original_name": "NFPA",
        "value": "may ignite at ambient temp",
        "links": [],
        "cross_references": []
      },
      "weel": {
        "original_name": "WEEL",
        "value": "100 ppm",
        "links": [],
        "cross_references": []
      }
    },
    "adverse_effects": {
      "lachrymator": {
        "original_name": "Lachrymator",
        "value": "Yes",
        "links": [],
        "cross_references": []
      },
      "neurotoxin": {
        "original_name": "Neurotoxin",
        "value": "Acute solvent syndrome",
        "links": [],
        "cross_references": []
      }
    },
    "diseases_processes_and_activities_linked_to_this_agent": {
      "diseases": {
        "original_name": "Diseases",
        "value": "Occupational diseases associated with exposure to this agent: Solvents, acute toxic effect",
        "links": [
          {
            "text": "Solvents, acute toxic effect",
            "url": "https://haz-map.com/Diseases/326"
          }
        ],
        "cross_references": [
          {
            "type": "url_match",
            "text": "Solvents, acute toxic effect",
            "url": "https://haz-map.com/Diseases/326",
            "confidence": 1.0,
            "uuid": "581e90e3-9d0c-45f0-aa6c-3468c28da129",
            "name": "Solvents, acute toxic effect",
            "category": "diseases"
          }
        ]
      },
      "processes": {
        "original_name": "Processes",
        "value": "Industrial Processes with risk of exposure: Metal Extraction and Refining",
        "links": [
          {
            "text": "Metal Extraction and Refining",
            "url": "https://haz-map.com/Processes/261"
          }
        ],
        "cross_references": []
      }
    }
  },
  "cross_references": [
    {
      "type": "url_match",
      "text": "Solvents, acute toxic effect",
      "url": "https://haz-map.com/Diseases/326",
      "confidence": 1.0,
      "uuid": "581e90e3-9d0c-45f0-aa6c-3468c28da129",
      "name": "Solvents, acute toxic effect",
      "category": "diseases"
    },
    {
      "type": "name_match",
      "text": "lacrimation",
      "confidence": 1.0,
      "uuid": "392ff8e7-90fa-4d6d-8f67-3e49d053ffac",
      "name": "lacrimation",
      "url": "https://haz-map.com/Findings/199",
      "category": "findings"
    },
    {
      "type": "name_match",
      "text": "ash",
      "confidence": 1.0,
      "uuid": "68b360f1-5ad0-4337-bea0-d7adca2961b5",
      "name": "Ash",
      "url": "https://haz-map.com/Agents/965",
      "category": "agents"
    },
    {
      "type": "name_match",
      "text": "oleum",
      "confidence": 1.0,
      "uuid": "12af84ee-bcf0-416d-9220-7c4c6dc330f1",
      "name": "Oleum",
      "url": "https://haz-map.com/Agents/2227",
      "category": "agents"
    },
    {
      "type": "name_match",
      "text": "1-pentanol",
      "confidence": 1.0,
      "uuid": "74c9beda-4812-46af-930c-b4b8c6b2cee3",
      "name": "1-Pentanol",
      "url": "https://haz-map.com/Agents/3547",
      "category": "agents"
    }
  ],
  "all_links": [
    {
      "text": "Search PubMed",
      "url": "https://www.ncbi.nlm.nih.gov/pubmed?term=1-Pentanol%20AND%20human%5Bmh%5D%20AND%20%28Occupational%20Diseases%20%5Bmh%5D%20OR%20Occupational%20Exposure%20%5Bmh%5D%29%20%20AND%20%28tox%5Bsb%5D%29&cmd=search"
    },
    {
      "text": "Solvents, acute toxic effect",
      "url": "https://haz-map.com/Diseases/326"
    },
    {
      "text": "Metal Extraction and Refining",
      "url": "https://haz-map.com/Processes/261"
    }
  ]
}