{
  "metadata": {
    "scraped_from": "https://haz-map.com/Agents/11610",
    "entity_name": "4-Chloro-1-butanol",
    "category": "agents",
    "uuid": "74e7ab9b-0d4e-49fb-80fb-b4aae241d0f0",
    "scraped_at": "2025-07-23T21:01:56.946504"
  },
  "parsed_at": "2025-07-24T00:58:27.499104",
  "title": "4-Chloro-1-butanol",
  "sections": {
    "general": {
      "agent_name": {
        "original_name": "Agent Name",
        "value": "4-Chloro-1-butanol",
        "links": [],
        "cross_references": [
          {
            "type": "name_match",
            "text": "4-chloro-1-butanol",
            "confidence": 1.0,
            "uuid": "74e7ab9b-0d4e-49fb-80fb-b4aae241d0f0",
            "name": "4-Chloro-1-butanol",
            "url": "https://haz-map.com/Agents/11610",
            "category": "agents"
          }
        ]
      },
      "cas_number": {
        "original_name": "CAS Number",
        "value": "928-51-8",
        "links": [],
        "cross_references": []
      },
      "formula": {
        "original_name": "Formula",
        "value": "C4-H9-Cl-O",
        "links": [],
        "cross_references": []
      },
      "major_category": {
        "original_name": "Major Category",
        "value": "Other Classes",
        "links": [],
        "cross_references": []
      },
      "synonyms": {
        "original_name": "Synonyms",
        "value": "4-Chlorbutan-1-ol [German]; 4-Chloro-1-butane-ol; 4-Chlorobutanol; Tetramethylene chlorohydrin; 1-Butanol, 4-chloro-; 4-Chlorobutan-1-ol; [ChemIDplus]",
        "links": [],
        "cross_references": [
          {
            "type": "name_match",
            "text": "ethylene chlorohydrin",
            "confidence": 1.0,
            "uuid": "7b0ebc46-43b6-4e18-8cc3-9550665240de",
            "name": "Ethylene chlorohydrin",
            "url": "https://haz-map.com/Agents/487",
            "category": "agents"
          },
          {
            "type": "name_match",
            "text": "ethylene",
            "confidence": 1.0,
            "uuid": "958eacc0-5135-4b62-bb93-6df972bf552f",
            "name": "Ethylene",
            "url": "https://haz-map.com/Agents/1076",
            "category": "agents"
          },
          {
            "type": "name_match",
            "text": "chlorobutanol",
            "confidence": 1.0,
            "uuid": "4cf5e019-3dca-42eb-96eb-e08624a799b2",
            "name": "Chlorobutanol",
            "url": "https://haz-map.com/Agents/4291",
            "category": "agents"
          }
        ]
      },
      "category": {
        "original_name": "Category",
        "value": "Halogenated Alcohols",
        "links": [],
        "cross_references": []
      },
      "description": {
        "original_name": "Description",
        "value": "Clear colorless liquid; Contains <= 12% hydrochloric acid (CAS# 7647-01-0) and <= 3% tetrahydrofuran (CAS# 109-99-9); [Sigma-Aldrich MSDS]",
        "links": [],
        "cross_references": [
          {
            "type": "name_match",
            "text": "tetrahydrofuran",
            "confidence": 1.0,
            "uuid": "1e50bb92-4ada-4d8d-8c58-846b271cc00b",
            "name": "Tetrahydrofuran",
            "url": "https://haz-map.com/Agents/649",
            "category": "agents"
          },
          {
            "type": "name_match",
            "text": "furan",
            "confidence": 1.0,
            "uuid": "96da3d2e-f46b-4100-9000-704d1a86985b",
            "name": "Furan",
            "url": "https://haz-map.com/Agents/1477",
            "category": "agents"
          },
          {
            "type": "name_match",
            "text": "chloric acid",
            "confidence": 1.0,
            "uuid": "b21bc556-162c-4249-8afc-fb6303f2b8f9",
            "name": "Chloric acid",
            "url": "https://haz-map.com/Agents/8326",
            "category": "agents"
          }
        ]
      },
      "comments": {
        "original_name": "Comments",
        "value": "Causes muscle contraction or spasticity, ulceration or bleeding from the stomach, and other liver changes in oral lethal-dose studies of mice; [RTECS] Causes burns; Inhalation may cause corrosive injuries to upper respiratory tract and lungs; Harmful by ingestion; Targets the CNS, liver, and kidney; [Sigma-Aldrich MSDS] See \"1-Chloro-2-propanol\" and \"2-Chloro-1-propanol.\"",
        "links": [],
        "cross_references": [
          {
            "type": "name_match",
            "text": "burn",
            "confidence": 1.0,
            "uuid": "63665de5-6376-4918-8dbf-4c10c4d63837",
            "name": "burn",
            "url": "https://haz-map.com/Findings/204",
            "category": "findings"
          },
          {
            "type": "name_match",
            "text": "1-chloro-2-propanol",
            "confidence": 1.0,
            "uuid": "3e820ec5-6b33-472a-a625-b789ef396833",
            "name": "1-Chloro-2-propanol",
            "url": "https://haz-map.com/Agents/1649",
            "category": "agents"
          },
          {
            "type": "name_match",
            "text": "2-chloro-1-propanol",
            "confidence": 1.0,
            "uuid": "8117e15a-1651-4a9c-9e9d-9860837ad4b4",
            "name": "2-Chloro-1-propanol",
            "url": "https://haz-map.com/Agents/3084",
            "category": "agents"
          }
        ]
      },
      "biomedical_references": {
        "original_name": "Biomedical References",
        "value": "Search PubMed",
        "links": [
          {
            "text": "Search PubMed",
            "url": "https://www.ncbi.nlm.nih.gov/pubmed?term=4-Chloro-1-butanol%20AND%20human%5Bmh%5D%20AND%20%28Occupational%20Diseases%20%5Bmh%5D%20OR%20Occupational%20Exposure%20%5Bmh%5D%29%20%20AND%20%28tox%5Bsb%5D%29&cmd=search"
          }
        ],
        "cross_references": []
      }
    },
    "exposure_assessment": {
      "vapor_pressure": {
        "original_name": "Vapor Pressure",
        "value": "0.352 mm Hg",
        "links": [],
        "cross_references": []
      },
      "explanatory_notes": {
        "original_name": "Explanatory Notes",
        "value": "VP from ChemIDplus;",
        "links": [],
        "cross_references": []
      }
    },
    "adverse_effects": {
      "toxic_pneumonitis": {
        "original_name": "Toxic Pneumonitis",
        "value": "Yes",
        "links": [],
        "cross_references": []
      },
      "dermatotoxin": {
        "original_name": "Dermatotoxin",
        "value": "Skin burns",
        "links": [],
        "cross_references": [
          {
            "type": "name_match",
            "text": "burn",
            "confidence": 1.0,
            "uuid": "63665de5-6376-4918-8dbf-4c10c4d63837",
            "name": "burn",
            "url": "https://haz-map.com/Findings/204",
            "category": "findings"
          }
        ]
      }
    },
    "diseases_processes_and_activities_linked_to_this_agent": {
      "other_information": {
        "original_name": "Other Information",
        "value": "No other related information on this agent was found.",
        "links": [],
        "cross_references": []
      }
    }
  },
  "cross_references": [
    {
      "type": "name_match",
      "text": "burn",
      "confidence": 1.0,
      "uuid": "63665de5-6376-4918-8dbf-4c10c4d63837",
      "name": "burn",
      "url": "https://haz-map.com/Findings/204",
      "category": "findings"
    },
    {
      "type": "name_match",
      "text": "ethylene chlorohydrin",
      "confidence": 1.0,
      "uuid": "7b0ebc46-43b6-4e18-8cc3-9550665240de",
      "name": "Ethylene chlorohydrin",
      "url": "https://haz-map.com/Agents/487",
      "category": "agents"
    },
    {
      "type": "name_match",
      "text": "tetrahydrofuran",
      "confidence": 1.0,
      "uuid": "1e50bb92-4ada-4d8d-8c58-846b271cc00b",
      "name": "Tetrahydrofuran",
      "url": "https://haz-map.com/Agents/649",
      "category": "agents"
    },
    {
      "type": "name_match",
      "text": "ethylene",
      "confidence": 1.0,
      "uuid": "958eacc0-5135-4b62-bb93-6df972bf552f",
      "name": "Ethylene",
      "url": "https://haz-map.com/Agents/1076",
      "category": "agents"
    },
    {
      "type": "name_match",
      "text": "furan",
      "confidence": 1.0,
      "uuid": "96da3d2e-f46b-4100-9000-704d1a86985b",
      "name": "Furan",
      "url": "https://haz-map.com/Agents/1477",
      "category": "agents"
    },
    {
      "type": "name_match",
      "text": "1-chloro-2-propanol",
      "confidence": 1.0,
      "uuid": "3e820ec5-6b33-472a-a625-b789ef396833",
      "name": "1-Chloro-2-propanol",
      "url": "https://haz-map.com/Agents/1649",
      "category": "agents"
    },
    {
      "type": "name_match",
      "text": "2-chloro-1-propanol",
      "confidence": 1.0,
      "uuid": "8117e15a-1651-4a9c-9e9d-9860837ad4b4",
      "name": "2-Chloro-1-propanol",
      "url": "https://haz-map.com/Agents/3084",
      "category": "agents"
    },
    {
      "type": "name_match",
      "text": "chlorobutanol",
      "confidence": 1.0,
      "uuid": "4cf5e019-3dca-42eb-96eb-e08624a799b2",
      "name": "Chlorobutanol",
      "url": "https://haz-map.com/Agents/4291",
      "category": "agents"
    },
    {
      "type": "name_match",
      "text": "chloric acid",
      "confidence": 1.0,
      "uuid": "b21bc556-162c-4249-8afc-fb6303f2b8f9",
      "name": "Chloric acid",
      "url": "https://haz-map.com/Agents/8326",
      "category": "agents"
    },
    {
      "type": "name_match",
      "text": "4-chloro-1-butanol",
      "confidence": 1.0,
      "uuid": "74e7ab9b-0d4e-49fb-80fb-b4aae241d0f0",
      "name": "4-Chloro-1-butanol",
      "url": "https://haz-map.com/Agents/11610",
      "category": "agents"
    }
  ],
  "all_links": [
    {
      "text": "Search PubMed",
      "url": "https://www.ncbi.nlm.nih.gov/pubmed?term=4-Chloro-1-butanol%20AND%20human%5Bmh%5D%20AND%20%28Occupational%20Diseases%20%5Bmh%5D%20OR%20Occupational%20Exposure%20%5Bmh%5D%29%20%20AND%20%28tox%5Bsb%5D%29&cmd=search"
    }
  ]
}