{
  "metadata": {
    "scraped_from": "https://haz-map.com/Agents/11742",
    "entity_name": "alpha-Naphthyl acetate",
    "category": "agents",
    "uuid": "751c3bc4-7181-428a-9bc2-218f5c2d9ef7",
    "scraped_at": "2025-07-23T21:03:37.855008"
  },
  "parsed_at": "2025-07-24T01:18:05.791502",
  "title": "alpha-Naphthyl acetate",
  "sections": {
    "general": {
      "agent_name": {
        "original_name": "Agent Name",
        "value": "alpha-Naphthyl acetate",
        "links": [],
        "cross_references": [
          {
            "type": "name_match",
            "text": "ht",
            "confidence": 1.0,
            "uuid": "764df367-8d53-4a11-81a2-31ccfe122a8d",
            "name": "HT",
            "url": "https://haz-map.com/Agents/2168",
            "category": "agents"
          },
          {
            "type": "name_match",
            "text": "alpha-naphthyl acetate",
            "confidence": 1.0,
            "uuid": "751c3bc4-7181-428a-9bc2-218f5c2d9ef7",
            "name": "alpha-Naphthyl acetate",
            "url": "https://haz-map.com/Agents/11742",
            "category": "agents"
          },
          {
            "type": "name_match",
            "text": "naphthyl acetate",
            "confidence": 1.0,
            "uuid": "238b90ea-cd73-48e3-b05b-481f16601ea2",
            "name": "Naphthyl acetate",
            "url": "https://haz-map.com/Agents/15254",
            "category": "agents"
          }
        ]
      },
      "cas_number": {
        "original_name": "CAS Number",
        "value": "830-81-9",
        "links": [],
        "cross_references": []
      },
      "formula": {
        "original_name": "Formula",
        "value": "C12-H10-O2",
        "links": [],
        "cross_references": []
      },
      "major_category": {
        "original_name": "Major Category",
        "value": "Other Classes",
        "links": [],
        "cross_references": []
      },
      "synonyms": {
        "original_name": "Synonyms",
        "value": "1-Acetoxynaphthalene; 1-Naphthyl acetate; Acetic acid 1-naphthyl ester; Naphthalene, 1-acetoxy-; a-Naphthyl acetate; alpha-Acetoxynaphthalene; alpha-Naphthol acetate; 1-Naphthalenol, 1-acetate; 1-Naphthalenol, acetate; 1-Naphthol, acetate; [ChemIDplus]",
        "links": [],
        "cross_references": [
          {
            "type": "name_match",
            "text": "naphthalene",
            "confidence": 1.0,
            "uuid": "433cf489-5423-4297-a38e-6e755a9d458e",
            "name": "Naphthalene",
            "url": "https://haz-map.com/Agents/46",
            "category": "agents"
          },
          {
            "type": "name_match",
            "text": "acetic acid",
            "confidence": 1.0,
            "uuid": "0905c6e4-df84-4895-a92d-658819239bbd",
            "name": "Acetic acid",
            "url": "https://haz-map.com/Agents/207",
            "category": "agents"
          },
          {
            "type": "name_match",
            "text": "ht",
            "confidence": 1.0,
            "uuid": "764df367-8d53-4a11-81a2-31ccfe122a8d",
            "name": "HT",
            "url": "https://haz-map.com/Agents/2168",
            "category": "agents"
          },
          {
            "type": "name_match",
            "text": "1-naphthol",
            "confidence": 1.0,
            "uuid": "7095657c-d0c3-4b7c-ab72-7af1a2e6c0fc",
            "name": "1-Naphthol",
            "url": "https://haz-map.com/Agents/2904",
            "category": "agents"
          },
          {
            "type": "name_match",
            "text": "naphthyl acetate",
            "confidence": 1.0,
            "uuid": "238b90ea-cd73-48e3-b05b-481f16601ea2",
            "name": "Naphthyl acetate",
            "url": "https://haz-map.com/Agents/15254",
            "category": "agents"
          }
        ]
      },
      "category": {
        "original_name": "Category",
        "value": "Naphthalenes",
        "links": [],
        "cross_references": [
          {
            "type": "name_match",
            "text": "naphthalene",
            "confidence": 1.0,
            "uuid": "433cf489-5423-4297-a38e-6e755a9d458e",
            "name": "Naphthalene",
            "url": "https://haz-map.com/Agents/46",
            "category": "agents"
          },
          {
            "type": "name_match",
            "text": "ht",
            "confidence": 1.0,
            "uuid": "764df367-8d53-4a11-81a2-31ccfe122a8d",
            "name": "HT",
            "url": "https://haz-map.com/Agents/2168",
            "category": "agents"
          }
        ]
      },
      "description": {
        "original_name": "Description",
        "value": "White or cream-colored crystalline powder; [Alfa Aesar MSDS]",
        "links": [],
        "cross_references": [
          {
            "type": "fuzzy_match",
            "text": "crystalline",
            "matched_name": "Silica, crystalline",
            "confidence": 0.7061403508771931,
            "uuid": "f920e8a2-46df-41b7-af8d-0368a777251e",
            "category": "agents",
            "url": "https://haz-map.com/Agents/427"
          }
        ]
      },
      "comments": {
        "original_name": "Comments",
        "value": "An irritant; [Alfa Aesar MSDS] See \"Naphthalene.\"",
        "links": [],
        "cross_references": [
          {
            "type": "name_match",
            "text": "naphthalene",
            "confidence": 1.0,
            "uuid": "433cf489-5423-4297-a38e-6e755a9d458e",
            "name": "Naphthalene",
            "url": "https://haz-map.com/Agents/46",
            "category": "agents"
          },
          {
            "type": "name_match",
            "text": "ht",
            "confidence": 1.0,
            "uuid": "764df367-8d53-4a11-81a2-31ccfe122a8d",
            "name": "HT",
            "url": "https://haz-map.com/Agents/2168",
            "category": "agents"
          }
        ]
      },
      "biomedical_references": {
        "original_name": "Biomedical References",
        "value": "Search PubMed",
        "links": [
          {
            "text": "Search PubMed",
            "url": "https://www.ncbi.nlm.nih.gov/pubmed?term=alpha-Naphthyl+acetate%20AND%20human%5Bmh%5D%20AND%20%28Occupational%20Diseases%20%5Bmh%5D%20OR%20Occupational%20Exposure%20%5Bmh%5D%29%20%20AND%20%28tox%5Bsb%5D%29&cmd=search"
          }
        ],
        "cross_references": []
      }
    },
    "exposure_assessment": {
      "vapor_pressure": {
        "original_name": "Vapor Pressure",
        "value": "0.000761 mm Hg",
        "links": [],
        "cross_references": []
      }
    },
    "diseases_processes_and_activities_linked_to_this_agent": {
      "other_information": {
        "original_name": "Other Information",
        "value": "No other related information on this agent was found.",
        "links": [],
        "cross_references": []
      }
    }
  },
  "cross_references": [
    {
      "type": "name_match",
      "text": "naphthalene",
      "confidence": 1.0,
      "uuid": "433cf489-5423-4297-a38e-6e755a9d458e",
      "name": "Naphthalene",
      "url": "https://haz-map.com/Agents/46",
      "category": "agents"
    },
    {
      "type": "name_match",
      "text": "acetic acid",
      "confidence": 1.0,
      "uuid": "0905c6e4-df84-4895-a92d-658819239bbd",
      "name": "Acetic acid",
      "url": "https://haz-map.com/Agents/207",
      "category": "agents"
    },
    {
      "type": "name_match",
      "text": "ht",
      "confidence": 1.0,
      "uuid": "764df367-8d53-4a11-81a2-31ccfe122a8d",
      "name": "HT",
      "url": "https://haz-map.com/Agents/2168",
      "category": "agents"
    },
    {
      "type": "name_match",
      "text": "1-naphthol",
      "confidence": 1.0,
      "uuid": "7095657c-d0c3-4b7c-ab72-7af1a2e6c0fc",
      "name": "1-Naphthol",
      "url": "https://haz-map.com/Agents/2904",
      "category": "agents"
    },
    {
      "type": "name_match",
      "text": "alpha-naphthyl acetate",
      "confidence": 1.0,
      "uuid": "751c3bc4-7181-428a-9bc2-218f5c2d9ef7",
      "name": "alpha-Naphthyl acetate",
      "url": "https://haz-map.com/Agents/11742",
      "category": "agents"
    },
    {
      "type": "name_match",
      "text": "naphthyl acetate",
      "confidence": 1.0,
      "uuid": "238b90ea-cd73-48e3-b05b-481f16601ea2",
      "name": "Naphthyl acetate",
      "url": "https://haz-map.com/Agents/15254",
      "category": "agents"
    },
    {
      "type": "fuzzy_match",
      "text": "crystalline",
      "matched_name": "Silica, crystalline",
      "confidence": 0.7061403508771931,
      "uuid": "f920e8a2-46df-41b7-af8d-0368a777251e",
      "category": "agents",
      "url": "https://haz-map.com/Agents/427"
    }
  ],
  "all_links": [
    {
      "text": "Search PubMed",
      "url": "https://www.ncbi.nlm.nih.gov/pubmed?term=alpha-Naphthyl+acetate%20AND%20human%5Bmh%5D%20AND%20%28Occupational%20Diseases%20%5Bmh%5D%20OR%20Occupational%20Exposure%20%5Bmh%5D%29%20%20AND%20%28tox%5Bsb%5D%29&cmd=search"
    }
  ]
}