{
  "metadata": {
    "scraped_from": "https://haz-map.com/Agents/10580",
    "entity_name": "trans-Cyclopentane-1,2-diol",
    "category": "agents",
    "uuid": "759d9e8f-a175-4de4-b934-b7c2cb1e18d6",
    "scraped_at": "2025-07-23T20:49:40.623486"
  },
  "parsed_at": "2025-07-24T01:17:34.081263",
  "title": "trans-Cyclopentane-1,2-diol",
  "sections": {
    "general": {
      "agent_name": {
        "original_name": "Agent Name",
        "value": "trans-Cyclopentane-1,2-diol",
        "links": [],
        "cross_references": [
          {
            "type": "name_match",
            "text": "cyclopentane",
            "confidence": 1.0,
            "uuid": "6480e7e3-674a-4296-afdc-a9ce8b2f2850",
            "name": "Cyclopentane",
            "url": "https://haz-map.com/Agents/387",
            "category": "agents"
          },
          {
            "type": "name_match",
            "text": "trans-cyclopentane-1,2-diol",
            "confidence": 1.0,
            "uuid": "759d9e8f-a175-4de4-b934-b7c2cb1e18d6",
            "name": "trans-Cyclopentane-1,2-diol",
            "url": "https://haz-map.com/Agents/10580",
            "category": "agents"
          }
        ]
      },
      "cas_number": {
        "original_name": "CAS Number",
        "value": "5057-99-8",
        "links": [],
        "cross_references": []
      },
      "formula": {
        "original_name": "Formula",
        "value": "C5-H10-O2",
        "links": [],
        "cross_references": []
      },
      "major_category": {
        "original_name": "Major Category",
        "value": "Other Classes",
        "links": [],
        "cross_references": []
      },
      "synonyms": {
        "original_name": "Synonyms",
        "value": "trans-1,2-Cyclopentanediol; [Aldrich MSDS]",
        "links": [],
        "cross_references": [
          {
            "type": "name_match",
            "text": "cyclopentane",
            "confidence": 1.0,
            "uuid": "6480e7e3-674a-4296-afdc-a9ce8b2f2850",
            "name": "Cyclopentane",
            "url": "https://haz-map.com/Agents/387",
            "category": "agents"
          }
        ]
      },
      "category": {
        "original_name": "Category",
        "value": "Alcohols and Polyols, Other",
        "links": [],
        "cross_references": []
      },
      "description": {
        "original_name": "Description",
        "value": "Melting point = 54-56 deg C; [Aldrich MSDS]",
        "links": [],
        "cross_references": []
      },
      "comments": {
        "original_name": "Comments",
        "value": "May cause irritation; [Aldrich MSDS] See \"Cyclopentanol.\"",
        "links": [],
        "cross_references": [
          {
            "type": "name_match",
            "text": "cyclopentanol",
            "confidence": 1.0,
            "uuid": "07966545-a445-4bdd-8d7d-f74b30ebfe61",
            "name": "Cyclopentanol",
            "url": "https://haz-map.com/Agents/8250",
            "category": "agents"
          }
        ]
      },
      "biomedical_references": {
        "original_name": "Biomedical References",
        "value": "Search PubMed",
        "links": [
          {
            "text": "Search PubMed",
            "url": "https://www.ncbi.nlm.nih.gov/pubmed?term=trans-Cyclopentane-1%2c2-diol%20AND%20human%5Bmh%5D%20AND%20%28Occupational%20Diseases%20%5Bmh%5D%20OR%20Occupational%20Exposure%20%5Bmh%5D%29%20%20AND%20%28tox%5Bsb%5D%29&cmd=search"
          }
        ],
        "cross_references": []
      }
    },
    "adverse_effects": {
      "neurotoxin": {
        "original_name": "Neurotoxin",
        "value": "Acute solvent syndrome",
        "links": [],
        "cross_references": []
      }
    },
    "diseases_processes_and_activities_linked_to_this_agent": {
      "diseases": {
        "original_name": "Diseases",
        "value": "Occupational diseases associated with exposure to this agent: Solvents, acute toxic effect",
        "links": [
          {
            "text": "Solvents, acute toxic effect",
            "url": "https://haz-map.com/Diseases/326"
          }
        ],
        "cross_references": [
          {
            "type": "url_match",
            "text": "Solvents, acute toxic effect",
            "url": "https://haz-map.com/Diseases/326",
            "confidence": 1.0,
            "uuid": "581e90e3-9d0c-45f0-aa6c-3468c28da129",
            "name": "Solvents, acute toxic effect",
            "category": "diseases"
          }
        ]
      }
    }
  },
  "cross_references": [
    {
      "type": "url_match",
      "text": "Solvents, acute toxic effect",
      "url": "https://haz-map.com/Diseases/326",
      "confidence": 1.0,
      "uuid": "581e90e3-9d0c-45f0-aa6c-3468c28da129",
      "name": "Solvents, acute toxic effect",
      "category": "diseases"
    },
    {
      "type": "name_match",
      "text": "cyclopentane",
      "confidence": 1.0,
      "uuid": "6480e7e3-674a-4296-afdc-a9ce8b2f2850",
      "name": "Cyclopentane",
      "url": "https://haz-map.com/Agents/387",
      "category": "agents"
    },
    {
      "type": "name_match",
      "text": "cyclopentanol",
      "confidence": 1.0,
      "uuid": "07966545-a445-4bdd-8d7d-f74b30ebfe61",
      "name": "Cyclopentanol",
      "url": "https://haz-map.com/Agents/8250",
      "category": "agents"
    },
    {
      "type": "name_match",
      "text": "trans-cyclopentane-1,2-diol",
      "confidence": 1.0,
      "uuid": "759d9e8f-a175-4de4-b934-b7c2cb1e18d6",
      "name": "trans-Cyclopentane-1,2-diol",
      "url": "https://haz-map.com/Agents/10580",
      "category": "agents"
    }
  ],
  "all_links": [
    {
      "text": "Search PubMed",
      "url": "https://www.ncbi.nlm.nih.gov/pubmed?term=trans-Cyclopentane-1%2c2-diol%20AND%20human%5Bmh%5D%20AND%20%28Occupational%20Diseases%20%5Bmh%5D%20OR%20Occupational%20Exposure%20%5Bmh%5D%29%20%20AND%20%28tox%5Bsb%5D%29&cmd=search"
    },
    {
      "text": "Solvents, acute toxic effect",
      "url": "https://haz-map.com/Diseases/326"
    }
  ]
}