{
  "metadata": {
    "scraped_from": "https://haz-map.com/Agents/5726",
    "entity_name": "Isopropyl methanesulfonate",
    "category": "agents",
    "uuid": "75d8d72d-ebd9-4102-bcf2-bc0a3a5c055a",
    "scraped_at": "2025-07-23T19:55:32.436206"
  },
  "parsed_at": "2025-07-24T00:55:30.396444",
  "title": "Isopropyl methanesulfonate",
  "sections": {
    "general": {
      "agent_name": {
        "original_name": "Agent Name",
        "value": "Isopropyl methanesulfonate",
        "links": [],
        "cross_references": [
          {
            "type": "name_match",
            "text": "methane",
            "confidence": 1.0,
            "uuid": "5018bf73-24be-4353-8643-c351d5f52186",
            "name": "Methane",
            "url": "https://haz-map.com/Agents/1074",
            "category": "agents"
          },
          {
            "type": "name_match",
            "text": "ethane",
            "confidence": 1.0,
            "uuid": "5162cc8c-dfb9-4060-81ac-38a8cec7f9dd",
            "name": "Ethane",
            "url": "https://haz-map.com/Agents/1075",
            "category": "agents"
          },
          {
            "type": "name_match",
            "text": "isopropyl methanesulfonate",
            "confidence": 1.0,
            "uuid": "75d8d72d-ebd9-4102-bcf2-bc0a3a5c055a",
            "name": "Isopropyl methanesulfonate",
            "url": "https://haz-map.com/Agents/5726",
            "category": "agents"
          }
        ]
      },
      "cas_number": {
        "original_name": "CAS Number",
        "value": "926-06-7",
        "links": [],
        "cross_references": []
      },
      "formula": {
        "original_name": "Formula",
        "value": "C4-H10-O3-S",
        "links": [],
        "cross_references": []
      },
      "major_category": {
        "original_name": "Major Category",
        "value": "Other Classes",
        "links": [],
        "cross_references": []
      },
      "synonyms": {
        "original_name": "Synonyms",
        "value": "2-Propyl methanesulfonate; 2-Propyl methanesulphonate; IMS; Isopropyl mesylate; Isopropyl methane sulfonate; Isopropyl methane sulphonate; Isopropyl methanesulphonate; Isopropylmethanesulfonate; Methanesulfonic acid, 1-methylethyl ester; Methanesulfonic acid, isopropyl ester; [ChemIDplus]",
        "links": [],
        "cross_references": [
          {
            "type": "name_match",
            "text": "methane",
            "confidence": 1.0,
            "uuid": "5018bf73-24be-4353-8643-c351d5f52186",
            "name": "Methane",
            "url": "https://haz-map.com/Agents/1074",
            "category": "agents"
          },
          {
            "type": "name_match",
            "text": "ethane",
            "confidence": 1.0,
            "uuid": "5162cc8c-dfb9-4060-81ac-38a8cec7f9dd",
            "name": "Ethane",
            "url": "https://haz-map.com/Agents/1075",
            "category": "agents"
          },
          {
            "type": "name_match",
            "text": "methanesulfonic acid",
            "confidence": 1.0,
            "uuid": "7ad58089-503f-4386-818f-d94c4f90af84",
            "name": "Methanesulfonic acid",
            "url": "https://haz-map.com/Agents/1418",
            "category": "agents"
          },
          {
            "type": "name_match",
            "text": "ethanesulfonic acid",
            "confidence": 1.0,
            "uuid": "b21ff073-f9ac-47dc-a941-22a6957ce9a9",
            "name": "Ethanesulfonic acid",
            "url": "https://haz-map.com/Agents/14157",
            "category": "agents"
          }
        ]
      },
      "category": {
        "original_name": "Category",
        "value": "Sulfur Compounds",
        "links": [],
        "cross_references": [
          {
            "type": "name_match",
            "text": "sulfur",
            "confidence": 1.0,
            "uuid": "5aabdef6-71c8-44c8-b762-feaabff50696",
            "name": "Sulfur",
            "url": "https://haz-map.com/Agents/1942",
            "category": "agents"
          }
        ]
      },
      "description": {
        "original_name": "Description",
        "value": "Clear colorless liquid; [HSDB]",
        "links": [],
        "cross_references": []
      },
      "sourcesuses": {
        "original_name": "Sources/Uses",
        "value": "Used as an alkylating agent and research chemical; [HSDB]",
        "links": [],
        "cross_references": [
          {
            "type": "name_match",
            "text": "mica",
            "confidence": 1.0,
            "uuid": "433f26f1-c399-4596-b179-ce3843cfd465",
            "name": "Mica",
            "url": "https://haz-map.com/Agents/621",
            "category": "agents"
          }
        ]
      },
      "comments": {
        "original_name": "Comments",
        "value": "A Tumorigen, Mutagen, and Reproductive Effector; [RTECS] An irritant; [MSDSonline]",
        "links": [],
        "cross_references": []
      },
      "biomedical_references": {
        "original_name": "Biomedical References",
        "value": "Search PubMed",
        "links": [
          {
            "text": "Search PubMed",
            "url": "https://www.ncbi.nlm.nih.gov/pubmed?term=Isopropyl+methanesulfonate%20AND%20human%5Bmh%5D%20AND%20%28Occupational%20Diseases%20%5Bmh%5D%20OR%20Occupational%20Exposure%20%5Bmh%5D%29%20%20AND%20%28tox%5Bsb%5D%29&cmd=search"
          }
        ],
        "cross_references": []
      }
    },
    "exposure_assessment": {
      "vapor_pressure": {
        "original_name": "Vapor Pressure",
        "value": "0.436 mm Hg",
        "links": [],
        "cross_references": []
      }
    },
    "adverse_effects": {
      "reproductive_toxin": {
        "original_name": "Reproductive Toxin",
        "value": "Yes",
        "links": [],
        "cross_references": []
      }
    },
    "diseases_processes_and_activities_linked_to_this_agent": {
      "other_information": {
        "original_name": "Other Information",
        "value": "No other related information on this agent was found.",
        "links": [],
        "cross_references": []
      }
    }
  },
  "cross_references": [
    {
      "type": "name_match",
      "text": "mica",
      "confidence": 1.0,
      "uuid": "433f26f1-c399-4596-b179-ce3843cfd465",
      "name": "Mica",
      "url": "https://haz-map.com/Agents/621",
      "category": "agents"
    },
    {
      "type": "name_match",
      "text": "methane",
      "confidence": 1.0,
      "uuid": "5018bf73-24be-4353-8643-c351d5f52186",
      "name": "Methane",
      "url": "https://haz-map.com/Agents/1074",
      "category": "agents"
    },
    {
      "type": "name_match",
      "text": "ethane",
      "confidence": 1.0,
      "uuid": "5162cc8c-dfb9-4060-81ac-38a8cec7f9dd",
      "name": "Ethane",
      "url": "https://haz-map.com/Agents/1075",
      "category": "agents"
    },
    {
      "type": "name_match",
      "text": "methanesulfonic acid",
      "confidence": 1.0,
      "uuid": "7ad58089-503f-4386-818f-d94c4f90af84",
      "name": "Methanesulfonic acid",
      "url": "https://haz-map.com/Agents/1418",
      "category": "agents"
    },
    {
      "type": "name_match",
      "text": "sulfur",
      "confidence": 1.0,
      "uuid": "5aabdef6-71c8-44c8-b762-feaabff50696",
      "name": "Sulfur",
      "url": "https://haz-map.com/Agents/1942",
      "category": "agents"
    },
    {
      "type": "name_match",
      "text": "isopropyl methanesulfonate",
      "confidence": 1.0,
      "uuid": "75d8d72d-ebd9-4102-bcf2-bc0a3a5c055a",
      "name": "Isopropyl methanesulfonate",
      "url": "https://haz-map.com/Agents/5726",
      "category": "agents"
    },
    {
      "type": "name_match",
      "text": "ethanesulfonic acid",
      "confidence": 1.0,
      "uuid": "b21ff073-f9ac-47dc-a941-22a6957ce9a9",
      "name": "Ethanesulfonic acid",
      "url": "https://haz-map.com/Agents/14157",
      "category": "agents"
    }
  ],
  "all_links": [
    {
      "text": "Search PubMed",
      "url": "https://www.ncbi.nlm.nih.gov/pubmed?term=Isopropyl+methanesulfonate%20AND%20human%5Bmh%5D%20AND%20%28Occupational%20Diseases%20%5Bmh%5D%20OR%20Occupational%20Exposure%20%5Bmh%5D%29%20%20AND%20%28tox%5Bsb%5D%29&cmd=search"
    }
  ]
}