{
  "metadata": {
    "scraped_from": "https://haz-map.com/Agents/6211",
    "entity_name": "Muldamine",
    "category": "agents",
    "uuid": "75eb7452-dc31-476b-8bb8-3cc1a9118c76",
    "scraped_at": "2025-07-23T19:59:34.976680"
  },
  "parsed_at": "2025-07-24T00:58:30.236613",
  "title": "Muldamine",
  "sections": {
    "general": {
      "agent_name": {
        "original_name": "Agent Name",
        "value": "Muldamine",
        "links": [],
        "cross_references": [
          {
            "type": "name_match",
            "text": "muldamine",
            "confidence": 1.0,
            "uuid": "75eb7452-dc31-476b-8bb8-3cc1a9118c76",
            "name": "Muldamine",
            "url": "https://haz-map.com/Agents/6211",
            "category": "agents"
          }
        ]
      },
      "cas_number": {
        "original_name": "CAS Number",
        "value": "36069-45-1",
        "links": [],
        "cross_references": []
      },
      "formula": {
        "original_name": "Formula",
        "value": "C29-H47-N-O3",
        "links": [],
        "cross_references": []
      },
      "major_category": {
        "original_name": "Major Category",
        "value": "Biological Agents",
        "links": [],
        "cross_references": []
      },
      "synonyms": {
        "original_name": "Synonyms",
        "value": "Alkaloid Q; Alkaloid Q, from veratrum californicum; 16,28-Secosolanid-5-ene-3,16-diol, 16-acetate, (3-beta, 16-alpha, 22-alpha)-; [ChemIDplus]",
        "links": [],
        "cross_references": []
      },
      "category": {
        "original_name": "Category",
        "value": "Plant Toxins",
        "links": [],
        "cross_references": []
      },
      "description": {
        "original_name": "Description",
        "value": "Solid; [HSDB]",
        "links": [],
        "cross_references": []
      },
      "sourcesuses": {
        "original_name": "Sources/Uses",
        "value": "A steroidal alkaloid found in Veratrum californicum (California false hellebore); [HSDB]",
        "links": [],
        "cross_references": []
      },
      "comments": {
        "original_name": "Comments",
        "value": "Emergency treatment: \"Plants- veratrum alkaloids\"; Excessive amounts can cause death by central respiratory depression; [HSDB] Veratrum alkaloids (e.g., black snakeroot, false hellebore, and skunk cabbage) cause gastroenteritis, bradycardia, paresthesias, AV block, and syncope;; [Olson, p. 376-92]",
        "links": [],
        "cross_references": [
          {
            "type": "name_match",
            "text": "paresthesia",
            "confidence": 1.0,
            "uuid": "cf0020a9-92ed-4a41-8058-60a543f49836",
            "name": "paresthesia",
            "url": "https://haz-map.com/Findings/26",
            "category": "findings"
          },
          {
            "type": "name_match",
            "text": "syncope",
            "confidence": 1.0,
            "uuid": "2c538494-dd39-46f3-840f-4c36434a46fb",
            "name": "syncope",
            "url": "https://haz-map.com/Findings/48",
            "category": "findings"
          },
          {
            "type": "name_match",
            "text": "bradycardia",
            "confidence": 1.0,
            "uuid": "7a17508f-d651-458e-9047-8a017f202133",
            "name": "bradycardia",
            "url": "https://haz-map.com/Findings/127",
            "category": "findings"
          },
          {
            "type": "name_match",
            "text": "veratrum alkaloids",
            "confidence": 1.0,
            "uuid": "492829a5-27d9-4f3d-8ec1-24706ea391dc",
            "name": "Veratrum alkaloids",
            "url": "https://haz-map.com/Agents/7722",
            "category": "agents"
          }
        ]
      },
      "biomedical_references": {
        "original_name": "Biomedical References",
        "value": "Search PubMed",
        "links": [
          {
            "text": "Search PubMed",
            "url": "https://www.ncbi.nlm.nih.gov/pubmed?term=Muldamine%20AND%20human%5Bmh%5D%20AND%20%28Occupational%20Diseases%20%5Bmh%5D%20OR%20Occupational%20Exposure%20%5Bmh%5D%29%20%20AND%20%28tox%5Bsb%5D%29&cmd=search"
          }
        ],
        "cross_references": []
      }
    },
    "exposure_assessment": {
      "vapor_pressure": {
        "original_name": "Vapor Pressure",
        "value": "4.23E-13 mm Hg",
        "links": [],
        "cross_references": []
      }
    },
    "adverse_effects": {
      "neurotoxin": {
        "original_name": "Neurotoxin",
        "value": "Other CNS neurotoxin",
        "links": [],
        "cross_references": []
      }
    },
    "diseases_processes_and_activities_linked_to_this_agent": {
      "other_information": {
        "original_name": "Other Information",
        "value": "No other related information on this agent was found.",
        "links": [],
        "cross_references": []
      }
    }
  },
  "cross_references": [
    {
      "type": "name_match",
      "text": "paresthesia",
      "confidence": 1.0,
      "uuid": "cf0020a9-92ed-4a41-8058-60a543f49836",
      "name": "paresthesia",
      "url": "https://haz-map.com/Findings/26",
      "category": "findings"
    },
    {
      "type": "name_match",
      "text": "syncope",
      "confidence": 1.0,
      "uuid": "2c538494-dd39-46f3-840f-4c36434a46fb",
      "name": "syncope",
      "url": "https://haz-map.com/Findings/48",
      "category": "findings"
    },
    {
      "type": "name_match",
      "text": "bradycardia",
      "confidence": 1.0,
      "uuid": "7a17508f-d651-458e-9047-8a017f202133",
      "name": "bradycardia",
      "url": "https://haz-map.com/Findings/127",
      "category": "findings"
    },
    {
      "type": "name_match",
      "text": "muldamine",
      "confidence": 1.0,
      "uuid": "75eb7452-dc31-476b-8bb8-3cc1a9118c76",
      "name": "Muldamine",
      "url": "https://haz-map.com/Agents/6211",
      "category": "agents"
    },
    {
      "type": "name_match",
      "text": "veratrum alkaloids",
      "confidence": 1.0,
      "uuid": "492829a5-27d9-4f3d-8ec1-24706ea391dc",
      "name": "Veratrum alkaloids",
      "url": "https://haz-map.com/Agents/7722",
      "category": "agents"
    }
  ],
  "all_links": [
    {
      "text": "Search PubMed",
      "url": "https://www.ncbi.nlm.nih.gov/pubmed?term=Muldamine%20AND%20human%5Bmh%5D%20AND%20%28Occupational%20Diseases%20%5Bmh%5D%20OR%20Occupational%20Exposure%20%5Bmh%5D%29%20%20AND%20%28tox%5Bsb%5D%29&cmd=search"
    }
  ]
}