{
  "metadata": {
    "scraped_from": "https://haz-map.com/Agents/10453",
    "entity_name": "Isopropylidene glycerol",
    "category": "agents",
    "uuid": "76192041-245e-4aa4-9e63-25159734b2f4",
    "scraped_at": "2025-07-23T20:47:37.376345"
  },
  "parsed_at": "2025-07-24T01:15:17.615493",
  "title": "Isopropylidene glycerol",
  "sections": {
    "general": {
      "agent_name": {
        "original_name": "Agent Name",
        "value": "Isopropylidene glycerol",
        "links": [],
        "cross_references": [
          {
            "type": "name_match",
            "text": "isopropylidene glycerol",
            "confidence": 1.0,
            "uuid": "76192041-245e-4aa4-9e63-25159734b2f4",
            "name": "Isopropylidene glycerol",
            "url": "https://haz-map.com/Agents/10453",
            "category": "agents"
          }
        ]
      },
      "alternative_name": {
        "original_name": "Alternative Name",
        "value": "2,2-Dimethyl-1,3-dioxolane-4-methanol",
        "links": [],
        "cross_references": [
          {
            "type": "name_match",
            "text": "1,3-dioxolane",
            "confidence": 1.0,
            "uuid": "2795e631-b9ad-44bb-8fdd-aab5a93aadbe",
            "name": "1,3-Dioxolane",
            "url": "https://haz-map.com/Agents/1522",
            "category": "agents"
          }
        ]
      },
      "cas_number": {
        "original_name": "CAS Number",
        "value": "100-79-8",
        "links": [],
        "cross_references": []
      },
      "formula": {
        "original_name": "Formula",
        "value": "C6-H12-O3",
        "links": [],
        "cross_references": []
      },
      "major_category": {
        "original_name": "Major Category",
        "value": "Solvents",
        "links": [],
        "cross_references": []
      },
      "synonyms": {
        "original_name": "Synonyms",
        "value": "2,2-Dimethyl-1,3-dioxolane-4-methanol; 1,2-Isopropylideneglycerin; 1,2-Isopropylideneglycerol; 1,2-O,O-Isopropylideneglycerin; 1,2-O-Isopropylideneglycerol; 2,2-Dimethyl-1,3-dioxolan-4-yl methanol; 2,2-Dimethyl-4-(hydroxymethyl)-1,3-dioxacyclopentane; 2,2-Dimethyl-4-hydroxymethyldioxolane; 2,2-Dimethyl-4-oxymethyl-1,3-dioxolane; 2,2-Dimethyl-5-hydroxymethyl-1,3-dioxolane; 2,3-(Isopropylidenedioxy)propanol; 2,3-Isopropylideneglycerol; 4-Hydroxymethyl-2,2-dimethyl-1,3-dioxolane; Acetone glycerol; Acetone monoglycerol ketal; Acetone, cyclic (hydroxymethyl)ethylene acetal; Dioxolan; GIE; Glycerinisopropylidene ether; Glycerol acetonide (VAN); Glycerol dimethylketal; Glycerol, 1,2-O-isopropylidene; Glycerolacetone; Solketal; alpha,beta-Isopropylideneglycerol; 1,3-Dioxolane-4-methanol, 2,2-dimethyl-; [ChemIDplus]",
        "links": [],
        "cross_references": [
          {
            "type": "name_match",
            "text": "acetone",
            "confidence": 1.0,
            "uuid": "31b7bdae-eb37-44cc-9c56-b6dfc1908d64",
            "name": "Acetone",
            "url": "https://haz-map.com/Agents/138",
            "category": "agents"
          },
          {
            "type": "name_match",
            "text": "cyclopentane",
            "confidence": 1.0,
            "uuid": "6480e7e3-674a-4296-afdc-a9ce8b2f2850",
            "name": "Cyclopentane",
            "url": "https://haz-map.com/Agents/387",
            "category": "agents"
          },
          {
            "type": "name_match",
            "text": "glycerin",
            "confidence": 1.0,
            "uuid": "28d55633-4d0d-446a-82c8-ed15a611f2bd",
            "name": "Glycerin",
            "url": "https://haz-map.com/Agents/501",
            "category": "agents"
          },
          {
            "type": "name_match",
            "text": "ethylene",
            "confidence": 1.0,
            "uuid": "958eacc0-5135-4b62-bb93-6df972bf552f",
            "name": "Ethylene",
            "url": "https://haz-map.com/Agents/1076",
            "category": "agents"
          },
          {
            "type": "name_match",
            "text": "1,3-dioxolane",
            "confidence": 1.0,
            "uuid": "2795e631-b9ad-44bb-8fdd-aab5a93aadbe",
            "name": "1,3-Dioxolane",
            "url": "https://haz-map.com/Agents/1522",
            "category": "agents"
          },
          {
            "type": "name_match",
            "text": "acetal",
            "confidence": 1.0,
            "uuid": "1ee09b5b-04fd-47c0-ab34-a2d9db740bcb",
            "name": "Acetal",
            "url": "https://haz-map.com/Agents/3381",
            "category": "agents"
          }
        ]
      },
      "category": {
        "original_name": "Category",
        "value": "Other Solvents",
        "links": [],
        "cross_references": []
      },
      "description": {
        "original_name": "Description",
        "value": "Nearly odorless liquid; [Merck Index] Colorless oily liquid; Odorless; [ICSC]",
        "links": [],
        "cross_references": []
      },
      "sourcesuses": {
        "original_name": "Sources/Uses",
        "value": "Used as solvent, plasticizer, and pharmaceutical aid (solubilizing and suspending agent); [Merck Index]",
        "links": [],
        "cross_references": []
      },
      "comments": {
        "original_name": "Comments",
        "value": "An eye irritant; Causes change in heart rate and blood pressure in intravenous lethal-dose studies of rats and rabbits; [RTECS] An eye irritant; [ICSC] May cause irritation; [Alfa Aesar MSDS] See \"1,3-Dioxolane.\"",
        "links": [],
        "cross_references": [
          {
            "type": "name_match",
            "text": "1,3-dioxolane",
            "confidence": 1.0,
            "uuid": "2795e631-b9ad-44bb-8fdd-aab5a93aadbe",
            "name": "1,3-Dioxolane",
            "url": "https://haz-map.com/Agents/1522",
            "category": "agents"
          }
        ]
      },
      "biomedical_references": {
        "original_name": "Biomedical References",
        "value": "Search PubMed",
        "links": [
          {
            "text": "Search PubMed",
            "url": "https://www.ncbi.nlm.nih.gov/pubmed?term=Isopropylidene+glycerol%20AND%20human%5Bmh%5D%20AND%20%28Occupational%20Diseases%20%5Bmh%5D%20OR%20Occupational%20Exposure%20%5Bmh%5D%29%20%20AND%20%28tox%5Bsb%5D%29&cmd=search"
          }
        ],
        "cross_references": []
      }
    },
    "exposure_assessment": {
      "vapor_pressure": {
        "original_name": "Vapor Pressure",
        "value": "107 mm Hg",
        "links": [],
        "cross_references": []
      },
      "explanatory_notes": {
        "original_name": "Explanatory Notes",
        "value": "VP from ChemIDplus;",
        "links": [],
        "cross_references": []
      },
      "nfpa": {
        "original_name": "NFPA",
        "value": "may ignite at ambient temp",
        "links": [],
        "cross_references": []
      }
    },
    "adverse_effects": {
      "neurotoxin": {
        "original_name": "Neurotoxin",
        "value": "Acute solvent syndrome",
        "links": [],
        "cross_references": []
      }
    },
    "diseases_processes_and_activities_linked_to_this_agent": {
      "diseases": {
        "original_name": "Diseases",
        "value": "Occupational diseases associated with exposure to this agent: Solvents, acute toxic effect",
        "links": [
          {
            "text": "Solvents, acute toxic effect",
            "url": "https://haz-map.com/Diseases/326"
          }
        ],
        "cross_references": [
          {
            "type": "url_match",
            "text": "Solvents, acute toxic effect",
            "url": "https://haz-map.com/Diseases/326",
            "confidence": 1.0,
            "uuid": "581e90e3-9d0c-45f0-aa6c-3468c28da129",
            "name": "Solvents, acute toxic effect",
            "category": "diseases"
          }
        ]
      }
    }
  },
  "cross_references": [
    {
      "type": "url_match",
      "text": "Solvents, acute toxic effect",
      "url": "https://haz-map.com/Diseases/326",
      "confidence": 1.0,
      "uuid": "581e90e3-9d0c-45f0-aa6c-3468c28da129",
      "name": "Solvents, acute toxic effect",
      "category": "diseases"
    },
    {
      "type": "name_match",
      "text": "acetone",
      "confidence": 1.0,
      "uuid": "31b7bdae-eb37-44cc-9c56-b6dfc1908d64",
      "name": "Acetone",
      "url": "https://haz-map.com/Agents/138",
      "category": "agents"
    },
    {
      "type": "name_match",
      "text": "cyclopentane",
      "confidence": 1.0,
      "uuid": "6480e7e3-674a-4296-afdc-a9ce8b2f2850",
      "name": "Cyclopentane",
      "url": "https://haz-map.com/Agents/387",
      "category": "agents"
    },
    {
      "type": "name_match",
      "text": "glycerin",
      "confidence": 1.0,
      "uuid": "28d55633-4d0d-446a-82c8-ed15a611f2bd",
      "name": "Glycerin",
      "url": "https://haz-map.com/Agents/501",
      "category": "agents"
    },
    {
      "type": "name_match",
      "text": "ethylene",
      "confidence": 1.0,
      "uuid": "958eacc0-5135-4b62-bb93-6df972bf552f",
      "name": "Ethylene",
      "url": "https://haz-map.com/Agents/1076",
      "category": "agents"
    },
    {
      "type": "name_match",
      "text": "1,3-dioxolane",
      "confidence": 1.0,
      "uuid": "2795e631-b9ad-44bb-8fdd-aab5a93aadbe",
      "name": "1,3-Dioxolane",
      "url": "https://haz-map.com/Agents/1522",
      "category": "agents"
    },
    {
      "type": "name_match",
      "text": "acetal",
      "confidence": 1.0,
      "uuid": "1ee09b5b-04fd-47c0-ab34-a2d9db740bcb",
      "name": "Acetal",
      "url": "https://haz-map.com/Agents/3381",
      "category": "agents"
    },
    {
      "type": "name_match",
      "text": "isopropylidene glycerol",
      "confidence": 1.0,
      "uuid": "76192041-245e-4aa4-9e63-25159734b2f4",
      "name": "Isopropylidene glycerol",
      "url": "https://haz-map.com/Agents/10453",
      "category": "agents"
    }
  ],
  "all_links": [
    {
      "text": "Search PubMed",
      "url": "https://www.ncbi.nlm.nih.gov/pubmed?term=Isopropylidene+glycerol%20AND%20human%5Bmh%5D%20AND%20%28Occupational%20Diseases%20%5Bmh%5D%20OR%20Occupational%20Exposure%20%5Bmh%5D%29%20%20AND%20%28tox%5Bsb%5D%29&cmd=search"
    },
    {
      "text": "Solvents, acute toxic effect",
      "url": "https://haz-map.com/Diseases/326"
    }
  ]
}