{
  "metadata": {
    "scraped_from": "https://haz-map.com/Agents/15535",
    "entity_name": "Methyl perfluoropropyl ether",
    "category": "agents",
    "uuid": "76199e5a-dadc-4dd6-b8d5-33bd06f29c1b",
    "scraped_at": "2025-07-23T21:30:36.729039"
  },
  "parsed_at": "2025-07-24T01:14:42.198208",
  "title": "Methyl perfluoropropyl ether",
  "sections": {
    "general": {
      "agent_name": {
        "original_name": "Agent Name",
        "value": "Methyl perfluoropropyl ether",
        "links": [],
        "cross_references": [
          {
            "type": "name_match",
            "text": "propyl ether",
            "confidence": 1.0,
            "uuid": "d7fd5f45-8c96-4f89-94a6-41e51c92487e",
            "name": "Propyl ether",
            "url": "https://haz-map.com/Agents/1481",
            "category": "agents"
          },
          {
            "type": "name_match",
            "text": "methyl perfluoropropyl ether",
            "confidence": 1.0,
            "uuid": "76199e5a-dadc-4dd6-b8d5-33bd06f29c1b",
            "name": "Methyl perfluoropropyl ether",
            "url": "https://haz-map.com/Agents/15535",
            "category": "agents"
          }
        ]
      },
      "cas_number": {
        "original_name": "CAS Number",
        "value": "375-03-1",
        "links": [],
        "cross_references": []
      },
      "formula": {
        "original_name": "Formula",
        "value": "C4-H3-F7-O",
        "links": [],
        "cross_references": []
      },
      "major_category": {
        "original_name": "Major Category",
        "value": "Other Classes",
        "links": [],
        "cross_references": []
      },
      "synonyms": {
        "original_name": "Synonyms",
        "value": "E 347; HFE 301; HFE 347; HFE 347mcc; HFE 7000; Novec HFE 7000; Perfluoropropyl methyl ether; R-E 347mcc1; Propane, 1,1,1,2,2,3,3-heptafluoro-3-methoxy-; [ChemIDplus] Novec 7000 Engineered Fluid; [3M MSDS]",
        "links": [],
        "cross_references": [
          {
            "type": "name_match",
            "text": "ethyl ether",
            "confidence": 1.0,
            "uuid": "c95edddc-9ad3-44f8-bafa-78e0bd19db3a",
            "name": "Ethyl ether",
            "url": "https://haz-map.com/Agents/455",
            "category": "agents"
          },
          {
            "type": "name_match",
            "text": "propane",
            "confidence": 1.0,
            "uuid": "563a611b-46ea-4bdc-b77b-17d8f7646283",
            "name": "Propane",
            "url": "https://haz-map.com/Agents/607",
            "category": "agents"
          }
        ]
      },
      "category": {
        "original_name": "Category",
        "value": "Halogenated Ethers",
        "links": [],
        "cross_references": []
      },
      "description": {
        "original_name": "Description",
        "value": "Colorless liquid with a mild odor of ether; [3M MSDS]",
        "links": [],
        "cross_references": []
      },
      "sourcesuses": {
        "original_name": "Sources/Uses",
        "value": "Used as a heat transfer fluid, refrigerant, and aerosol spray cleaner; [3M MSDS]",
        "links": [],
        "cross_references": []
      },
      "comments": {
        "original_name": "Comments",
        "value": "Not expected to cause significant irritation; [3M MSDS]",
        "links": [],
        "cross_references": []
      },
      "biomedical_references": {
        "original_name": "Biomedical References",
        "value": "Search PubMed",
        "links": [
          {
            "text": "Search PubMed",
            "url": "https://www.ncbi.nlm.nih.gov/pubmed?term=Methyl+perfluoropropyl+ether%20AND%20human%5Bmh%5D%20AND%20%28Occupational%20Diseases%20%5Bmh%5D%20OR%20Occupational%20Exposure%20%5Bmh%5D%29%20%20AND%20%28tox%5Bsb%5D%29&cmd=search"
          }
        ],
        "cross_references": []
      }
    },
    "exposure_assessment": {
      "vapor_pressure": {
        "original_name": "Vapor Pressure",
        "value": "403 mm Hg",
        "links": [],
        "cross_references": []
      }
    },
    "diseases_processes_and_activities_linked_to_this_agent": {
      "other_information": {
        "original_name": "Other Information",
        "value": "No other related information on this agent was found.",
        "links": [],
        "cross_references": []
      }
    }
  },
  "cross_references": [
    {
      "type": "name_match",
      "text": "ethyl ether",
      "confidence": 1.0,
      "uuid": "c95edddc-9ad3-44f8-bafa-78e0bd19db3a",
      "name": "Ethyl ether",
      "url": "https://haz-map.com/Agents/455",
      "category": "agents"
    },
    {
      "type": "name_match",
      "text": "propane",
      "confidence": 1.0,
      "uuid": "563a611b-46ea-4bdc-b77b-17d8f7646283",
      "name": "Propane",
      "url": "https://haz-map.com/Agents/607",
      "category": "agents"
    },
    {
      "type": "name_match",
      "text": "propyl ether",
      "confidence": 1.0,
      "uuid": "d7fd5f45-8c96-4f89-94a6-41e51c92487e",
      "name": "Propyl ether",
      "url": "https://haz-map.com/Agents/1481",
      "category": "agents"
    },
    {
      "type": "name_match",
      "text": "methyl perfluoropropyl ether",
      "confidence": 1.0,
      "uuid": "76199e5a-dadc-4dd6-b8d5-33bd06f29c1b",
      "name": "Methyl perfluoropropyl ether",
      "url": "https://haz-map.com/Agents/15535",
      "category": "agents"
    }
  ],
  "all_links": [
    {
      "text": "Search PubMed",
      "url": "https://www.ncbi.nlm.nih.gov/pubmed?term=Methyl+perfluoropropyl+ether%20AND%20human%5Bmh%5D%20AND%20%28Occupational%20Diseases%20%5Bmh%5D%20OR%20Occupational%20Exposure%20%5Bmh%5D%29%20%20AND%20%28tox%5Bsb%5D%29&cmd=search"
    }
  ]
}