{
  "metadata": {
    "scraped_from": "https://haz-map.com/Agents/6500",
    "entity_name": "p-Anisaldehyde",
    "category": "agents",
    "uuid": "7632759b-9226-47cb-810d-ab9f3165cc3a",
    "scraped_at": "2025-07-23T20:02:31.355181"
  },
  "parsed_at": "2025-07-24T01:01:17.386677",
  "title": "p-Anisaldehyde",
  "sections": {
    "general": {
      "agent_name": {
        "original_name": "Agent Name",
        "value": "p-Anisaldehyde",
        "links": [],
        "cross_references": [
          {
            "type": "name_match",
            "text": "p-anisaldehyde",
            "confidence": 1.0,
            "uuid": "7632759b-9226-47cb-810d-ab9f3165cc3a",
            "name": "p-Anisaldehyde",
            "url": "https://haz-map.com/Agents/6500",
            "category": "agents"
          }
        ]
      },
      "cas_number": {
        "original_name": "CAS Number",
        "value": "123-11-5",
        "links": [],
        "cross_references": []
      },
      "formula": {
        "original_name": "Formula",
        "value": "C8-H8-O2",
        "links": [],
        "cross_references": []
      },
      "major_category": {
        "original_name": "Major Category",
        "value": "Other Classes",
        "links": [],
        "cross_references": []
      },
      "synonyms": {
        "original_name": "Synonyms",
        "value": "4-Anisaldehyde; 4-Methoxybenzaldehyde; Anisic aldehyde; Aubepine; Benzaldehyde, 4-methoxy-; Crategine; Formylanisole, p-; Obepin; p-Anisic aldehyde; p-Formylanisole; p-Methoxybenzaldehyde; p-Methoxybenzaldehyde (natural); [ChemIDplus]",
        "links": [],
        "cross_references": [
          {
            "type": "name_match",
            "text": "benzaldehyde",
            "confidence": 1.0,
            "uuid": "8546358a-fcfc-48f8-83d6-bf7adb438729",
            "name": "Benzaldehyde",
            "url": "https://haz-map.com/Agents/1884",
            "category": "agents"
          },
          {
            "type": "name_match",
            "text": "anisole",
            "confidence": 1.0,
            "uuid": "f122d940-2dba-441c-9dbf-c185355d4cb0",
            "name": "Anisole",
            "url": "https://haz-map.com/Agents/3708",
            "category": "agents"
          }
        ]
      },
      "category": {
        "original_name": "Category",
        "value": "Benzaldehydes",
        "links": [],
        "cross_references": [
          {
            "type": "name_match",
            "text": "aldehydes",
            "confidence": 1.0,
            "uuid": "60ff52e0-7c53-4dd0-99cf-f775cfcfed59",
            "name": "ALDEHYDES",
            "url": "https://haz-map.com/Agents/719",
            "category": "agents"
          },
          {
            "type": "name_match",
            "text": "benzaldehyde",
            "confidence": 1.0,
            "uuid": "8546358a-fcfc-48f8-83d6-bf7adb438729",
            "name": "Benzaldehyde",
            "url": "https://haz-map.com/Agents/1884",
            "category": "agents"
          }
        ]
      },
      "description": {
        "original_name": "Description",
        "value": "Colorless to pale yellow liquid; [Hawley] Colorless liquid; [MSDSonline]",
        "links": [],
        "cross_references": []
      },
      "sourcesuses": {
        "original_name": "Sources/Uses",
        "value": "Metabolite of Lentinus lepidus (oderiforous fungus), Polyporus benzoinus (wood rotting fungus), and Daldalea juniperina; [Merck Index] Found in various essential oils and extracts; Used to make insect attractants (especially for cockroaches); Also used in electroplating and in fragrances and flavors; [HSDB]",
        "links": [],
        "cross_references": [
          {
            "type": "name_match",
            "text": "electroplating",
            "confidence": 1.0,
            "uuid": "ae1bd2c1-37de-4b26-82b6-47ee206af837",
            "name": "Electroplating",
            "url": "https://haz-map.com/Processes/66",
            "category": "processes"
          },
          {
            "type": "name_match",
            "text": "benzoin",
            "confidence": 1.0,
            "uuid": "c4a61624-2e47-4742-8b8e-73698e25d3ca",
            "name": "Benzoin",
            "url": "https://haz-map.com/Agents/3861",
            "category": "agents"
          }
        ]
      },
      "comments": {
        "original_name": "Comments",
        "value": "A mutagen and moderate skin irritant; Causes somnolence in lethal-dose feeding studies of rats; Causes GI necrosis and fatty liver in high-dose feeding studies of mice; [RTECS] In humans at 10% in petrolatum, there was no irritation after 48 hours closed-patch testing; [HSDB] Safe when used as a flavoring agent in food; [JECFA] An irritant; May cause damage to GI tract and liver; [MSDSonline]",
        "links": [],
        "cross_references": [
          {
            "type": "name_match",
            "text": "petrolatum",
            "confidence": 1.0,
            "uuid": "3aa16d92-e402-405d-86f0-246be9009b2b",
            "name": "Petrolatum",
            "url": "https://haz-map.com/Agents/6605",
            "category": "agents"
          }
        ]
      },
      "biomedical_references": {
        "original_name": "Biomedical References",
        "value": "Search PubMed",
        "links": [
          {
            "text": "Search PubMed",
            "url": "https://www.ncbi.nlm.nih.gov/pubmed?term=p-Anisaldehyde%20AND%20human%5Bmh%5D%20AND%20%28Occupational%20Diseases%20%5Bmh%5D%20OR%20Occupational%20Exposure%20%5Bmh%5D%29%20%20AND%20%28tox%5Bsb%5D%29&cmd=search"
          }
        ],
        "cross_references": []
      }
    },
    "exposure_assessment": {
      "vapor_pressure": {
        "original_name": "Vapor Pressure",
        "value": "0.031 mm Hg",
        "links": [],
        "cross_references": []
      }
    },
    "adverse_effects": {
      "neurotoxin": {
        "original_name": "Neurotoxin",
        "value": "Other CNS neurotoxin",
        "links": [],
        "cross_references": []
      },
      "hepatotoxin": {
        "original_name": "Hepatotoxin",
        "value": "Hepatoxic (a) from occupational exposure (secondary effect) or (b) in animal studies or in humans after ingestion",
        "links": [],
        "cross_references": []
      }
    },
    "diseases_processes_and_activities_linked_to_this_agent": {
      "processes": {
        "original_name": "Processes",
        "value": "Industrial Processes with risk of exposure: Electroplating",
        "links": [
          {
            "text": "Electroplating",
            "url": "https://haz-map.com/Processes/66"
          }
        ],
        "cross_references": [
          {
            "type": "url_match",
            "text": "Electroplating",
            "url": "https://haz-map.com/Processes/66",
            "confidence": 1.0,
            "uuid": "ae1bd2c1-37de-4b26-82b6-47ee206af837",
            "name": "Electroplating",
            "category": "processes"
          }
        ]
      }
    }
  },
  "cross_references": [
    {
      "type": "url_match",
      "text": "Electroplating",
      "url": "https://haz-map.com/Processes/66",
      "confidence": 1.0,
      "uuid": "ae1bd2c1-37de-4b26-82b6-47ee206af837",
      "name": "Electroplating",
      "category": "processes"
    },
    {
      "type": "name_match",
      "text": "aldehydes",
      "confidence": 1.0,
      "uuid": "60ff52e0-7c53-4dd0-99cf-f775cfcfed59",
      "name": "ALDEHYDES",
      "url": "https://haz-map.com/Agents/719",
      "category": "agents"
    },
    {
      "type": "name_match",
      "text": "benzaldehyde",
      "confidence": 1.0,
      "uuid": "8546358a-fcfc-48f8-83d6-bf7adb438729",
      "name": "Benzaldehyde",
      "url": "https://haz-map.com/Agents/1884",
      "category": "agents"
    },
    {
      "type": "name_match",
      "text": "anisole",
      "confidence": 1.0,
      "uuid": "f122d940-2dba-441c-9dbf-c185355d4cb0",
      "name": "Anisole",
      "url": "https://haz-map.com/Agents/3708",
      "category": "agents"
    },
    {
      "type": "name_match",
      "text": "benzoin",
      "confidence": 1.0,
      "uuid": "c4a61624-2e47-4742-8b8e-73698e25d3ca",
      "name": "Benzoin",
      "url": "https://haz-map.com/Agents/3861",
      "category": "agents"
    },
    {
      "type": "name_match",
      "text": "p-anisaldehyde",
      "confidence": 1.0,
      "uuid": "7632759b-9226-47cb-810d-ab9f3165cc3a",
      "name": "p-Anisaldehyde",
      "url": "https://haz-map.com/Agents/6500",
      "category": "agents"
    },
    {
      "type": "name_match",
      "text": "petrolatum",
      "confidence": 1.0,
      "uuid": "3aa16d92-e402-405d-86f0-246be9009b2b",
      "name": "Petrolatum",
      "url": "https://haz-map.com/Agents/6605",
      "category": "agents"
    }
  ],
  "all_links": [
    {
      "text": "Search PubMed",
      "url": "https://www.ncbi.nlm.nih.gov/pubmed?term=p-Anisaldehyde%20AND%20human%5Bmh%5D%20AND%20%28Occupational%20Diseases%20%5Bmh%5D%20OR%20Occupational%20Exposure%20%5Bmh%5D%29%20%20AND%20%28tox%5Bsb%5D%29&cmd=search"
    },
    {
      "text": "Electroplating",
      "url": "https://haz-map.com/Processes/66"
    }
  ]
}