{
  "metadata": {
    "scraped_from": "https://haz-map.com/Agents/20817",
    "entity_name": "Gallic acid methyl ester",
    "category": "agents",
    "uuid": "7659b555-3aee-4fbc-9d5d-b324a5cca92b",
    "scraped_at": "2025-07-23T22:32:21.826371"
  },
  "parsed_at": "2025-07-24T01:10:04.612046",
  "title": "Gallic acid methyl ester",
  "sections": {
    "general": {
      "agent_name": {
        "original_name": "Agent Name",
        "value": "Gallic acid methyl ester",
        "links": [],
        "cross_references": [
          {
            "type": "name_match",
            "text": "gallic acid",
            "confidence": 1.0,
            "uuid": "e66d2ee8-d681-4f1c-bec8-4393cad2e862",
            "name": "Gallic acid",
            "url": "https://haz-map.com/Agents/5402",
            "category": "agents"
          },
          {
            "type": "name_match",
            "text": "gallic acid methyl ester",
            "confidence": 1.0,
            "uuid": "7659b555-3aee-4fbc-9d5d-b324a5cca92b",
            "name": "Gallic acid methyl ester",
            "url": "https://haz-map.com/Agents/20817",
            "category": "agents"
          }
        ]
      },
      "cas_number": {
        "original_name": "CAS Number",
        "value": "99-24-1",
        "links": [],
        "cross_references": []
      },
      "formula": {
        "original_name": "Formula",
        "value": "C8-H8-O5",
        "links": [],
        "cross_references": []
      },
      "major_category": {
        "original_name": "Major Category",
        "value": "Other Classes",
        "links": [],
        "cross_references": []
      },
      "synonyms": {
        "original_name": "Synonyms",
        "value": "Benzoic acid, 3,4,5-trihydroxy-, methyl ester; Methyl 3,4,5-trihydroxybenzoate; Methyl gallate; Gallic acid, methyl ester; Methylgallate; [ChemIDplus]",
        "links": [],
        "cross_references": [
          {
            "type": "name_match",
            "text": "benzoic acid",
            "confidence": 1.0,
            "uuid": "d2c5d3be-d826-4f55-bc32-7b16821aef40",
            "name": "Benzoic acid",
            "url": "https://haz-map.com/Agents/1883",
            "category": "agents"
          },
          {
            "type": "name_match",
            "text": "gallic acid",
            "confidence": 1.0,
            "uuid": "e66d2ee8-d681-4f1c-bec8-4393cad2e862",
            "name": "Gallic acid",
            "url": "https://haz-map.com/Agents/5402",
            "category": "agents"
          }
        ]
      },
      "category": {
        "original_name": "Category",
        "value": "Esters, Other",
        "links": [],
        "cross_references": []
      },
      "description": {
        "original_name": "Description",
        "value": "Solid; [Merck Index] Beige powder; [Sigma-Aldrich MSDS]",
        "links": [],
        "cross_references": []
      },
      "sourcesuses": {
        "original_name": "Sources/Uses",
        "value": "Used as an antioxidant; [Merck Index]",
        "links": [],
        "cross_references": []
      },
      "comments": {
        "original_name": "Comments",
        "value": "Causes delayed allergic hypersensitivity (multiple organ involvement) in 9-day intermittent dermal studies of guinea pigs; [RTECS] \"Has both immunosuppressive and phytogenic antineoplastic activities; isolated from Acer saccharinum.\" [ChemIDplus] A skin and strong eye irritant; May cause skin sensitization; Harmful by ingestion; [Sigma-Aldrich MSDS] Search for (99-24-1[EC/RN Number]) AND (allergic OR dermatitis OR sensitizer OR sensitization): no results that it is a skin sensitizer; [PubMed]",
        "links": [],
        "cross_references": [
          {
            "type": "name_match",
            "text": "dermatitis",
            "confidence": 1.0,
            "uuid": "fe9c05f2-b19f-4ceb-ac7a-ffb7d7a0cae0",
            "name": "dermatitis",
            "url": "https://haz-map.com/Findings/59",
            "category": "findings"
          },
          {
            "type": "name_match",
            "text": "saccharin",
            "confidence": 1.0,
            "uuid": "2e1ecce9-5aa0-4aba-b829-95b9f18e3dca",
            "name": "Saccharin",
            "url": "https://haz-map.com/Agents/17165",
            "category": "agents"
          }
        ]
      },
      "biomedical_references": {
        "original_name": "Biomedical References",
        "value": "Search PubMed",
        "links": [
          {
            "text": "Search PubMed",
            "url": "https://www.ncbi.nlm.nih.gov/pubmed?term=Gallic+acid+methyl+ester%20AND%20human%5Bmh%5D%20AND%20%28Occupational%20Diseases%20%5Bmh%5D%20OR%20Occupational%20Exposure%20%5Bmh%5D%29%20%20AND%20%28tox%5Bsb%5D%29&cmd=search"
          }
        ],
        "cross_references": []
      }
    },
    "exposure_assessment": {
      "vapor_pressure": {
        "original_name": "Vapor Pressure",
        "value": "1.78E-06 mm Hg",
        "links": [],
        "cross_references": []
      }
    },
    "diseases_processes_and_activities_linked_to_this_agent": {
      "other_information": {
        "original_name": "Other Information",
        "value": "No other related information on this agent was found.",
        "links": [],
        "cross_references": []
      }
    }
  },
  "cross_references": [
    {
      "type": "name_match",
      "text": "dermatitis",
      "confidence": 1.0,
      "uuid": "fe9c05f2-b19f-4ceb-ac7a-ffb7d7a0cae0",
      "name": "dermatitis",
      "url": "https://haz-map.com/Findings/59",
      "category": "findings"
    },
    {
      "type": "name_match",
      "text": "benzoic acid",
      "confidence": 1.0,
      "uuid": "d2c5d3be-d826-4f55-bc32-7b16821aef40",
      "name": "Benzoic acid",
      "url": "https://haz-map.com/Agents/1883",
      "category": "agents"
    },
    {
      "type": "name_match",
      "text": "gallic acid",
      "confidence": 1.0,
      "uuid": "e66d2ee8-d681-4f1c-bec8-4393cad2e862",
      "name": "Gallic acid",
      "url": "https://haz-map.com/Agents/5402",
      "category": "agents"
    },
    {
      "type": "name_match",
      "text": "saccharin",
      "confidence": 1.0,
      "uuid": "2e1ecce9-5aa0-4aba-b829-95b9f18e3dca",
      "name": "Saccharin",
      "url": "https://haz-map.com/Agents/17165",
      "category": "agents"
    },
    {
      "type": "name_match",
      "text": "gallic acid methyl ester",
      "confidence": 1.0,
      "uuid": "7659b555-3aee-4fbc-9d5d-b324a5cca92b",
      "name": "Gallic acid methyl ester",
      "url": "https://haz-map.com/Agents/20817",
      "category": "agents"
    }
  ],
  "all_links": [
    {
      "text": "Search PubMed",
      "url": "https://www.ncbi.nlm.nih.gov/pubmed?term=Gallic+acid+methyl+ester%20AND%20human%5Bmh%5D%20AND%20%28Occupational%20Diseases%20%5Bmh%5D%20OR%20Occupational%20Exposure%20%5Bmh%5D%29%20%20AND%20%28tox%5Bsb%5D%29&cmd=search"
    }
  ]
}