{
  "metadata": {
    "scraped_from": "https://haz-map.com/Agents/3115",
    "entity_name": "Lactonitrile",
    "category": "agents",
    "uuid": "767374c8-89bd-40b5-9ca6-78ee80b3b850",
    "scraped_at": "2025-07-23T19:24:16.647328"
  },
  "parsed_at": "2025-07-24T01:02:15.732603",
  "title": "Lactonitrile",
  "sections": {
    "general": {
      "agent_name": {
        "original_name": "Agent Name",
        "value": "Lactonitrile",
        "links": [],
        "cross_references": [
          {
            "type": "name_match",
            "text": "lactonitrile",
            "confidence": 1.0,
            "uuid": "767374c8-89bd-40b5-9ca6-78ee80b3b850",
            "name": "Lactonitrile",
            "url": "https://haz-map.com/Agents/3115",
            "category": "agents"
          }
        ]
      },
      "alternative_name": {
        "original_name": "Alternative Name",
        "value": "2-Hydroxypropanenitrile",
        "links": [],
        "cross_references": [
          {
            "type": "name_match",
            "text": "propane",
            "confidence": 1.0,
            "uuid": "563a611b-46ea-4bdc-b77b-17d8f7646283",
            "name": "Propane",
            "url": "https://haz-map.com/Agents/607",
            "category": "agents"
          }
        ]
      },
      "cas_number": {
        "original_name": "CAS Number",
        "value": "78-97-7",
        "links": [],
        "cross_references": []
      },
      "formula": {
        "original_name": "Formula",
        "value": "C3-H5-N-O",
        "links": [],
        "cross_references": []
      },
      "major_category": {
        "original_name": "Major Category",
        "value": "Nitrogen Compounds",
        "links": [],
        "cross_references": [
          {
            "type": "name_match",
            "text": "nitrogen",
            "confidence": 1.0,
            "uuid": "db5e90a9-06d2-45b9-8b81-f345a89b0bc0",
            "name": "Nitrogen",
            "url": "https://haz-map.com/Agents/1072",
            "category": "agents"
          }
        ]
      },
      "synonyms": {
        "original_name": "Synonyms",
        "value": "2-Hydroxypropanenitrile; 2-Hydroxypropannitril [Czech]; 2-Hydroxypropionitrile; Acetaldehyde, cyanohydrin; Acetocyanohydrin; Ethylidene cyanohydrin; Laktonitril [Czech]; Propanenitrile, 2-hydroxy-; Propionitrile, 2-hydroxy-; alpha-Hydroxypropionitrile; [ChemIDplus]",
        "links": [],
        "cross_references": [
          {
            "type": "name_match",
            "text": "acetaldehyde",
            "confidence": 1.0,
            "uuid": "fe4656a6-c05e-430a-bdd9-e053a298707a",
            "name": "Acetaldehyde",
            "url": "https://haz-map.com/Agents/94",
            "category": "agents"
          },
          {
            "type": "name_match",
            "text": "propionitrile",
            "confidence": 1.0,
            "uuid": "f510e486-f409-44d7-9fe4-91026a8dd383",
            "name": "Propionitrile",
            "url": "https://haz-map.com/Agents/166",
            "category": "agents"
          },
          {
            "type": "name_match",
            "text": "propane",
            "confidence": 1.0,
            "uuid": "563a611b-46ea-4bdc-b77b-17d8f7646283",
            "name": "Propane",
            "url": "https://haz-map.com/Agents/607",
            "category": "agents"
          },
          {
            "type": "name_match",
            "text": "acetal",
            "confidence": 1.0,
            "uuid": "1ee09b5b-04fd-47c0-ab34-a2d9db740bcb",
            "name": "Acetal",
            "url": "https://haz-map.com/Agents/3381",
            "category": "agents"
          }
        ]
      },
      "category": {
        "original_name": "Category",
        "value": "Nitriles",
        "links": [],
        "cross_references": [
          {
            "type": "name_match",
            "text": "nitriles",
            "confidence": 1.0,
            "uuid": "41430895-c07a-4421-888b-3d7122a4cd55",
            "name": "NITRILES",
            "url": "https://haz-map.com/Agents/715",
            "category": "agents"
          }
        ]
      },
      "description": {
        "original_name": "Description",
        "value": "Straw-colored liquid; [Hawley] Yellow to orange liquid; [MSDSonline]",
        "links": [],
        "cross_references": []
      },
      "sourcesuses": {
        "original_name": "Sources/Uses",
        "value": "Used as a solvent and to make ethyl lactate and lactic acid; [Hawley] Used as an intermediate for the production of alanine, acrylic fibres, resins, and acrylic acid; [eChemPortal: SIDSUNEP]",
        "links": [],
        "cross_references": [
          {
            "type": "name_match",
            "text": "acrylic acid",
            "confidence": 1.0,
            "uuid": "c8e65755-0f00-4e14-91fe-d4fa705d17da",
            "name": "Acrylic acid",
            "url": "https://haz-map.com/Agents/67",
            "category": "agents"
          },
          {
            "type": "name_match",
            "text": "ethyl lactate",
            "confidence": 1.0,
            "uuid": "ecbeb69f-017f-47f2-a786-0ce6fc8f62e7",
            "name": "Ethyl lactate",
            "url": "https://haz-map.com/Agents/1179",
            "category": "agents"
          },
          {
            "type": "name_match",
            "text": "lactic acid",
            "confidence": 1.0,
            "uuid": "6a34838d-06cd-4af9-9313-208a12a6819b",
            "name": "Lactic acid",
            "url": "https://haz-map.com/Agents/1416",
            "category": "agents"
          },
          {
            "type": "name_match",
            "text": "alanine",
            "confidence": 1.0,
            "uuid": "0829012c-76c4-4cb5-91ac-cacb73278dc5",
            "name": "Alanine",
            "url": "https://haz-map.com/Agents/11406",
            "category": "agents"
          }
        ]
      },
      "comments": {
        "original_name": "Comments",
        "value": "An eye irritant; Highly toxic by eye contact, ingestion, and skin absorption; Emergency treatment: \"Lactonitrile\"; May cause cyanide poisoning after a delay of several hours; An oral dose of >10 mg/kg is lethal in animals, as is 0.05 ml applied to the eye and 1 mg/kg applied to the skin; [HSDB] \"Cyanide fumes released when heated to decomposition. Avoid alkali, oxidizing material. . . . Extremely toxic by oral, skin, or eye contact.\" [CAMEO] May cause irritation; Readily absorbed through skin (may be fatal); [Aldrich MSDS] See \"NITRILES.\"",
        "links": [],
        "cross_references": [
          {
            "type": "name_match",
            "text": "nitriles",
            "confidence": 1.0,
            "uuid": "41430895-c07a-4421-888b-3d7122a4cd55",
            "name": "NITRILES",
            "url": "https://haz-map.com/Agents/715",
            "category": "agents"
          },
          {
            "type": "name_match",
            "text": "lactonitrile",
            "confidence": 1.0,
            "uuid": "767374c8-89bd-40b5-9ca6-78ee80b3b850",
            "name": "Lactonitrile",
            "url": "https://haz-map.com/Agents/3115",
            "category": "agents"
          },
          {
            "type": "name_match",
            "text": "cyanide",
            "confidence": 1.0,
            "uuid": "0b4d38ba-cc5c-4386-8079-9e7ff8fb2d3a",
            "name": "Cyanide",
            "url": "https://haz-map.com/Agents/13350",
            "category": "agents"
          }
        ]
      },
      "biomedical_references": {
        "original_name": "Biomedical References",
        "value": "Search PubMed",
        "links": [
          {
            "text": "Search PubMed",
            "url": "https://www.ncbi.nlm.nih.gov/pubmed?term=Lactonitrile%20AND%20human%5Bmh%5D%20AND%20%28Occupational%20Diseases%20%5Bmh%5D%20OR%20Occupational%20Exposure%20%5Bmh%5D%29%20%20AND%20%28tox%5Bsb%5D%29&cmd=search"
          }
        ],
        "cross_references": []
      }
    },
    "exposure_assessment": {
      "vapor_pressure": {
        "original_name": "Vapor Pressure",
        "value": "0.119 mm Hg",
        "links": [],
        "cross_references": []
      },
      "lethal_concentration": {
        "original_name": "Lethal Concentration",
        "value": "LCLo (rat) = 125 ppm/4h",
        "links": [],
        "cross_references": []
      },
      "explanatory_notes": {
        "original_name": "Explanatory Notes",
        "value": "Flash point = 76.6 deg C; [Hawley] VP from ChemIDplus;",
        "links": [],
        "cross_references": [
          {
            "type": "name_match",
            "text": "ash",
            "confidence": 1.0,
            "uuid": "68b360f1-5ad0-4337-bea0-d7adca2961b5",
            "name": "Ash",
            "url": "https://haz-map.com/Agents/965",
            "category": "agents"
          }
        ]
      },
      "nfpa": {
        "original_name": "NFPA",
        "value": "high ambient temp required",
        "links": [],
        "cross_references": []
      }
    },
    "adverse_effects": {
      "other_poison": {
        "original_name": "Other Poison",
        "value": "Chemical Asphyxiant",
        "links": [],
        "cross_references": [
          {
            "type": "name_match",
            "text": "mica",
            "confidence": 1.0,
            "uuid": "433f26f1-c399-4596-b179-ce3843cfd465",
            "name": "Mica",
            "url": "https://haz-map.com/Agents/621",
            "category": "agents"
          }
        ]
      }
    },
    "diseases_processes_and_activities_linked_to_this_agent": {
      "diseases": {
        "original_name": "Diseases",
        "value": "Occupational diseases associated with exposure to this agent: Asphyxiation, chemical",
        "links": [
          {
            "text": "Asphyxiation, chemical",
            "url": "https://haz-map.com/Diseases/351"
          }
        ],
        "cross_references": [
          {
            "type": "url_match",
            "text": "Asphyxiation, chemical",
            "url": "https://haz-map.com/Diseases/351",
            "confidence": 1.0,
            "uuid": "78d8c6de-b137-4149-8098-0b7e8b092753",
            "name": "Asphyxiation, chemical",
            "category": "diseases"
          },
          {
            "type": "name_match",
            "text": "mica",
            "confidence": 1.0,
            "uuid": "433f26f1-c399-4596-b179-ce3843cfd465",
            "name": "Mica",
            "url": "https://haz-map.com/Agents/621",
            "category": "agents"
          }
        ]
      }
    }
  },
  "cross_references": [
    {
      "type": "url_match",
      "text": "Asphyxiation, chemical",
      "url": "https://haz-map.com/Diseases/351",
      "confidence": 1.0,
      "uuid": "78d8c6de-b137-4149-8098-0b7e8b092753",
      "name": "Asphyxiation, chemical",
      "category": "diseases"
    },
    {
      "type": "name_match",
      "text": "acrylic acid",
      "confidence": 1.0,
      "uuid": "c8e65755-0f00-4e14-91fe-d4fa705d17da",
      "name": "Acrylic acid",
      "url": "https://haz-map.com/Agents/67",
      "category": "agents"
    },
    {
      "type": "name_match",
      "text": "acetaldehyde",
      "confidence": 1.0,
      "uuid": "fe4656a6-c05e-430a-bdd9-e053a298707a",
      "name": "Acetaldehyde",
      "url": "https://haz-map.com/Agents/94",
      "category": "agents"
    },
    {
      "type": "name_match",
      "text": "propionitrile",
      "confidence": 1.0,
      "uuid": "f510e486-f409-44d7-9fe4-91026a8dd383",
      "name": "Propionitrile",
      "url": "https://haz-map.com/Agents/166",
      "category": "agents"
    },
    {
      "type": "name_match",
      "text": "propane",
      "confidence": 1.0,
      "uuid": "563a611b-46ea-4bdc-b77b-17d8f7646283",
      "name": "Propane",
      "url": "https://haz-map.com/Agents/607",
      "category": "agents"
    },
    {
      "type": "name_match",
      "text": "mica",
      "confidence": 1.0,
      "uuid": "433f26f1-c399-4596-b179-ce3843cfd465",
      "name": "Mica",
      "url": "https://haz-map.com/Agents/621",
      "category": "agents"
    },
    {
      "type": "name_match",
      "text": "nitriles",
      "confidence": 1.0,
      "uuid": "41430895-c07a-4421-888b-3d7122a4cd55",
      "name": "NITRILES",
      "url": "https://haz-map.com/Agents/715",
      "category": "agents"
    },
    {
      "type": "name_match",
      "text": "ash",
      "confidence": 1.0,
      "uuid": "68b360f1-5ad0-4337-bea0-d7adca2961b5",
      "name": "Ash",
      "url": "https://haz-map.com/Agents/965",
      "category": "agents"
    },
    {
      "type": "name_match",
      "text": "nitrogen",
      "confidence": 1.0,
      "uuid": "db5e90a9-06d2-45b9-8b81-f345a89b0bc0",
      "name": "Nitrogen",
      "url": "https://haz-map.com/Agents/1072",
      "category": "agents"
    },
    {
      "type": "name_match",
      "text": "ethyl lactate",
      "confidence": 1.0,
      "uuid": "ecbeb69f-017f-47f2-a786-0ce6fc8f62e7",
      "name": "Ethyl lactate",
      "url": "https://haz-map.com/Agents/1179",
      "category": "agents"
    },
    {
      "type": "name_match",
      "text": "lactic acid",
      "confidence": 1.0,
      "uuid": "6a34838d-06cd-4af9-9313-208a12a6819b",
      "name": "Lactic acid",
      "url": "https://haz-map.com/Agents/1416",
      "category": "agents"
    },
    {
      "type": "name_match",
      "text": "lactonitrile",
      "confidence": 1.0,
      "uuid": "767374c8-89bd-40b5-9ca6-78ee80b3b850",
      "name": "Lactonitrile",
      "url": "https://haz-map.com/Agents/3115",
      "category": "agents"
    },
    {
      "type": "name_match",
      "text": "acetal",
      "confidence": 1.0,
      "uuid": "1ee09b5b-04fd-47c0-ab34-a2d9db740bcb",
      "name": "Acetal",
      "url": "https://haz-map.com/Agents/3381",
      "category": "agents"
    },
    {
      "type": "name_match",
      "text": "alanine",
      "confidence": 1.0,
      "uuid": "0829012c-76c4-4cb5-91ac-cacb73278dc5",
      "name": "Alanine",
      "url": "https://haz-map.com/Agents/11406",
      "category": "agents"
    },
    {
      "type": "name_match",
      "text": "cyanide",
      "confidence": 1.0,
      "uuid": "0b4d38ba-cc5c-4386-8079-9e7ff8fb2d3a",
      "name": "Cyanide",
      "url": "https://haz-map.com/Agents/13350",
      "category": "agents"
    }
  ],
  "all_links": [
    {
      "text": "Search PubMed",
      "url": "https://www.ncbi.nlm.nih.gov/pubmed?term=Lactonitrile%20AND%20human%5Bmh%5D%20AND%20%28Occupational%20Diseases%20%5Bmh%5D%20OR%20Occupational%20Exposure%20%5Bmh%5D%29%20%20AND%20%28tox%5Bsb%5D%29&cmd=search"
    },
    {
      "text": "Asphyxiation, chemical",
      "url": "https://haz-map.com/Diseases/351"
    }
  ]
}