{
  "metadata": {
    "scraped_from": "https://haz-map.com/Agents/20028",
    "entity_name": "4-Chlorophenyl methyl sulfide",
    "category": "agents",
    "uuid": "769479d4-5d92-4977-93c4-1e3e71212da7",
    "scraped_at": "2025-07-23T22:17:35.703540"
  },
  "parsed_at": "2025-07-24T01:04:04.947066",
  "title": "4-Chlorophenyl methyl sulfide",
  "sections": {
    "general": {
      "agent_name": {
        "original_name": "Agent Name",
        "value": "4-Chlorophenyl methyl sulfide",
        "links": [],
        "cross_references": [
          {
            "type": "name_match",
            "text": "4-chlorophenyl methyl sulfide",
            "confidence": 1.0,
            "uuid": "769479d4-5d92-4977-93c4-1e3e71212da7",
            "name": "4-Chlorophenyl methyl sulfide",
            "url": "https://haz-map.com/Agents/20028",
            "category": "agents"
          }
        ]
      },
      "cas_number": {
        "original_name": "CAS Number",
        "value": "123-09-1",
        "links": [],
        "cross_references": []
      },
      "formula": {
        "original_name": "Formula",
        "value": "C7-H7-Cl-S",
        "links": [],
        "cross_references": []
      },
      "major_category": {
        "original_name": "Major Category",
        "value": "Other Classes",
        "links": [],
        "cross_references": []
      },
      "synonyms": {
        "original_name": "Synonyms",
        "value": "1-Chloro-4-(methylthio)benzene; 4-Chlorothioanisole; Methyl 4-chlorophenyl sulfide; Methyl p-chlorophenyl sulfide; p-Chlorophenyl methyl sulfide; p-Chlorothioanisole; Benzene, 1-chloro-4-(methylthio)-; Sulfide, p-chlorophenyl methyl; [ChemIDplus]",
        "links": [],
        "cross_references": [
          {
            "type": "name_match",
            "text": "benzene",
            "confidence": 1.0,
            "uuid": "b05124de-5f34-4c14-8f04-ccb20c3780d9",
            "name": "Benzene",
            "url": "https://haz-map.com/Agents/5",
            "category": "agents"
          },
          {
            "type": "name_match",
            "text": "anisole",
            "confidence": 1.0,
            "uuid": "f122d940-2dba-441c-9dbf-c185355d4cb0",
            "name": "Anisole",
            "url": "https://haz-map.com/Agents/3708",
            "category": "agents"
          },
          {
            "type": "name_match",
            "text": "phenyl sulfide",
            "confidence": 1.0,
            "uuid": "57f91bec-789e-4483-bbc7-394ed3fee3c1",
            "name": "Phenyl sulfide",
            "url": "https://haz-map.com/Agents/16554",
            "category": "agents"
          }
        ]
      },
      "category": {
        "original_name": "Category",
        "value": "Sulfur Compounds",
        "links": [],
        "cross_references": [
          {
            "type": "name_match",
            "text": "sulfur",
            "confidence": 1.0,
            "uuid": "5aabdef6-71c8-44c8-b762-feaabff50696",
            "name": "Sulfur",
            "url": "https://haz-map.com/Agents/1942",
            "category": "agents"
          }
        ]
      },
      "description": {
        "original_name": "Description",
        "value": "Colorless liquid with an unpleasant odor; [Alfa Aesar MSDS]",
        "links": [],
        "cross_references": []
      },
      "comments": {
        "original_name": "Comments",
        "value": "A mild eye irritant; Causes general anesthesia and dyspnea in oral lethal-dose studies of mice; Causes changes in recordings from specific areas of the brain and weight loss in oral lethal-dose studies of rats; Causes changes in liver weights and normocytic anemia in 91-day oral studies of rats; [RTECS] May cause irritation; Harmful by ingestion; [Alfa Aesar MSDS] See \"Methyl phenyl sulfide.\"",
        "links": [],
        "cross_references": [
          {
            "type": "name_match",
            "text": "weight loss",
            "confidence": 1.0,
            "uuid": "9b7baca4-cf1b-4e78-99d2-2377fbac8f8b",
            "name": "weight loss",
            "url": "https://haz-map.com/Findings/3",
            "category": "findings"
          },
          {
            "type": "name_match",
            "text": "anemia",
            "confidence": 1.0,
            "uuid": "be5db7c0-2652-4940-a3d9-d0afb3e2b182",
            "name": "anemia",
            "url": "https://haz-map.com/Findings/54",
            "category": "findings"
          },
          {
            "type": "name_match",
            "text": "ht",
            "confidence": 1.0,
            "uuid": "764df367-8d53-4a11-81a2-31ccfe122a8d",
            "name": "HT",
            "url": "https://haz-map.com/Agents/2168",
            "category": "agents"
          },
          {
            "type": "name_match",
            "text": "methyl phenyl sulfide",
            "confidence": 1.0,
            "uuid": "e5e65757-b734-418e-a77a-d26e9eb9feb2",
            "name": "Methyl phenyl sulfide",
            "url": "https://haz-map.com/Agents/16551",
            "category": "agents"
          },
          {
            "type": "name_match",
            "text": "phenyl sulfide",
            "confidence": 1.0,
            "uuid": "57f91bec-789e-4483-bbc7-394ed3fee3c1",
            "name": "Phenyl sulfide",
            "url": "https://haz-map.com/Agents/16554",
            "category": "agents"
          }
        ]
      },
      "biomedical_references": {
        "original_name": "Biomedical References",
        "value": "Search PubMed",
        "links": [
          {
            "text": "Search PubMed",
            "url": "https://www.ncbi.nlm.nih.gov/pubmed?term=4-Chlorophenyl+methyl+sulfide%20AND%20human%5Bmh%5D%20AND%20%28Occupational%20Diseases%20%5Bmh%5D%20OR%20Occupational%20Exposure%20%5Bmh%5D%29%20%20AND%20%28tox%5Bsb%5D%29&cmd=search"
          }
        ],
        "cross_references": []
      }
    },
    "exposure_assessment": {
      "vapor_pressure": {
        "original_name": "Vapor Pressure",
        "value": "0.11 mm Hg",
        "links": [],
        "cross_references": []
      }
    },
    "adverse_effects": {
      "neurotoxin": {
        "original_name": "Neurotoxin",
        "value": "Other CNS neurotoxin",
        "links": [],
        "cross_references": []
      }
    },
    "diseases_processes_and_activities_linked_to_this_agent": {
      "other_information": {
        "original_name": "Other Information",
        "value": "No other related information on this agent was found.",
        "links": [],
        "cross_references": []
      }
    }
  },
  "cross_references": [
    {
      "type": "name_match",
      "text": "weight loss",
      "confidence": 1.0,
      "uuid": "9b7baca4-cf1b-4e78-99d2-2377fbac8f8b",
      "name": "weight loss",
      "url": "https://haz-map.com/Findings/3",
      "category": "findings"
    },
    {
      "type": "name_match",
      "text": "anemia",
      "confidence": 1.0,
      "uuid": "be5db7c0-2652-4940-a3d9-d0afb3e2b182",
      "name": "anemia",
      "url": "https://haz-map.com/Findings/54",
      "category": "findings"
    },
    {
      "type": "name_match",
      "text": "benzene",
      "confidence": 1.0,
      "uuid": "b05124de-5f34-4c14-8f04-ccb20c3780d9",
      "name": "Benzene",
      "url": "https://haz-map.com/Agents/5",
      "category": "agents"
    },
    {
      "type": "name_match",
      "text": "sulfur",
      "confidence": 1.0,
      "uuid": "5aabdef6-71c8-44c8-b762-feaabff50696",
      "name": "Sulfur",
      "url": "https://haz-map.com/Agents/1942",
      "category": "agents"
    },
    {
      "type": "name_match",
      "text": "ht",
      "confidence": 1.0,
      "uuid": "764df367-8d53-4a11-81a2-31ccfe122a8d",
      "name": "HT",
      "url": "https://haz-map.com/Agents/2168",
      "category": "agents"
    },
    {
      "type": "name_match",
      "text": "anisole",
      "confidence": 1.0,
      "uuid": "f122d940-2dba-441c-9dbf-c185355d4cb0",
      "name": "Anisole",
      "url": "https://haz-map.com/Agents/3708",
      "category": "agents"
    },
    {
      "type": "name_match",
      "text": "methyl phenyl sulfide",
      "confidence": 1.0,
      "uuid": "e5e65757-b734-418e-a77a-d26e9eb9feb2",
      "name": "Methyl phenyl sulfide",
      "url": "https://haz-map.com/Agents/16551",
      "category": "agents"
    },
    {
      "type": "name_match",
      "text": "phenyl sulfide",
      "confidence": 1.0,
      "uuid": "57f91bec-789e-4483-bbc7-394ed3fee3c1",
      "name": "Phenyl sulfide",
      "url": "https://haz-map.com/Agents/16554",
      "category": "agents"
    },
    {
      "type": "name_match",
      "text": "4-chlorophenyl methyl sulfide",
      "confidence": 1.0,
      "uuid": "769479d4-5d92-4977-93c4-1e3e71212da7",
      "name": "4-Chlorophenyl methyl sulfide",
      "url": "https://haz-map.com/Agents/20028",
      "category": "agents"
    }
  ],
  "all_links": [
    {
      "text": "Search PubMed",
      "url": "https://www.ncbi.nlm.nih.gov/pubmed?term=4-Chlorophenyl+methyl+sulfide%20AND%20human%5Bmh%5D%20AND%20%28Occupational%20Diseases%20%5Bmh%5D%20OR%20Occupational%20Exposure%20%5Bmh%5D%29%20%20AND%20%28tox%5Bsb%5D%29&cmd=search"
    }
  ]
}