{
  "metadata": {
    "scraped_from": "https://haz-map.com/Agents/3485",
    "entity_name": "6-Chlorometanilic acid",
    "category": "agents",
    "uuid": "76affc32-1af8-4894-811c-92f09102f9f7",
    "scraped_at": "2025-07-23T19:30:00.276904"
  },
  "parsed_at": "2025-07-24T01:17:27.204129",
  "title": "6-Chlorometanilic acid",
  "sections": {
    "general": {
      "agent_name": {
        "original_name": "Agent Name",
        "value": "6-Chlorometanilic acid",
        "links": [],
        "cross_references": [
          {
            "type": "name_match",
            "text": "6-chlorometanilic acid",
            "confidence": 1.0,
            "uuid": "76affc32-1af8-4894-811c-92f09102f9f7",
            "name": "6-Chlorometanilic acid",
            "url": "https://haz-map.com/Agents/3485",
            "category": "agents"
          },
          {
            "type": "name_match",
            "text": "metanilic acid",
            "confidence": 1.0,
            "uuid": "569e8d11-134b-43be-9e4a-eb751493d4da",
            "name": "Metanilic acid",
            "url": "https://haz-map.com/Agents/20804",
            "category": "agents"
          }
        ]
      },
      "cas_number": {
        "original_name": "CAS Number",
        "value": "88-43-7",
        "links": [],
        "cross_references": []
      },
      "formula": {
        "original_name": "Formula",
        "value": "C6-H6-Cl-N-O3-S",
        "links": [],
        "cross_references": []
      },
      "major_category": {
        "original_name": "Major Category",
        "value": "Nitrogen Compounds",
        "links": [],
        "cross_references": [
          {
            "type": "name_match",
            "text": "nitrogen",
            "confidence": 1.0,
            "uuid": "db5e90a9-06d2-45b9-8b81-f345a89b0bc0",
            "name": "Nitrogen",
            "url": "https://haz-map.com/Agents/1072",
            "category": "agents"
          }
        ]
      },
      "synonyms": {
        "original_name": "Synonyms",
        "value": "4-Chloroaniline-3-sulfonic acid; Benzenesulfonic acid, 5-amino-2-chloro-; p-Chloroaniline-m-sulfonic acid; 5-Amino-2-chlorobenzenesulphonic acid; Metanilic acid, 6-chloro- (8CI); [ChemIDplus]",
        "links": [],
        "cross_references": [
          {
            "type": "name_match",
            "text": "benzene",
            "confidence": 1.0,
            "uuid": "b05124de-5f34-4c14-8f04-ccb20c3780d9",
            "name": "Benzene",
            "url": "https://haz-map.com/Agents/5",
            "category": "agents"
          },
          {
            "type": "name_match",
            "text": "chlorobenzene",
            "confidence": 1.0,
            "uuid": "7e598eca-f35d-493c-aa78-93bb67744c4c",
            "name": "Chlorobenzene",
            "url": "https://haz-map.com/Agents/85",
            "category": "agents"
          },
          {
            "type": "name_match",
            "text": "aniline",
            "confidence": 1.0,
            "uuid": "e4932692-8d9c-4a98-8c5c-81e55b12aedf",
            "name": "Aniline",
            "url": "https://haz-map.com/Agents/296",
            "category": "agents"
          },
          {
            "type": "name_match",
            "text": "4-chloroaniline",
            "confidence": 1.0,
            "uuid": "a6515926-1850-4e05-8609-31fb1243a80a",
            "name": "4-Chloroaniline",
            "url": "https://haz-map.com/Agents/3291",
            "category": "agents"
          },
          {
            "type": "name_match",
            "text": "benzenesulfonic acid",
            "confidence": 1.0,
            "uuid": "39630619-7b3f-4266-b4e1-e41deb2f24e6",
            "name": "Benzenesulfonic acid",
            "url": "https://haz-map.com/Agents/3840",
            "category": "agents"
          },
          {
            "type": "name_match",
            "text": "metanilic acid",
            "confidence": 1.0,
            "uuid": "569e8d11-134b-43be-9e4a-eb751493d4da",
            "name": "Metanilic acid",
            "url": "https://haz-map.com/Agents/20804",
            "category": "agents"
          }
        ]
      },
      "category": {
        "original_name": "Category",
        "value": "Aminobenzenesulfonic Acids",
        "links": [],
        "cross_references": [
          {
            "type": "name_match",
            "text": "benzene",
            "confidence": 1.0,
            "uuid": "b05124de-5f34-4c14-8f04-ccb20c3780d9",
            "name": "Benzene",
            "url": "https://haz-map.com/Agents/5",
            "category": "agents"
          },
          {
            "type": "name_match",
            "text": "benzenesulfonic acid",
            "confidence": 1.0,
            "uuid": "39630619-7b3f-4266-b4e1-e41deb2f24e6",
            "name": "Benzenesulfonic acid",
            "url": "https://haz-map.com/Agents/3840",
            "category": "agents"
          }
        ]
      },
      "description": {
        "original_name": "Description",
        "value": "White to light-gray solid; [HSDB]",
        "links": [],
        "cross_references": [
          {
            "type": "name_match",
            "text": "ht",
            "confidence": 1.0,
            "uuid": "764df367-8d53-4a11-81a2-31ccfe122a8d",
            "name": "HT",
            "url": "https://haz-map.com/Agents/2168",
            "category": "agents"
          }
        ]
      },
      "sourcesuses": {
        "original_name": "Sources/Uses",
        "value": "Used as a chemical intermediate for Pigment Red 58 and other chemicals; [HSDB]",
        "links": [],
        "cross_references": [
          {
            "type": "name_match",
            "text": "mica",
            "confidence": 1.0,
            "uuid": "433f26f1-c399-4596-b179-ce3843cfd465",
            "name": "Mica",
            "url": "https://haz-map.com/Agents/621",
            "category": "agents"
          }
        ]
      },
      "comments": {
        "original_name": "Comments",
        "value": "May cause irritation; May cause skin sensitization; [MSDSonline]",
        "links": [],
        "cross_references": []
      },
      "biomedical_references": {
        "original_name": "Biomedical References",
        "value": "Search PubMed",
        "links": [
          {
            "text": "Search PubMed",
            "url": "https://www.ncbi.nlm.nih.gov/pubmed?term=6-Chlorometanilic+acid%20AND%20human%5Bmh%5D%20AND%20%28Occupational%20Diseases%20%5Bmh%5D%20OR%20Occupational%20Exposure%20%5Bmh%5D%29%20%20AND%20%28tox%5Bsb%5D%29&cmd=search"
          }
        ],
        "cross_references": []
      }
    },
    "exposure_assessment": {
      "vapor_pressure": {
        "original_name": "Vapor Pressure",
        "value": "4.37E-08 mm Hg",
        "links": [],
        "cross_references": []
      }
    },
    "diseases_processes_and_activities_linked_to_this_agent": {
      "other_information": {
        "original_name": "Other Information",
        "value": "No other related information on this agent was found.",
        "links": [],
        "cross_references": []
      }
    }
  },
  "cross_references": [
    {
      "type": "name_match",
      "text": "benzene",
      "confidence": 1.0,
      "uuid": "b05124de-5f34-4c14-8f04-ccb20c3780d9",
      "name": "Benzene",
      "url": "https://haz-map.com/Agents/5",
      "category": "agents"
    },
    {
      "type": "name_match",
      "text": "chlorobenzene",
      "confidence": 1.0,
      "uuid": "7e598eca-f35d-493c-aa78-93bb67744c4c",
      "name": "Chlorobenzene",
      "url": "https://haz-map.com/Agents/85",
      "category": "agents"
    },
    {
      "type": "name_match",
      "text": "aniline",
      "confidence": 1.0,
      "uuid": "e4932692-8d9c-4a98-8c5c-81e55b12aedf",
      "name": "Aniline",
      "url": "https://haz-map.com/Agents/296",
      "category": "agents"
    },
    {
      "type": "name_match",
      "text": "mica",
      "confidence": 1.0,
      "uuid": "433f26f1-c399-4596-b179-ce3843cfd465",
      "name": "Mica",
      "url": "https://haz-map.com/Agents/621",
      "category": "agents"
    },
    {
      "type": "name_match",
      "text": "nitrogen",
      "confidence": 1.0,
      "uuid": "db5e90a9-06d2-45b9-8b81-f345a89b0bc0",
      "name": "Nitrogen",
      "url": "https://haz-map.com/Agents/1072",
      "category": "agents"
    },
    {
      "type": "name_match",
      "text": "ht",
      "confidence": 1.0,
      "uuid": "764df367-8d53-4a11-81a2-31ccfe122a8d",
      "name": "HT",
      "url": "https://haz-map.com/Agents/2168",
      "category": "agents"
    },
    {
      "type": "name_match",
      "text": "4-chloroaniline",
      "confidence": 1.0,
      "uuid": "a6515926-1850-4e05-8609-31fb1243a80a",
      "name": "4-Chloroaniline",
      "url": "https://haz-map.com/Agents/3291",
      "category": "agents"
    },
    {
      "type": "name_match",
      "text": "6-chlorometanilic acid",
      "confidence": 1.0,
      "uuid": "76affc32-1af8-4894-811c-92f09102f9f7",
      "name": "6-Chlorometanilic acid",
      "url": "https://haz-map.com/Agents/3485",
      "category": "agents"
    },
    {
      "type": "name_match",
      "text": "benzenesulfonic acid",
      "confidence": 1.0,
      "uuid": "39630619-7b3f-4266-b4e1-e41deb2f24e6",
      "name": "Benzenesulfonic acid",
      "url": "https://haz-map.com/Agents/3840",
      "category": "agents"
    },
    {
      "type": "name_match",
      "text": "metanilic acid",
      "confidence": 1.0,
      "uuid": "569e8d11-134b-43be-9e4a-eb751493d4da",
      "name": "Metanilic acid",
      "url": "https://haz-map.com/Agents/20804",
      "category": "agents"
    }
  ],
  "all_links": [
    {
      "text": "Search PubMed",
      "url": "https://www.ncbi.nlm.nih.gov/pubmed?term=6-Chlorometanilic+acid%20AND%20human%5Bmh%5D%20AND%20%28Occupational%20Diseases%20%5Bmh%5D%20OR%20Occupational%20Exposure%20%5Bmh%5D%29%20%20AND%20%28tox%5Bsb%5D%29&cmd=search"
    }
  ]
}