{
  "metadata": {
    "scraped_from": "https://haz-map.com/Agents/6641",
    "entity_name": "Phenyldichloroarsine",
    "category": "agents",
    "uuid": "771cddef-8052-49cc-b87a-a72abedcc3c8",
    "scraped_at": "2025-07-23T20:03:51.895357"
  },
  "parsed_at": "2025-07-24T01:13:36.477242",
  "title": "Phenyldichloroarsine",
  "sections": {
    "general": {
      "agent_name": {
        "original_name": "Agent Name",
        "value": "Phenyldichloroarsine",
        "links": [],
        "cross_references": [
          {
            "type": "name_match",
            "text": "arsine",
            "confidence": 1.0,
            "uuid": "9cbc23fa-8b7b-4fc4-b893-37c76e241fda",
            "name": "Arsine",
            "url": "https://haz-map.com/Agents/80",
            "category": "agents"
          },
          {
            "type": "name_match",
            "text": "phenyldichloroarsine",
            "confidence": 1.0,
            "uuid": "771cddef-8052-49cc-b87a-a72abedcc3c8",
            "name": "Phenyldichloroarsine",
            "url": "https://haz-map.com/Agents/6641",
            "category": "agents"
          }
        ]
      },
      "cas_number": {
        "original_name": "CAS Number",
        "value": "696-28-6",
        "links": [],
        "cross_references": []
      },
      "formula": {
        "original_name": "Formula",
        "value": "C6-H5-As-Cl2",
        "links": [],
        "cross_references": []
      },
      "major_category": {
        "original_name": "Major Category",
        "value": "Toxic Gases & Vapors",
        "links": [],
        "cross_references": []
      },
      "synonyms": {
        "original_name": "Synonyms",
        "value": "Arsine dichloride, phenyl-; Arsine, dichlorophenyl-; Arsonous dichloride, phenyl-; Dichlor-fenylarsin [Czech]; Dichlorophenylarsine; FDA; Fenildicloroarsina [Italian]; Fenyldichlorarsin [Czech]; Phenyl dichlorarsine; Phenyl dichloroarsine; Phenylarsine dichloride; Phenylarsinedichloride; Phenylarsonous dichloride; TL 69; [ChemIDplus]",
        "links": [],
        "cross_references": [
          {
            "type": "name_match",
            "text": "arsine",
            "confidence": 1.0,
            "uuid": "9cbc23fa-8b7b-4fc4-b893-37c76e241fda",
            "name": "Arsine",
            "url": "https://haz-map.com/Agents/80",
            "category": "agents"
          },
          {
            "type": "name_match",
            "text": "tali",
            "confidence": 1.0,
            "uuid": "8c3a0f99-2143-4122-b539-ec5cc49596b0",
            "name": "Tali",
            "url": "https://haz-map.com/Agents/1128",
            "category": "agents"
          },
          {
            "type": "name_match",
            "text": "dichlorophen",
            "confidence": 1.0,
            "uuid": "43441a9d-e8c4-49f1-8bbf-52d24da33df3",
            "name": "Dichlorophen",
            "url": "https://haz-map.com/Agents/1159",
            "category": "agents"
          }
        ]
      },
      "category": {
        "original_name": "Category",
        "value": "Chemical Weapons",
        "links": [],
        "cross_references": [
          {
            "type": "name_match",
            "text": "mica",
            "confidence": 1.0,
            "uuid": "433f26f1-c399-4596-b179-ce3843cfd465",
            "name": "Mica",
            "url": "https://haz-map.com/Agents/621",
            "category": "agents"
          }
        ]
      },
      "description": {
        "original_name": "Description",
        "value": "Liquid; Decomposes in water; [Hawley] Reacts with water producing hydrochloric acid; [CAMEO]",
        "links": [],
        "cross_references": [
          {
            "type": "name_match",
            "text": "chloric acid",
            "confidence": 1.0,
            "uuid": "b21bc556-162c-4249-8afc-fb6303f2b8f9",
            "name": "Chloric acid",
            "url": "https://haz-map.com/Agents/8326",
            "category": "agents"
          },
          {
            "type": "name_match",
            "text": "water",
            "confidence": 1.0,
            "uuid": "6f2a7557-dfd2-49bc-9b4b-a93cd8e225d4",
            "name": "Water",
            "url": "https://haz-map.com/Agents/18668",
            "category": "agents"
          }
        ]
      },
      "sourcesuses": {
        "original_name": "Sources/Uses",
        "value": "Used as a lachrymator and a solvent for diphenylcyanoarsine; [Hawley]",
        "links": [],
        "cross_references": [
          {
            "type": "name_match",
            "text": "arsine",
            "confidence": 1.0,
            "uuid": "9cbc23fa-8b7b-4fc4-b893-37c76e241fda",
            "name": "Arsine",
            "url": "https://haz-map.com/Agents/80",
            "category": "agents"
          }
        ]
      },
      "comments": {
        "original_name": "Comments",
        "value": "A strong skin, eye, and mucous membrane irritant; [HSDB] May burn skin and eyes; [CAMEO] See \"Arsenic\" and linked occupational diseases.",
        "links": [],
        "cross_references": [
          {
            "type": "name_match",
            "text": "burn",
            "confidence": 1.0,
            "uuid": "63665de5-6376-4918-8dbf-4c10c4d63837",
            "name": "burn",
            "url": "https://haz-map.com/Findings/204",
            "category": "findings"
          },
          {
            "type": "name_match",
            "text": "arsenic",
            "confidence": 1.0,
            "uuid": "2bf78711-4881-4b55-9b7c-df80529b3991",
            "name": "Arsenic",
            "url": "https://haz-map.com/Agents/1147",
            "category": "agents"
          }
        ]
      },
      "biomedical_references": {
        "original_name": "Biomedical References",
        "value": "Search PubMed",
        "links": [
          {
            "text": "Search PubMed",
            "url": "https://www.ncbi.nlm.nih.gov/pubmed?term=Phenyldichloroarsine%20AND%20human%5Bmh%5D%20AND%20%28Occupational%20Diseases%20%5Bmh%5D%20OR%20Occupational%20Exposure%20%5Bmh%5D%29%20%20AND%20%28tox%5Bsb%5D%29&cmd=search"
          }
        ],
        "cross_references": []
      }
    },
    "exposure_assessment": {
      "vapor_pressure": {
        "original_name": "Vapor Pressure",
        "value": "0.113 mm Hg",
        "links": [],
        "cross_references": []
      },
      "lethal_concentration": {
        "original_name": "Lethal Concentration",
        "value": "LCLo (rat) = 1,400 mg/m3/10min",
        "links": [],
        "cross_references": []
      }
    },
    "adverse_effects": {
      "lachrymator": {
        "original_name": "Lachrymator",
        "value": "Yes",
        "links": [],
        "cross_references": []
      },
      "dermatotoxin": {
        "original_name": "Dermatotoxin",
        "value": "Skin burns",
        "links": [],
        "cross_references": [
          {
            "type": "name_match",
            "text": "burn",
            "confidence": 1.0,
            "uuid": "63665de5-6376-4918-8dbf-4c10c4d63837",
            "name": "burn",
            "url": "https://haz-map.com/Findings/204",
            "category": "findings"
          }
        ]
      }
    },
    "diseases_processes_and_activities_linked_to_this_agent": {
      "other_information": {
        "original_name": "Other Information",
        "value": "No other related information on this agent was found.",
        "links": [],
        "cross_references": []
      }
    }
  },
  "cross_references": [
    {
      "type": "name_match",
      "text": "burn",
      "confidence": 1.0,
      "uuid": "63665de5-6376-4918-8dbf-4c10c4d63837",
      "name": "burn",
      "url": "https://haz-map.com/Findings/204",
      "category": "findings"
    },
    {
      "type": "name_match",
      "text": "arsine",
      "confidence": 1.0,
      "uuid": "9cbc23fa-8b7b-4fc4-b893-37c76e241fda",
      "name": "Arsine",
      "url": "https://haz-map.com/Agents/80",
      "category": "agents"
    },
    {
      "type": "name_match",
      "text": "mica",
      "confidence": 1.0,
      "uuid": "433f26f1-c399-4596-b179-ce3843cfd465",
      "name": "Mica",
      "url": "https://haz-map.com/Agents/621",
      "category": "agents"
    },
    {
      "type": "name_match",
      "text": "tali",
      "confidence": 1.0,
      "uuid": "8c3a0f99-2143-4122-b539-ec5cc49596b0",
      "name": "Tali",
      "url": "https://haz-map.com/Agents/1128",
      "category": "agents"
    },
    {
      "type": "name_match",
      "text": "arsenic",
      "confidence": 1.0,
      "uuid": "2bf78711-4881-4b55-9b7c-df80529b3991",
      "name": "Arsenic",
      "url": "https://haz-map.com/Agents/1147",
      "category": "agents"
    },
    {
      "type": "name_match",
      "text": "dichlorophen",
      "confidence": 1.0,
      "uuid": "43441a9d-e8c4-49f1-8bbf-52d24da33df3",
      "name": "Dichlorophen",
      "url": "https://haz-map.com/Agents/1159",
      "category": "agents"
    },
    {
      "type": "name_match",
      "text": "phenyldichloroarsine",
      "confidence": 1.0,
      "uuid": "771cddef-8052-49cc-b87a-a72abedcc3c8",
      "name": "Phenyldichloroarsine",
      "url": "https://haz-map.com/Agents/6641",
      "category": "agents"
    },
    {
      "type": "name_match",
      "text": "chloric acid",
      "confidence": 1.0,
      "uuid": "b21bc556-162c-4249-8afc-fb6303f2b8f9",
      "name": "Chloric acid",
      "url": "https://haz-map.com/Agents/8326",
      "category": "agents"
    },
    {
      "type": "name_match",
      "text": "water",
      "confidence": 1.0,
      "uuid": "6f2a7557-dfd2-49bc-9b4b-a93cd8e225d4",
      "name": "Water",
      "url": "https://haz-map.com/Agents/18668",
      "category": "agents"
    }
  ],
  "all_links": [
    {
      "text": "Search PubMed",
      "url": "https://www.ncbi.nlm.nih.gov/pubmed?term=Phenyldichloroarsine%20AND%20human%5Bmh%5D%20AND%20%28Occupational%20Diseases%20%5Bmh%5D%20OR%20Occupational%20Exposure%20%5Bmh%5D%29%20%20AND%20%28tox%5Bsb%5D%29&cmd=search"
    }
  ]
}