{
  "metadata": {
    "scraped_from": "https://haz-map.com/Agents/316",
    "entity_name": "Bromine pentafluoride",
    "category": "agents",
    "uuid": "7745dfc0-f620-440c-b567-6594fcaabd78",
    "scraped_at": "2025-07-23T18:39:23.031507"
  },
  "parsed_at": "2025-07-24T01:04:32.484037",
  "title": "Bromine pentafluoride",
  "sections": {
    "general": {
      "agent_name": {
        "original_name": "Agent Name",
        "value": "Bromine pentafluoride",
        "links": [],
        "cross_references": [
          {
            "type": "name_match",
            "text": "bromine",
            "confidence": 1.0,
            "uuid": "9b659123-45fb-4e5c-b681-d3c1cec47df3",
            "name": "Bromine",
            "url": "https://haz-map.com/Agents/315",
            "category": "agents"
          },
          {
            "type": "name_match",
            "text": "bromine pentafluoride",
            "confidence": 1.0,
            "uuid": "7745dfc0-f620-440c-b567-6594fcaabd78",
            "name": "Bromine pentafluoride",
            "url": "https://haz-map.com/Agents/316",
            "category": "agents"
          }
        ]
      },
      "cas_number": {
        "original_name": "CAS Number",
        "value": "7789-30-2",
        "links": [],
        "cross_references": []
      },
      "formula": {
        "original_name": "Formula",
        "value": "Br-F5",
        "links": [],
        "cross_references": []
      },
      "major_category": {
        "original_name": "Major Category",
        "value": "Toxic Gases & Vapors",
        "links": [],
        "cross_references": []
      },
      "synonyms": {
        "original_name": "Synonyms",
        "value": "Bromine fluoride; [NIOSH] UN1745",
        "links": [],
        "cross_references": [
          {
            "type": "name_match",
            "text": "bromine",
            "confidence": 1.0,
            "uuid": "9b659123-45fb-4e5c-b681-d3c1cec47df3",
            "name": "Bromine",
            "url": "https://haz-map.com/Agents/315",
            "category": "agents"
          }
        ]
      },
      "category": {
        "original_name": "Category",
        "value": "Oxidizers",
        "links": [],
        "cross_references": []
      },
      "description": {
        "original_name": "Description",
        "value": "Colorless to pale-yellow, fuming liquid with a pungent odor; Note: A colorless gas above 105 degrees F. Shipped as a compressed gas; [NIOSH]",
        "links": [],
        "cross_references": []
      },
      "sourcesuses": {
        "original_name": "Sources/Uses",
        "value": "Used to produce fluorocarbons and as an oxidizer in rocket fuels; [ACGIH]",
        "links": [],
        "cross_references": [
          {
            "type": "name_match",
            "text": "carbon",
            "confidence": 1.0,
            "uuid": "b53f8815-ee80-40ef-b4aa-3b000e17dab5",
            "name": "Carbon",
            "url": "https://haz-map.com/Agents/1891",
            "category": "agents"
          }
        ]
      },
      "comments": {
        "original_name": "Comments",
        "value": "Skin or eye contact can cause \"painful, deep-seated, long-lasting burns.\" In animal studies, bromine trifluoride produces elevated fluoride levels and severe lung irritation and pneumonitis; [ACGIH] Animals exposed chronically to > 3 ppm have liver, kidney, and respiratory injury; [HSDB] A corrosive substance that can cause pulmonary edema; May cause fluorosis; [ICSC] See \"FLUORIDES.\"",
        "links": [],
        "cross_references": [
          {
            "type": "name_match",
            "text": "pulmonary edema",
            "confidence": 1.0,
            "uuid": "ee39114e-c922-40fd-9588-a532de404962",
            "name": "pulmonary edema",
            "url": "https://haz-map.com/Findings/186",
            "category": "findings"
          },
          {
            "type": "name_match",
            "text": "burn",
            "confidence": 1.0,
            "uuid": "63665de5-6376-4918-8dbf-4c10c4d63837",
            "name": "burn",
            "url": "https://haz-map.com/Findings/204",
            "category": "findings"
          },
          {
            "type": "name_match",
            "text": "fluorides",
            "confidence": 1.0,
            "uuid": "141bb0c9-8304-49e7-95da-d9b3c5ecc3d9",
            "name": "FLUORIDES",
            "url": "https://haz-map.com/Agents/123",
            "category": "agents"
          },
          {
            "type": "name_match",
            "text": "bromine",
            "confidence": 1.0,
            "uuid": "9b659123-45fb-4e5c-b681-d3c1cec47df3",
            "name": "Bromine",
            "url": "https://haz-map.com/Agents/315",
            "category": "agents"
          },
          {
            "type": "name_match",
            "text": "bromine trifluoride",
            "confidence": 1.0,
            "uuid": "7bedfc75-6a0c-4daf-91af-107f44d278a1",
            "name": "Bromine trifluoride",
            "url": "https://haz-map.com/Agents/1384",
            "category": "agents"
          }
        ]
      },
      "reference_link_1": {
        "original_name": "Reference Link #1",
        "value": "NIOSH Occupational Health Guidelines for Chemical Hazards: Bromine pentafluoride",
        "links": [
          {
            "text": "NIOSH Occupational Health Guidelines for Chemical Hazards: Bromine pentafluoride",
            "url": "https://www.cdc.gov/niosh/docs/81-123/pdfs/0065.pdf?id=10.26616/NIOSHPUB81123"
          }
        ],
        "cross_references": [
          {
            "type": "name_match",
            "text": "bromine",
            "confidence": 1.0,
            "uuid": "9b659123-45fb-4e5c-b681-d3c1cec47df3",
            "name": "Bromine",
            "url": "https://haz-map.com/Agents/315",
            "category": "agents"
          },
          {
            "type": "name_match",
            "text": "bromine pentafluoride",
            "confidence": 1.0,
            "uuid": "7745dfc0-f620-440c-b567-6594fcaabd78",
            "name": "Bromine pentafluoride",
            "url": "https://haz-map.com/Agents/316",
            "category": "agents"
          },
          {
            "type": "name_match",
            "text": "mica",
            "confidence": 1.0,
            "uuid": "433f26f1-c399-4596-b179-ce3843cfd465",
            "name": "Mica",
            "url": "https://haz-map.com/Agents/621",
            "category": "agents"
          }
        ]
      },
      "biomedical_references": {
        "original_name": "Biomedical References",
        "value": "Search PubMed",
        "links": [
          {
            "text": "Search PubMed",
            "url": "https://www.ncbi.nlm.nih.gov/pubmed?term=Bromine+pentafluoride%20AND%20human%5Bmh%5D%20AND%20%28Occupational%20Diseases%20%5Bmh%5D%20OR%20Occupational%20Exposure%20%5Bmh%5D%29%20%20AND%20%28tox%5Bsb%5D%29&cmd=search"
          }
        ],
        "cross_references": []
      }
    },
    "exposure_assessment": {
      "skin_designation_acgih": {
        "original_name": "Skin Designation (ACGIH)",
        "value": "Insufficient data",
        "links": [],
        "cross_references": []
      },
      "tih": {
        "original_name": "TIH",
        "value": "Yes",
        "links": [],
        "cross_references": []
      },
      "tlv_acgih": {
        "original_name": "TLV (ACGIH)",
        "value": "0.1 ppm",
        "links": [],
        "cross_references": []
      },
      "dangerous_when_wet": {
        "original_name": "Dangerous When Wet",
        "value": "Yes",
        "links": [],
        "cross_references": []
      },
      "idlh_niosh": {
        "original_name": "IDLH (NIOSH)",
        "value": "1.7 ppm",
        "links": [],
        "cross_references": []
      },
      "vapor_pressure": {
        "original_name": "Vapor Pressure",
        "value": "406 mm Hg",
        "links": [],
        "cross_references": []
      },
      "explanatory_notes": {
        "original_name": "Explanatory Notes",
        "value": "Some “Water Reactive Materials” are also TIH materials themselves: Bromine pentafluoride; [ERG 2016] VP from HSDB;",
        "links": [],
        "cross_references": [
          {
            "type": "name_match",
            "text": "bromine",
            "confidence": 1.0,
            "uuid": "9b659123-45fb-4e5c-b681-d3c1cec47df3",
            "name": "Bromine",
            "url": "https://haz-map.com/Agents/315",
            "category": "agents"
          },
          {
            "type": "name_match",
            "text": "bromine pentafluoride",
            "confidence": 1.0,
            "uuid": "7745dfc0-f620-440c-b567-6594fcaabd78",
            "name": "Bromine pentafluoride",
            "url": "https://haz-map.com/Agents/316",
            "category": "agents"
          },
          {
            "type": "name_match",
            "text": "water",
            "confidence": 1.0,
            "uuid": "6f2a7557-dfd2-49bc-9b4b-a93cd8e225d4",
            "name": "Water",
            "url": "https://haz-map.com/Agents/18668",
            "category": "agents"
          }
        ]
      },
      "reference_link_2": {
        "original_name": "Reference Link #2",
        "value": "ICSC: Bromine pentafluoride",
        "links": [
          {
            "text": "ICSC: Bromine pentafluoride",
            "url": "https://www.ilo.org/dyn/icsc/showcard.home"
          }
        ],
        "cross_references": [
          {
            "type": "name_match",
            "text": "bromine",
            "confidence": 1.0,
            "uuid": "9b659123-45fb-4e5c-b681-d3c1cec47df3",
            "name": "Bromine",
            "url": "https://haz-map.com/Agents/315",
            "category": "agents"
          },
          {
            "type": "name_match",
            "text": "bromine pentafluoride",
            "confidence": 1.0,
            "uuid": "7745dfc0-f620-440c-b567-6594fcaabd78",
            "name": "Bromine pentafluoride",
            "url": "https://haz-map.com/Agents/316",
            "category": "agents"
          }
        ]
      },
      "nfpa": {
        "original_name": "NFPA",
        "value": "will not burn",
        "links": [],
        "cross_references": [
          {
            "type": "name_match",
            "text": "burn",
            "confidence": 1.0,
            "uuid": "63665de5-6376-4918-8dbf-4c10c4d63837",
            "name": "burn",
            "url": "https://haz-map.com/Findings/204",
            "category": "findings"
          }
        ]
      }
    },
    "adverse_effects": {
      "toxic_pneumonitis": {
        "original_name": "Toxic Pneumonitis",
        "value": "Yes",
        "links": [],
        "cross_references": []
      },
      "hepatotoxin": {
        "original_name": "Hepatotoxin",
        "value": "Hepatoxic (a) from occupational exposure (secondary effect) or (b) in animal studies or in humans after ingestion",
        "links": [],
        "cross_references": []
      },
      "dermatotoxin": {
        "original_name": "Dermatotoxin",
        "value": "Skin burns",
        "links": [],
        "cross_references": [
          {
            "type": "name_match",
            "text": "burn",
            "confidence": 1.0,
            "uuid": "63665de5-6376-4918-8dbf-4c10c4d63837",
            "name": "burn",
            "url": "https://haz-map.com/Findings/204",
            "category": "findings"
          }
        ]
      }
    },
    "diseases_processes_and_activities_linked_to_this_agent": {
      "diseases": {
        "original_name": "Diseases",
        "value": "Occupational diseases associated with exposure to this agent: Pneumonitis, toxic",
        "links": [
          {
            "text": "Pneumonitis, toxic",
            "url": "https://haz-map.com/Diseases/306"
          }
        ],
        "cross_references": [
          {
            "type": "url_match",
            "text": "Pneumonitis, toxic",
            "url": "https://haz-map.com/Diseases/306",
            "confidence": 1.0,
            "uuid": "cd799281-0284-450d-bb82-ed6b675616ac",
            "name": "Pneumonitis, toxic",
            "category": "diseases"
          }
        ]
      },
      "processes": {
        "original_name": "Processes",
        "value": "Industrial Processes with risk of exposure: Toxic Gas from Spilling Chemical in Water",
        "links": [
          {
            "text": "Toxic Gas from Spilling Chemical in Water",
            "url": "https://haz-map.com/Processes/256"
          }
        ],
        "cross_references": [
          {
            "type": "name_match",
            "text": "mica",
            "confidence": 1.0,
            "uuid": "433f26f1-c399-4596-b179-ce3843cfd465",
            "name": "Mica",
            "url": "https://haz-map.com/Agents/621",
            "category": "agents"
          },
          {
            "type": "name_match",
            "text": "water",
            "confidence": 1.0,
            "uuid": "6f2a7557-dfd2-49bc-9b4b-a93cd8e225d4",
            "name": "Water",
            "url": "https://haz-map.com/Agents/18668",
            "category": "agents"
          }
        ]
      }
    }
  },
  "cross_references": [
    {
      "type": "url_match",
      "text": "Pneumonitis, toxic",
      "url": "https://haz-map.com/Diseases/306",
      "confidence": 1.0,
      "uuid": "cd799281-0284-450d-bb82-ed6b675616ac",
      "name": "Pneumonitis, toxic",
      "category": "diseases"
    },
    {
      "type": "name_match",
      "text": "pulmonary edema",
      "confidence": 1.0,
      "uuid": "ee39114e-c922-40fd-9588-a532de404962",
      "name": "pulmonary edema",
      "url": "https://haz-map.com/Findings/186",
      "category": "findings"
    },
    {
      "type": "name_match",
      "text": "burn",
      "confidence": 1.0,
      "uuid": "63665de5-6376-4918-8dbf-4c10c4d63837",
      "name": "burn",
      "url": "https://haz-map.com/Findings/204",
      "category": "findings"
    },
    {
      "type": "name_match",
      "text": "fluorides",
      "confidence": 1.0,
      "uuid": "141bb0c9-8304-49e7-95da-d9b3c5ecc3d9",
      "name": "FLUORIDES",
      "url": "https://haz-map.com/Agents/123",
      "category": "agents"
    },
    {
      "type": "name_match",
      "text": "bromine",
      "confidence": 1.0,
      "uuid": "9b659123-45fb-4e5c-b681-d3c1cec47df3",
      "name": "Bromine",
      "url": "https://haz-map.com/Agents/315",
      "category": "agents"
    },
    {
      "type": "name_match",
      "text": "bromine pentafluoride",
      "confidence": 1.0,
      "uuid": "7745dfc0-f620-440c-b567-6594fcaabd78",
      "name": "Bromine pentafluoride",
      "url": "https://haz-map.com/Agents/316",
      "category": "agents"
    },
    {
      "type": "name_match",
      "text": "mica",
      "confidence": 1.0,
      "uuid": "433f26f1-c399-4596-b179-ce3843cfd465",
      "name": "Mica",
      "url": "https://haz-map.com/Agents/621",
      "category": "agents"
    },
    {
      "type": "name_match",
      "text": "bromine trifluoride",
      "confidence": 1.0,
      "uuid": "7bedfc75-6a0c-4daf-91af-107f44d278a1",
      "name": "Bromine trifluoride",
      "url": "https://haz-map.com/Agents/1384",
      "category": "agents"
    },
    {
      "type": "name_match",
      "text": "carbon",
      "confidence": 1.0,
      "uuid": "b53f8815-ee80-40ef-b4aa-3b000e17dab5",
      "name": "Carbon",
      "url": "https://haz-map.com/Agents/1891",
      "category": "agents"
    },
    {
      "type": "name_match",
      "text": "water",
      "confidence": 1.0,
      "uuid": "6f2a7557-dfd2-49bc-9b4b-a93cd8e225d4",
      "name": "Water",
      "url": "https://haz-map.com/Agents/18668",
      "category": "agents"
    }
  ],
  "all_links": [
    {
      "text": "NIOSH Occupational Health Guidelines for Chemical Hazards: Bromine pentafluoride",
      "url": "https://www.cdc.gov/niosh/docs/81-123/pdfs/0065.pdf?id=10.26616/NIOSHPUB81123"
    },
    {
      "text": "Search PubMed",
      "url": "https://www.ncbi.nlm.nih.gov/pubmed?term=Bromine+pentafluoride%20AND%20human%5Bmh%5D%20AND%20%28Occupational%20Diseases%20%5Bmh%5D%20OR%20Occupational%20Exposure%20%5Bmh%5D%29%20%20AND%20%28tox%5Bsb%5D%29&cmd=search"
    },
    {
      "text": "ICSC: Bromine pentafluoride",
      "url": "https://www.ilo.org/dyn/icsc/showcard.home"
    },
    {
      "text": "Pneumonitis, toxic",
      "url": "https://haz-map.com/Diseases/306"
    },
    {
      "text": "Toxic Gas from Spilling Chemical in Water",
      "url": "https://haz-map.com/Processes/256"
    }
  ]
}