{
  "metadata": {
    "scraped_from": "https://haz-map.com/Agents/20015",
    "entity_name": "4-Chloro-2-phenylphenol",
    "category": "agents",
    "uuid": "77f3c9d5-d7c6-4812-a343-dc6f8b20aec6",
    "scraped_at": "2025-07-23T22:17:18.534437"
  },
  "parsed_at": "2025-07-24T01:01:47.502149",
  "title": "4-Chloro-2-phenylphenol",
  "sections": {
    "general": {
      "agent_name": {
        "original_name": "Agent Name",
        "value": "4-Chloro-2-phenylphenol",
        "links": [],
        "cross_references": [
          {
            "type": "name_match",
            "text": "phenol",
            "confidence": 1.0,
            "uuid": "03141a03-a7df-4f51-9a37-adde1a7c4b31",
            "name": "Phenol",
            "url": "https://haz-map.com/Agents/84",
            "category": "agents"
          },
          {
            "type": "name_match",
            "text": "4-chloro-2-phenylphenol",
            "confidence": 1.0,
            "uuid": "77f3c9d5-d7c6-4812-a343-dc6f8b20aec6",
            "name": "4-Chloro-2-phenylphenol",
            "url": "https://haz-map.com/Agents/20015",
            "category": "agents"
          }
        ]
      },
      "cas_number": {
        "original_name": "CAS Number",
        "value": "607-12-5",
        "links": [],
        "cross_references": []
      },
      "formula": {
        "original_name": "Formula",
        "value": "C12-H9-Cl-O",
        "links": [],
        "cross_references": []
      },
      "major_category": {
        "original_name": "Major Category",
        "value": "Other Classes",
        "links": [],
        "cross_references": []
      },
      "synonyms": {
        "original_name": "Synonyms",
        "value": "2-Biphenylol, 5-chloro-; 2-Hydroxy-5-chlorobiphenyl; 2-Phenyl-4-chlorophenol; 4-Chloro-o-phenylphenol; 5-Chloro-(1,1'-biphenyl)-2-ol; 5-Chloro-2-biphenylol; o-Phenyl-p-chlorophenol; p-Chloro-o-phenylphenol; (1,1'-Biphenyl)-2-ol, 5-chloro-; 2-Biphenylol, 5-chloro- (8CI); 5-Chloro(1,1'-biphenyl)-2-ol; [ChemIDplus]",
        "links": [],
        "cross_references": [
          {
            "type": "name_match",
            "text": "phenol",
            "confidence": 1.0,
            "uuid": "03141a03-a7df-4f51-9a37-adde1a7c4b31",
            "name": "Phenol",
            "url": "https://haz-map.com/Agents/84",
            "category": "agents"
          },
          {
            "type": "name_match",
            "text": "biphenyl",
            "confidence": 1.0,
            "uuid": "740f90cb-888a-4a3b-b9ae-30768927fec2",
            "name": "Biphenyl",
            "url": "https://haz-map.com/Agents/306",
            "category": "agents"
          },
          {
            "type": "name_match",
            "text": "4-chlorophenol",
            "confidence": 1.0,
            "uuid": "68860eb9-ad59-4031-9952-3aa0643ccf34",
            "name": "4-Chlorophenol",
            "url": "https://haz-map.com/Agents/3294",
            "category": "agents"
          },
          {
            "type": "name_match",
            "text": "o-phenylphenol",
            "confidence": 1.0,
            "uuid": "89d6c16d-eb36-4bbf-8089-165988f14c3c",
            "name": "o-Phenylphenol",
            "url": "https://haz-map.com/Agents/6418",
            "category": "agents"
          }
        ]
      },
      "category": {
        "original_name": "Category",
        "value": "Halogenated Polyaromatics",
        "links": [],
        "cross_references": []
      },
      "sourcesuses": {
        "original_name": "Sources/Uses",
        "value": "Used as a biocide; [ExPub: EC: SCENIHR]",
        "links": [],
        "cross_references": []
      },
      "comments": {
        "original_name": "Comments",
        "value": "See \"Polychlorinated biphenyls.\"",
        "links": [],
        "cross_references": [
          {
            "type": "name_match",
            "text": "biphenyl",
            "confidence": 1.0,
            "uuid": "740f90cb-888a-4a3b-b9ae-30768927fec2",
            "name": "Biphenyl",
            "url": "https://haz-map.com/Agents/306",
            "category": "agents"
          },
          {
            "type": "name_match",
            "text": "polychlorinated biphenyls",
            "confidence": 1.0,
            "uuid": "25851d41-a9fd-4916-b3a9-e1eac2099e84",
            "name": "Polychlorinated biphenyls",
            "url": "https://haz-map.com/Agents/6747",
            "category": "agents"
          },
          {
            "type": "name_match",
            "text": "chlorin",
            "confidence": 1.0,
            "uuid": "4a566fec-ec7e-42b0-9f14-ec586335e694",
            "name": "Chlorin",
            "url": "https://haz-map.com/Agents/20422",
            "category": "agents"
          }
        ]
      },
      "biomedical_references": {
        "original_name": "Biomedical References",
        "value": "Search PubMed",
        "links": [
          {
            "text": "Search PubMed",
            "url": "https://www.ncbi.nlm.nih.gov/pubmed?term=4-Chloro-2-phenylphenol%20AND%20human%5Bmh%5D%20AND%20%28Occupational%20Diseases%20%5Bmh%5D%20OR%20Occupational%20Exposure%20%5Bmh%5D%29%20%20AND%20%28tox%5Bsb%5D%29&cmd=search"
          }
        ],
        "cross_references": []
      }
    },
    "exposure_assessment": {
      "vapor_pressure": {
        "original_name": "Vapor Pressure",
        "value": "1.07E-05 mm Hg",
        "links": [],
        "cross_references": []
      }
    },
    "diseases_processes_and_activities_linked_to_this_agent": {
      "processes": {
        "original_name": "Processes",
        "value": "Industrial Processes with risk of exposure: Using Disinfectants or Biocides",
        "links": [
          {
            "text": "Using Disinfectants or Biocides",
            "url": "https://haz-map.com/Processes/167"
          }
        ],
        "cross_references": [
          {
            "type": "url_match",
            "text": "Using Disinfectants or Biocides",
            "url": "https://haz-map.com/Processes/167",
            "confidence": 1.0,
            "uuid": "7accb745-ad60-4ef8-9039-8ac4febb8fd8",
            "name": "Using Disinfectants or Biocides",
            "category": "processes"
          }
        ]
      }
    }
  },
  "cross_references": [
    {
      "type": "url_match",
      "text": "Using Disinfectants or Biocides",
      "url": "https://haz-map.com/Processes/167",
      "confidence": 1.0,
      "uuid": "7accb745-ad60-4ef8-9039-8ac4febb8fd8",
      "name": "Using Disinfectants or Biocides",
      "category": "processes"
    },
    {
      "type": "name_match",
      "text": "phenol",
      "confidence": 1.0,
      "uuid": "03141a03-a7df-4f51-9a37-adde1a7c4b31",
      "name": "Phenol",
      "url": "https://haz-map.com/Agents/84",
      "category": "agents"
    },
    {
      "type": "name_match",
      "text": "biphenyl",
      "confidence": 1.0,
      "uuid": "740f90cb-888a-4a3b-b9ae-30768927fec2",
      "name": "Biphenyl",
      "url": "https://haz-map.com/Agents/306",
      "category": "agents"
    },
    {
      "type": "name_match",
      "text": "4-chlorophenol",
      "confidence": 1.0,
      "uuid": "68860eb9-ad59-4031-9952-3aa0643ccf34",
      "name": "4-Chlorophenol",
      "url": "https://haz-map.com/Agents/3294",
      "category": "agents"
    },
    {
      "type": "name_match",
      "text": "o-phenylphenol",
      "confidence": 1.0,
      "uuid": "89d6c16d-eb36-4bbf-8089-165988f14c3c",
      "name": "o-Phenylphenol",
      "url": "https://haz-map.com/Agents/6418",
      "category": "agents"
    },
    {
      "type": "name_match",
      "text": "polychlorinated biphenyls",
      "confidence": 1.0,
      "uuid": "25851d41-a9fd-4916-b3a9-e1eac2099e84",
      "name": "Polychlorinated biphenyls",
      "url": "https://haz-map.com/Agents/6747",
      "category": "agents"
    },
    {
      "type": "name_match",
      "text": "4-chloro-2-phenylphenol",
      "confidence": 1.0,
      "uuid": "77f3c9d5-d7c6-4812-a343-dc6f8b20aec6",
      "name": "4-Chloro-2-phenylphenol",
      "url": "https://haz-map.com/Agents/20015",
      "category": "agents"
    },
    {
      "type": "name_match",
      "text": "chlorin",
      "confidence": 1.0,
      "uuid": "4a566fec-ec7e-42b0-9f14-ec586335e694",
      "name": "Chlorin",
      "url": "https://haz-map.com/Agents/20422",
      "category": "agents"
    }
  ],
  "all_links": [
    {
      "text": "Search PubMed",
      "url": "https://www.ncbi.nlm.nih.gov/pubmed?term=4-Chloro-2-phenylphenol%20AND%20human%5Bmh%5D%20AND%20%28Occupational%20Diseases%20%5Bmh%5D%20OR%20Occupational%20Exposure%20%5Bmh%5D%29%20%20AND%20%28tox%5Bsb%5D%29&cmd=search"
    },
    {
      "text": "Using Disinfectants or Biocides",
      "url": "https://haz-map.com/Processes/167"
    }
  ]
}