{
  "metadata": {
    "scraped_from": "https://haz-map.com/Agents/1473",
    "entity_name": "Propargyl bromide",
    "category": "agents",
    "uuid": "780b2043-54ab-4aca-a21d-fee5a6dcef62",
    "scraped_at": "2025-07-23T18:59:44.726315"
  },
  "parsed_at": "2025-07-24T01:11:10.397006",
  "title": "Propargyl bromide",
  "sections": {
    "general": {
      "agent_name": {
        "original_name": "Agent Name",
        "value": "Propargyl bromide",
        "links": [],
        "cross_references": [
          {
            "type": "name_match",
            "text": "propargyl bromide",
            "confidence": 1.0,
            "uuid": "780b2043-54ab-4aca-a21d-fee5a6dcef62",
            "name": "Propargyl bromide",
            "url": "https://haz-map.com/Agents/1473",
            "category": "agents"
          }
        ]
      },
      "alternative_name": {
        "original_name": "Alternative Name",
        "value": "3-Bromopropyne",
        "links": [],
        "cross_references": []
      },
      "cas_number": {
        "original_name": "CAS Number",
        "value": "106-96-7",
        "links": [],
        "cross_references": []
      },
      "formula": {
        "original_name": "Formula",
        "value": "C3-H3-Br",
        "links": [],
        "cross_references": []
      },
      "major_category": {
        "original_name": "Major Category",
        "value": "Pesticides",
        "links": [],
        "cross_references": []
      },
      "synonyms": {
        "original_name": "Synonyms",
        "value": "1-Brom-2-propin [Czech]; 1-Bromo-2-propyne; 1-Propyne, 3-bromo-; 2-Propynyl bromide; 3-Bromo-1-propyne; 3-Bromopropyne; Gamma-bromoallylene; Propyne, 3-bromo-; Propynyl bromide; gamma-Bromoallylene; UN2345; [ChemIDplus]",
        "links": [],
        "cross_references": []
      },
      "category": {
        "original_name": "Category",
        "value": "Fumigants",
        "links": [],
        "cross_references": [
          {
            "type": "name_match",
            "text": "fumigants",
            "confidence": 1.0,
            "uuid": "01ad5510-2dbd-4a10-8a54-0defa348e7db",
            "name": "FUMIGANTS",
            "url": "https://haz-map.com/Agents/707",
            "category": "agents"
          }
        ]
      },
      "description": {
        "original_name": "Description",
        "value": "Colorless liquid with a pungent odor; [NJ-HSFS]",
        "links": [],
        "cross_references": []
      },
      "sourcesuses": {
        "original_name": "Sources/Uses",
        "value": "Used as a fumigant, an alkylating agent, and a chemical intermediate; [HSDB]",
        "links": [],
        "cross_references": [
          {
            "type": "name_match",
            "text": "mica",
            "confidence": 1.0,
            "uuid": "433f26f1-c399-4596-b179-ce3843cfd465",
            "name": "Mica",
            "url": "https://haz-map.com/Agents/621",
            "category": "agents"
          }
        ]
      },
      "comments": {
        "original_name": "Comments",
        "value": "In inhalation studies, all rats die when exposed to 1000 ppm for 1 hour or 120 ppm for 7 hours. Minor liver and kidney damage occurs at lethal doses. [HSDB] Can burn the skin; A strong lacrimating agent; Inhalation of high concentrations can cause acute pneumonitis; [CAMEO] Undiluted liquid can produce irreversible corneal damage; At concentrations >1500 ppm, can cause coughing, extreme respiratory distress, and delayed pulmonary edema; [AIHA]",
        "links": [],
        "cross_references": [
          {
            "type": "name_match",
            "text": "cough",
            "confidence": 1.0,
            "uuid": "c18f3d8e-9c2e-4cef-ace6-8008147b34b1",
            "name": "cough",
            "url": "https://haz-map.com/Findings/4",
            "category": "findings"
          },
          {
            "type": "name_match",
            "text": "pulmonary edema",
            "confidence": 1.0,
            "uuid": "ee39114e-c922-40fd-9588-a532de404962",
            "name": "pulmonary edema",
            "url": "https://haz-map.com/Findings/186",
            "category": "findings"
          },
          {
            "type": "name_match",
            "text": "burn",
            "confidence": 1.0,
            "uuid": "63665de5-6376-4918-8dbf-4c10c4d63837",
            "name": "burn",
            "url": "https://haz-map.com/Findings/204",
            "category": "findings"
          }
        ]
      },
      "biomedical_references": {
        "original_name": "Biomedical References",
        "value": "Search PubMed",
        "links": [
          {
            "text": "Search PubMed",
            "url": "https://www.ncbi.nlm.nih.gov/pubmed?term=Propargyl+bromide%20AND%20human%5Bmh%5D%20AND%20%28Occupational%20Diseases%20%5Bmh%5D%20OR%20Occupational%20Exposure%20%5Bmh%5D%29%20%20AND%20%28tox%5Bsb%5D%29&cmd=search"
          }
        ],
        "cross_references": []
      }
    },
    "exposure_assessment": {
      "vapor_pressure": {
        "original_name": "Vapor Pressure",
        "value": "108 mm Hg",
        "links": [],
        "cross_references": []
      },
      "explanatory_notes": {
        "original_name": "Explanatory Notes",
        "value": "Flash point = 50 deg F; Sensitive to shock; Can form explosive metal acetylides after contact with copper, mercury, and silver; [CAMEO] Odor threshold <2 ppm by volume; [AIHA] VP from HSDB;",
        "links": [],
        "cross_references": [
          {
            "type": "name_match",
            "text": "shock",
            "confidence": 1.0,
            "uuid": "184088a3-33cc-4d64-b02e-bfb90ba4cbe5",
            "name": "shock",
            "url": "https://haz-map.com/Findings/76",
            "category": "findings"
          },
          {
            "type": "name_match",
            "text": "mercury",
            "confidence": 1.0,
            "uuid": "1ccd7713-d752-4728-b246-fed6633c4405",
            "name": "Mercury",
            "url": "https://haz-map.com/Agents/6",
            "category": "agents"
          },
          {
            "type": "name_match",
            "text": "silver",
            "confidence": 1.0,
            "uuid": "d8f69733-c0d2-4da6-9251-c7848c2137d2",
            "name": "Silver",
            "url": "https://haz-map.com/Agents/40",
            "category": "agents"
          },
          {
            "type": "name_match",
            "text": "copper",
            "confidence": 1.0,
            "uuid": "ec3b6867-24a9-4dd4-bb59-cd8ac790c685",
            "name": "Copper",
            "url": "https://haz-map.com/Agents/374",
            "category": "agents"
          },
          {
            "type": "name_match",
            "text": "ash",
            "confidence": 1.0,
            "uuid": "68b360f1-5ad0-4337-bea0-d7adca2961b5",
            "name": "Ash",
            "url": "https://haz-map.com/Agents/965",
            "category": "agents"
          }
        ]
      },
      "nfpa": {
        "original_name": "NFPA",
        "value": "may ignite at ambient temp",
        "links": [],
        "cross_references": []
      },
      "weel": {
        "original_name": "WEEL",
        "value": "0.1 ppm",
        "links": [],
        "cross_references": []
      }
    },
    "adverse_effects": {
      "lachrymator": {
        "original_name": "Lachrymator",
        "value": "Yes",
        "links": [],
        "cross_references": []
      },
      "toxic_pneumonitis": {
        "original_name": "Toxic Pneumonitis",
        "value": "Yes",
        "links": [],
        "cross_references": []
      },
      "hepatotoxin": {
        "original_name": "Hepatotoxin",
        "value": "Hepatoxic (a) from occupational exposure (secondary effect) or (b) in animal studies or in humans after ingestion",
        "links": [],
        "cross_references": []
      },
      "dermatotoxin": {
        "original_name": "Dermatotoxin",
        "value": "Skin burns",
        "links": [],
        "cross_references": [
          {
            "type": "name_match",
            "text": "burn",
            "confidence": 1.0,
            "uuid": "63665de5-6376-4918-8dbf-4c10c4d63837",
            "name": "burn",
            "url": "https://haz-map.com/Findings/204",
            "category": "findings"
          }
        ]
      }
    },
    "diseases_processes_and_activities_linked_to_this_agent": {
      "diseases": {
        "original_name": "Diseases",
        "value": "Occupational diseases associated with exposure to this agent: Fumigants, acute toxic effect",
        "links": [
          {
            "text": "Fumigants, acute toxic effect",
            "url": "https://haz-map.com/Diseases/389"
          }
        ],
        "cross_references": [
          {
            "type": "url_match",
            "text": "Fumigants, acute toxic effect",
            "url": "https://haz-map.com/Diseases/389",
            "confidence": 1.0,
            "uuid": "0ea745ce-b8d8-4881-aa18-f652dcfed7ea",
            "name": "Fumigants, acute toxic effect",
            "category": "diseases"
          },
          {
            "type": "name_match",
            "text": "fumigants",
            "confidence": 1.0,
            "uuid": "01ad5510-2dbd-4a10-8a54-0defa348e7db",
            "name": "FUMIGANTS",
            "url": "https://haz-map.com/Agents/707",
            "category": "agents"
          }
        ]
      },
      "processes": {
        "original_name": "Processes",
        "value": "Industrial Processes with risk of exposure: Farming (Pesticides)",
        "links": [
          {
            "text": "Farming (Pesticides)",
            "url": "https://haz-map.com/Processes/218"
          }
        ],
        "cross_references": [
          {
            "type": "url_match",
            "text": "Farming (Pesticides)",
            "url": "https://haz-map.com/Processes/218",
            "confidence": 1.0,
            "uuid": "cf1e5815-c9bb-4917-82a5-391848170b7e",
            "name": "Farming (Pesticides)",
            "category": "processes"
          }
        ]
      }
    }
  },
  "cross_references": [
    {
      "type": "url_match",
      "text": "Fumigants, acute toxic effect",
      "url": "https://haz-map.com/Diseases/389",
      "confidence": 1.0,
      "uuid": "0ea745ce-b8d8-4881-aa18-f652dcfed7ea",
      "name": "Fumigants, acute toxic effect",
      "category": "diseases"
    },
    {
      "type": "url_match",
      "text": "Farming (Pesticides)",
      "url": "https://haz-map.com/Processes/218",
      "confidence": 1.0,
      "uuid": "cf1e5815-c9bb-4917-82a5-391848170b7e",
      "name": "Farming (Pesticides)",
      "category": "processes"
    },
    {
      "type": "name_match",
      "text": "cough",
      "confidence": 1.0,
      "uuid": "c18f3d8e-9c2e-4cef-ace6-8008147b34b1",
      "name": "cough",
      "url": "https://haz-map.com/Findings/4",
      "category": "findings"
    },
    {
      "type": "name_match",
      "text": "shock",
      "confidence": 1.0,
      "uuid": "184088a3-33cc-4d64-b02e-bfb90ba4cbe5",
      "name": "shock",
      "url": "https://haz-map.com/Findings/76",
      "category": "findings"
    },
    {
      "type": "name_match",
      "text": "pulmonary edema",
      "confidence": 1.0,
      "uuid": "ee39114e-c922-40fd-9588-a532de404962",
      "name": "pulmonary edema",
      "url": "https://haz-map.com/Findings/186",
      "category": "findings"
    },
    {
      "type": "name_match",
      "text": "burn",
      "confidence": 1.0,
      "uuid": "63665de5-6376-4918-8dbf-4c10c4d63837",
      "name": "burn",
      "url": "https://haz-map.com/Findings/204",
      "category": "findings"
    },
    {
      "type": "name_match",
      "text": "mercury",
      "confidence": 1.0,
      "uuid": "1ccd7713-d752-4728-b246-fed6633c4405",
      "name": "Mercury",
      "url": "https://haz-map.com/Agents/6",
      "category": "agents"
    },
    {
      "type": "name_match",
      "text": "silver",
      "confidence": 1.0,
      "uuid": "d8f69733-c0d2-4da6-9251-c7848c2137d2",
      "name": "Silver",
      "url": "https://haz-map.com/Agents/40",
      "category": "agents"
    },
    {
      "type": "name_match",
      "text": "copper",
      "confidence": 1.0,
      "uuid": "ec3b6867-24a9-4dd4-bb59-cd8ac790c685",
      "name": "Copper",
      "url": "https://haz-map.com/Agents/374",
      "category": "agents"
    },
    {
      "type": "name_match",
      "text": "mica",
      "confidence": 1.0,
      "uuid": "433f26f1-c399-4596-b179-ce3843cfd465",
      "name": "Mica",
      "url": "https://haz-map.com/Agents/621",
      "category": "agents"
    },
    {
      "type": "name_match",
      "text": "fumigants",
      "confidence": 1.0,
      "uuid": "01ad5510-2dbd-4a10-8a54-0defa348e7db",
      "name": "FUMIGANTS",
      "url": "https://haz-map.com/Agents/707",
      "category": "agents"
    },
    {
      "type": "name_match",
      "text": "ash",
      "confidence": 1.0,
      "uuid": "68b360f1-5ad0-4337-bea0-d7adca2961b5",
      "name": "Ash",
      "url": "https://haz-map.com/Agents/965",
      "category": "agents"
    },
    {
      "type": "name_match",
      "text": "propargyl bromide",
      "confidence": 1.0,
      "uuid": "780b2043-54ab-4aca-a21d-fee5a6dcef62",
      "name": "Propargyl bromide",
      "url": "https://haz-map.com/Agents/1473",
      "category": "agents"
    }
  ],
  "all_links": [
    {
      "text": "Search PubMed",
      "url": "https://www.ncbi.nlm.nih.gov/pubmed?term=Propargyl+bromide%20AND%20human%5Bmh%5D%20AND%20%28Occupational%20Diseases%20%5Bmh%5D%20OR%20Occupational%20Exposure%20%5Bmh%5D%29%20%20AND%20%28tox%5Bsb%5D%29&cmd=search"
    },
    {
      "text": "Fumigants, acute toxic effect",
      "url": "https://haz-map.com/Diseases/389"
    },
    {
      "text": "Farming (Pesticides)",
      "url": "https://haz-map.com/Processes/218"
    }
  ]
}