{
  "metadata": {
    "scraped_from": "https://haz-map.com/Agents/21314",
    "entity_name": "Diallylnitrosamine",
    "category": "agents",
    "uuid": "7813bbbd-0b3a-4f19-84dd-bd852b5e3008",
    "scraped_at": "2025-07-23T22:41:35.478205"
  },
  "parsed_at": "2025-07-24T01:06:27.815760",
  "title": "Diallylnitrosamine",
  "sections": {
    "general": {
      "agent_name": {
        "original_name": "Agent Name",
        "value": "Diallylnitrosamine",
        "links": [],
        "cross_references": [
          {
            "type": "name_match",
            "text": "diallylnitrosamine",
            "confidence": 1.0,
            "uuid": "7813bbbd-0b3a-4f19-84dd-bd852b5e3008",
            "name": "Diallylnitrosamine",
            "url": "https://haz-map.com/Agents/21314",
            "category": "agents"
          }
        ]
      },
      "cas_number": {
        "original_name": "CAS Number",
        "value": "16338-97-9",
        "links": [],
        "cross_references": []
      },
      "formula": {
        "original_name": "Formula",
        "value": "C6-H10-N2-O",
        "links": [],
        "cross_references": []
      },
      "major_category": {
        "original_name": "Major Category",
        "value": "Nitrogen Compounds",
        "links": [],
        "cross_references": [
          {
            "type": "name_match",
            "text": "nitrogen",
            "confidence": 1.0,
            "uuid": "db5e90a9-06d2-45b9-8b81-f345a89b0bc0",
            "name": "Nitrogen",
            "url": "https://haz-map.com/Agents/1072",
            "category": "agents"
          }
        ]
      },
      "synonyms": {
        "original_name": "Synonyms",
        "value": "Diallylnitrosamin [German]; N-Diallylnitrosamine; N-Nitroso-N,N-diallylamine; N-Nitrosodiallyl amine; N-Nitrosodiallylamine; 2-Propen-1-amine, N-nitroso-N-2-propenyl- (9CI); Diallylamine, N-nitroso-; [ChemIDplus]",
        "links": [],
        "cross_references": [
          {
            "type": "name_match",
            "text": "allylamine",
            "confidence": 1.0,
            "uuid": "73a5ac3f-be37-4425-b535-0d960237b073",
            "name": "Allylamine",
            "url": "https://haz-map.com/Agents/1597",
            "category": "agents"
          },
          {
            "type": "name_match",
            "text": "diallylamine",
            "confidence": 1.0,
            "uuid": "c2f5846f-c758-4859-b0dc-168b238fdee3",
            "name": "Diallylamine",
            "url": "https://haz-map.com/Agents/4710",
            "category": "agents"
          },
          {
            "type": "name_match",
            "text": "diallylnitrosamine",
            "confidence": 1.0,
            "uuid": "7813bbbd-0b3a-4f19-84dd-bd852b5e3008",
            "name": "Diallylnitrosamine",
            "url": "https://haz-map.com/Agents/21314",
            "category": "agents"
          }
        ]
      },
      "category": {
        "original_name": "Category",
        "value": "Nitrosamines",
        "links": [],
        "cross_references": [
          {
            "type": "name_match",
            "text": "nitrosamines",
            "confidence": 1.0,
            "uuid": "71647706-f82f-4f7a-a1ad-2500c04c2ac0",
            "name": "NITROSAMINES",
            "url": "https://haz-map.com/Agents/767",
            "category": "agents"
          }
        ]
      },
      "comments": {
        "original_name": "Comments",
        "value": "See \"NITROSAMINES.\"",
        "links": [],
        "cross_references": [
          {
            "type": "name_match",
            "text": "nitrosamines",
            "confidence": 1.0,
            "uuid": "71647706-f82f-4f7a-a1ad-2500c04c2ac0",
            "name": "NITROSAMINES",
            "url": "https://haz-map.com/Agents/767",
            "category": "agents"
          }
        ]
      },
      "biomedical_references": {
        "original_name": "Biomedical References",
        "value": "Search PubMed",
        "links": [
          {
            "text": "Search PubMed",
            "url": "https://www.ncbi.nlm.nih.gov/pubmed?term=Diallylnitrosamine%20AND%20human%5Bmh%5D%20AND%20%28Occupational%20Diseases%20%5Bmh%5D%20OR%20Occupational%20Exposure%20%5Bmh%5D%29%20%20AND%20%28tox%5Bsb%5D%29&cmd=search"
          }
        ],
        "cross_references": []
      }
    },
    "exposure_assessment": {
      "vapor_pressure": {
        "original_name": "Vapor Pressure",
        "value": "0.1 mm Hg",
        "links": [],
        "cross_references": []
      }
    },
    "diseases_processes_and_activities_linked_to_this_agent": {
      "other_information": {
        "original_name": "Other Information",
        "value": "No other related information on this agent was found.",
        "links": [],
        "cross_references": []
      }
    }
  },
  "cross_references": [
    {
      "type": "name_match",
      "text": "nitrosamines",
      "confidence": 1.0,
      "uuid": "71647706-f82f-4f7a-a1ad-2500c04c2ac0",
      "name": "NITROSAMINES",
      "url": "https://haz-map.com/Agents/767",
      "category": "agents"
    },
    {
      "type": "name_match",
      "text": "nitrogen",
      "confidence": 1.0,
      "uuid": "db5e90a9-06d2-45b9-8b81-f345a89b0bc0",
      "name": "Nitrogen",
      "url": "https://haz-map.com/Agents/1072",
      "category": "agents"
    },
    {
      "type": "name_match",
      "text": "allylamine",
      "confidence": 1.0,
      "uuid": "73a5ac3f-be37-4425-b535-0d960237b073",
      "name": "Allylamine",
      "url": "https://haz-map.com/Agents/1597",
      "category": "agents"
    },
    {
      "type": "name_match",
      "text": "diallylamine",
      "confidence": 1.0,
      "uuid": "c2f5846f-c758-4859-b0dc-168b238fdee3",
      "name": "Diallylamine",
      "url": "https://haz-map.com/Agents/4710",
      "category": "agents"
    },
    {
      "type": "name_match",
      "text": "diallylnitrosamine",
      "confidence": 1.0,
      "uuid": "7813bbbd-0b3a-4f19-84dd-bd852b5e3008",
      "name": "Diallylnitrosamine",
      "url": "https://haz-map.com/Agents/21314",
      "category": "agents"
    }
  ],
  "all_links": [
    {
      "text": "Search PubMed",
      "url": "https://www.ncbi.nlm.nih.gov/pubmed?term=Diallylnitrosamine%20AND%20human%5Bmh%5D%20AND%20%28Occupational%20Diseases%20%5Bmh%5D%20OR%20Occupational%20Exposure%20%5Bmh%5D%29%20%20AND%20%28tox%5Bsb%5D%29&cmd=search"
    }
  ]
}