{
  "metadata": {
    "scraped_from": "https://haz-map.com/Agents/2019",
    "entity_name": "Hydroxylamine hydrochloride",
    "category": "agents",
    "uuid": "781dc129-990c-4280-802a-7ac0b63a543c",
    "scraped_at": "2025-07-23T19:08:36.693412"
  },
  "parsed_at": "2025-07-24T01:16:54.865561",
  "title": "Hydroxylamine hydrochloride",
  "sections": {
    "general": {
      "agent_name": {
        "original_name": "Agent Name",
        "value": "Hydroxylamine hydrochloride",
        "links": [],
        "cross_references": [
          {
            "type": "name_match",
            "text": "hydroxylamine",
            "confidence": 1.0,
            "uuid": "2c5bddbe-1859-4f6c-9590-541312386fcb",
            "name": "Hydroxylamine",
            "url": "https://haz-map.com/Agents/1092",
            "category": "agents"
          },
          {
            "type": "name_match",
            "text": "hydroxylamine hydrochloride",
            "confidence": 1.0,
            "uuid": "781dc129-990c-4280-802a-7ac0b63a543c",
            "name": "Hydroxylamine hydrochloride",
            "url": "https://haz-map.com/Agents/2019",
            "category": "agents"
          }
        ]
      },
      "cas_number": {
        "original_name": "CAS Number",
        "value": "5470-11-1",
        "links": [],
        "cross_references": []
      },
      "formula": {
        "original_name": "Formula",
        "value": "Cl-H.H3-N-O",
        "links": [],
        "cross_references": []
      },
      "major_category": {
        "original_name": "Major Category",
        "value": "Nitrogen Compounds",
        "links": [],
        "cross_references": [
          {
            "type": "name_match",
            "text": "nitrogen",
            "confidence": 1.0,
            "uuid": "db5e90a9-06d2-45b9-8b81-f345a89b0bc0",
            "name": "Nitrogen",
            "url": "https://haz-map.com/Agents/1072",
            "category": "agents"
          }
        ]
      },
      "synonyms": {
        "original_name": "Synonyms",
        "value": "Hydroxyamine hydrochloride; Hydroxyammonium chloride; Hydroxylamine chloride; Hydroxylamine chloride (1:1); Hydroxylamine hydrochloride; Hydroxylamine-1-hydrochloride; Hydroxylammonium chloride; Oxammonium hydrochloride; [ChemIDplus] NA8027",
        "links": [],
        "cross_references": [
          {
            "type": "name_match",
            "text": "hydroxylamine",
            "confidence": 1.0,
            "uuid": "2c5bddbe-1859-4f6c-9590-541312386fcb",
            "name": "Hydroxylamine",
            "url": "https://haz-map.com/Agents/1092",
            "category": "agents"
          },
          {
            "type": "name_match",
            "text": "hydroxylamine hydrochloride",
            "confidence": 1.0,
            "uuid": "781dc129-990c-4280-802a-7ac0b63a543c",
            "name": "Hydroxylamine hydrochloride",
            "url": "https://haz-map.com/Agents/2019",
            "category": "agents"
          }
        ]
      },
      "category": {
        "original_name": "Category",
        "value": "Hydroxylamines",
        "links": [],
        "cross_references": [
          {
            "type": "name_match",
            "text": "hydroxylamine",
            "confidence": 1.0,
            "uuid": "2c5bddbe-1859-4f6c-9590-541312386fcb",
            "name": "Hydroxylamine",
            "url": "https://haz-map.com/Agents/1092",
            "category": "agents"
          }
        ]
      },
      "description": {
        "original_name": "Description",
        "value": "Colorless to off-white crystals that are hygroscopic and water soluble; [CAMEO]",
        "links": [],
        "cross_references": [
          {
            "type": "name_match",
            "text": "water",
            "confidence": 1.0,
            "uuid": "6f2a7557-dfd2-49bc-9b4b-a93cd8e225d4",
            "name": "Water",
            "url": "https://haz-map.com/Agents/18668",
            "category": "agents"
          }
        ]
      },
      "sourcesuses": {
        "original_name": "Sources/Uses",
        "value": "Hydroxylamine is used in organic synthesis; in photographic developers; in the production of rubber, plastics, and steel; and in the separation of uranium and plutonium; [Ullmann]",
        "links": [],
        "cross_references": [
          {
            "type": "name_match",
            "text": "uranium",
            "confidence": 1.0,
            "uuid": "6790b1d5-8068-41c3-ad2c-112a904fbba8",
            "name": "Uranium",
            "url": "https://haz-map.com/Agents/43",
            "category": "agents"
          },
          {
            "type": "name_match",
            "text": "plutonium",
            "confidence": 1.0,
            "uuid": "8182066c-f57a-4fa0-8796-131d34c45e99",
            "name": "Plutonium",
            "url": "https://haz-map.com/Agents/786",
            "category": "agents"
          },
          {
            "type": "name_match",
            "text": "hydroxylamine",
            "confidence": 1.0,
            "uuid": "2c5bddbe-1859-4f6c-9590-541312386fcb",
            "name": "Hydroxylamine",
            "url": "https://haz-map.com/Agents/1092",
            "category": "agents"
          }
        ]
      },
      "comments": {
        "original_name": "Comments",
        "value": "A powerful reducing agent and a strong irritant of the skin and eyes; Can cause methemoglobinemia; Inhalation of high concentrations can induce toxic pneumonitis; [CAMEO] Negligible evaporation at room temperature; Harmful if dispersed particles are inhaled; A skin sensitizer; [ICSC] Causes skin burns; [MSDSonline] See \"Hydroxylamine.\"",
        "links": [],
        "cross_references": [
          {
            "type": "name_match",
            "text": "burn",
            "confidence": 1.0,
            "uuid": "63665de5-6376-4918-8dbf-4c10c4d63837",
            "name": "burn",
            "url": "https://haz-map.com/Findings/204",
            "category": "findings"
          },
          {
            "type": "name_match",
            "text": "hydroxylamine",
            "confidence": 1.0,
            "uuid": "2c5bddbe-1859-4f6c-9590-541312386fcb",
            "name": "Hydroxylamine",
            "url": "https://haz-map.com/Agents/1092",
            "category": "agents"
          },
          {
            "type": "name_match",
            "text": "methemoglobin",
            "confidence": 1.0,
            "uuid": "afb7ebf5-d2a3-4e60-8d2e-3a19456344ee",
            "name": "Methemoglobin",
            "url": "https://haz-map.com/Agents/15467",
            "category": "agents"
          },
          {
            "type": "fuzzy_match",
            "text": "methemoglobinemia",
            "matched_name": "Methemoglobinemia, acute",
            "confidence": 0.7208333333333333,
            "uuid": "473a44bd-cf11-4710-a769-e8e2b25ba317",
            "category": "diseases",
            "url": "https://haz-map.com/Diseases/210"
          }
        ]
      },
      "biomedical_references": {
        "original_name": "Biomedical References",
        "value": "Search PubMed",
        "links": [
          {
            "text": "Search PubMed",
            "url": "https://www.ncbi.nlm.nih.gov/pubmed?term=Hydroxylamine+hydrochloride%20AND%20human%5Bmh%5D%20AND%20%28Occupational%20Diseases%20%5Bmh%5D%20OR%20Occupational%20Exposure%20%5Bmh%5D%29%20%20AND%20%28tox%5Bsb%5D%29&cmd=search"
          }
        ],
        "cross_references": []
      }
    },
    "exposure_assessment": {
      "explanatory_notes": {
        "original_name": "Explanatory Notes",
        "value": "Melting point = 304 deg F (decomposes); [CAMEO]",
        "links": [],
        "cross_references": []
      },
      "nfpa": {
        "original_name": "NFPA",
        "value": "will not burn",
        "links": [],
        "cross_references": [
          {
            "type": "name_match",
            "text": "burn",
            "confidence": 1.0,
            "uuid": "63665de5-6376-4918-8dbf-4c10c4d63837",
            "name": "burn",
            "url": "https://haz-map.com/Findings/204",
            "category": "findings"
          }
        ]
      }
    },
    "adverse_effects": {
      "skin_sensitizer": {
        "original_name": "Skin Sensitizer",
        "value": "Yes",
        "links": [],
        "cross_references": []
      },
      "toxic_pneumonitis": {
        "original_name": "Toxic Pneumonitis",
        "value": "Yes",
        "links": [],
        "cross_references": []
      },
      "methemoglobinemia": {
        "original_name": "Methemoglobinemia",
        "value": "MetHgb is secondary toxic effect",
        "links": [],
        "cross_references": []
      },
      "dermatotoxin": {
        "original_name": "Dermatotoxin",
        "value": "Skin burns",
        "links": [],
        "cross_references": [
          {
            "type": "name_match",
            "text": "burn",
            "confidence": 1.0,
            "uuid": "63665de5-6376-4918-8dbf-4c10c4d63837",
            "name": "burn",
            "url": "https://haz-map.com/Findings/204",
            "category": "findings"
          }
        ]
      }
    },
    "diseases_processes_and_activities_linked_to_this_agent": {
      "diseases": {
        "original_name": "Diseases",
        "value": "Occupational diseases associated with exposure to this agent: Contact dermatitis, allergic",
        "links": [
          {
            "text": "Contact dermatitis, allergic",
            "url": "https://haz-map.com/Diseases/18"
          }
        ],
        "cross_references": [
          {
            "type": "url_match",
            "text": "Contact dermatitis, allergic",
            "url": "https://haz-map.com/Diseases/18",
            "confidence": 1.0,
            "uuid": "c9499de0-9aa1-41bf-8753-cd5b28a63e29",
            "name": "Contact dermatitis, allergic",
            "category": "diseases"
          },
          {
            "type": "name_match",
            "text": "dermatitis",
            "confidence": 1.0,
            "uuid": "fe9c05f2-b19f-4ceb-ac7a-ffb7d7a0cae0",
            "name": "dermatitis",
            "url": "https://haz-map.com/Findings/59",
            "category": "findings"
          }
        ]
      },
      "processes": {
        "original_name": "Processes",
        "value": "Industrial Processes with risk of exposure: Photographic Processing Steel Producing",
        "links": [
          {
            "text": "Photographic Processing",
            "url": "https://haz-map.com/Processes/231"
          },
          {
            "text": "Steel Producing",
            "url": "https://haz-map.com/Processes/2"
          }
        ],
        "cross_references": [
          {
            "type": "url_match",
            "text": "Steel Producing",
            "url": "https://haz-map.com/Processes/2",
            "confidence": 1.0,
            "uuid": "cb2ee08e-9765-41ce-a40f-b8d87704c7b5",
            "name": "Steel Producing",
            "category": "processes"
          }
        ]
      }
    }
  },
  "cross_references": [
    {
      "type": "url_match",
      "text": "Contact dermatitis, allergic",
      "url": "https://haz-map.com/Diseases/18",
      "confidence": 1.0,
      "uuid": "c9499de0-9aa1-41bf-8753-cd5b28a63e29",
      "name": "Contact dermatitis, allergic",
      "category": "diseases"
    },
    {
      "type": "url_match",
      "text": "Steel Producing",
      "url": "https://haz-map.com/Processes/2",
      "confidence": 1.0,
      "uuid": "cb2ee08e-9765-41ce-a40f-b8d87704c7b5",
      "name": "Steel Producing",
      "category": "processes"
    },
    {
      "type": "name_match",
      "text": "dermatitis",
      "confidence": 1.0,
      "uuid": "fe9c05f2-b19f-4ceb-ac7a-ffb7d7a0cae0",
      "name": "dermatitis",
      "url": "https://haz-map.com/Findings/59",
      "category": "findings"
    },
    {
      "type": "name_match",
      "text": "burn",
      "confidence": 1.0,
      "uuid": "63665de5-6376-4918-8dbf-4c10c4d63837",
      "name": "burn",
      "url": "https://haz-map.com/Findings/204",
      "category": "findings"
    },
    {
      "type": "name_match",
      "text": "uranium",
      "confidence": 1.0,
      "uuid": "6790b1d5-8068-41c3-ad2c-112a904fbba8",
      "name": "Uranium",
      "url": "https://haz-map.com/Agents/43",
      "category": "agents"
    },
    {
      "type": "name_match",
      "text": "plutonium",
      "confidence": 1.0,
      "uuid": "8182066c-f57a-4fa0-8796-131d34c45e99",
      "name": "Plutonium",
      "url": "https://haz-map.com/Agents/786",
      "category": "agents"
    },
    {
      "type": "name_match",
      "text": "nitrogen",
      "confidence": 1.0,
      "uuid": "db5e90a9-06d2-45b9-8b81-f345a89b0bc0",
      "name": "Nitrogen",
      "url": "https://haz-map.com/Agents/1072",
      "category": "agents"
    },
    {
      "type": "name_match",
      "text": "hydroxylamine",
      "confidence": 1.0,
      "uuid": "2c5bddbe-1859-4f6c-9590-541312386fcb",
      "name": "Hydroxylamine",
      "url": "https://haz-map.com/Agents/1092",
      "category": "agents"
    },
    {
      "type": "name_match",
      "text": "hydroxylamine hydrochloride",
      "confidence": 1.0,
      "uuid": "781dc129-990c-4280-802a-7ac0b63a543c",
      "name": "Hydroxylamine hydrochloride",
      "url": "https://haz-map.com/Agents/2019",
      "category": "agents"
    },
    {
      "type": "name_match",
      "text": "methemoglobin",
      "confidence": 1.0,
      "uuid": "afb7ebf5-d2a3-4e60-8d2e-3a19456344ee",
      "name": "Methemoglobin",
      "url": "https://haz-map.com/Agents/15467",
      "category": "agents"
    },
    {
      "type": "name_match",
      "text": "water",
      "confidence": 1.0,
      "uuid": "6f2a7557-dfd2-49bc-9b4b-a93cd8e225d4",
      "name": "Water",
      "url": "https://haz-map.com/Agents/18668",
      "category": "agents"
    },
    {
      "type": "fuzzy_match",
      "text": "methemoglobinemia",
      "matched_name": "Methemoglobinemia, acute",
      "confidence": 0.7208333333333333,
      "uuid": "473a44bd-cf11-4710-a769-e8e2b25ba317",
      "category": "diseases",
      "url": "https://haz-map.com/Diseases/210"
    }
  ],
  "all_links": [
    {
      "text": "Search PubMed",
      "url": "https://www.ncbi.nlm.nih.gov/pubmed?term=Hydroxylamine+hydrochloride%20AND%20human%5Bmh%5D%20AND%20%28Occupational%20Diseases%20%5Bmh%5D%20OR%20Occupational%20Exposure%20%5Bmh%5D%29%20%20AND%20%28tox%5Bsb%5D%29&cmd=search"
    },
    {
      "text": "Contact dermatitis, allergic",
      "url": "https://haz-map.com/Diseases/18"
    },
    {
      "text": "Photographic Processing",
      "url": "https://haz-map.com/Processes/231"
    },
    {
      "text": "Steel Producing",
      "url": "https://haz-map.com/Processes/2"
    }
  ]
}