{
  "metadata": {
    "scraped_from": "https://haz-map.com/Agents/4962",
    "entity_name": "Dimethyl succinate",
    "category": "agents",
    "uuid": "78559e8a-77b6-40dc-90b6-d8a5460d65fb",
    "scraped_at": "2025-07-23T19:47:20.808948"
  },
  "parsed_at": "2025-07-24T01:01:46.149351",
  "title": "Dimethyl succinate",
  "sections": {
    "general": {
      "agent_name": {
        "original_name": "Agent Name",
        "value": "Dimethyl succinate",
        "links": [],
        "cross_references": [
          {
            "type": "name_match",
            "text": "dimethyl succinate",
            "confidence": 1.0,
            "uuid": "78559e8a-77b6-40dc-90b6-d8a5460d65fb",
            "name": "Dimethyl succinate",
            "url": "https://haz-map.com/Agents/4962",
            "category": "agents"
          }
        ]
      },
      "cas_number": {
        "original_name": "CAS Number",
        "value": "106-65-0",
        "links": [],
        "cross_references": []
      },
      "formula": {
        "original_name": "Formula",
        "value": "C6-H10-O4",
        "links": [],
        "cross_references": []
      },
      "major_category": {
        "original_name": "Major Category",
        "value": "Solvents",
        "links": [],
        "cross_references": []
      },
      "synonyms": {
        "original_name": "Synonyms",
        "value": "Butanedioic acid, dimethyl ester; Dimethyl butanedioate; Dimethylsuccinate; Methyl butanedioate; Methyl succinate; Succinic acid, dimethyl ester; [ChemIDplus]",
        "links": [],
        "cross_references": [
          {
            "type": "name_match",
            "text": "succinic acid",
            "confidence": 1.0,
            "uuid": "e01347b0-231d-4c97-8f6d-724da7d58bfb",
            "name": "Succinic acid",
            "url": "https://haz-map.com/Agents/7229",
            "category": "agents"
          }
        ]
      },
      "category": {
        "original_name": "Category",
        "value": "Esters (<C12)",
        "links": [],
        "cross_references": []
      },
      "description": {
        "original_name": "Description",
        "value": "Colorless liquid that solidifies at room temperature (19.5 deg C); [HSDB]",
        "links": [],
        "cross_references": []
      },
      "sourcesuses": {
        "original_name": "Sources/Uses",
        "value": "Used as a solvent for fruit flavors and a synthetic flavor; [HSDB]",
        "links": [],
        "cross_references": []
      },
      "comments": {
        "original_name": "Comments",
        "value": "May cause irritation; [MSDSonline]",
        "links": [],
        "cross_references": []
      },
      "biomedical_references": {
        "original_name": "Biomedical References",
        "value": "Search PubMed",
        "links": [
          {
            "text": "Search PubMed",
            "url": "https://www.ncbi.nlm.nih.gov/pubmed?term=Dimethyl+succinate%20AND%20human%5Bmh%5D%20AND%20%28Occupational%20Diseases%20%5Bmh%5D%20OR%20Occupational%20Exposure%20%5Bmh%5D%29%20%20AND%20%28tox%5Bsb%5D%29&cmd=search"
          }
        ],
        "cross_references": []
      }
    },
    "exposure_assessment": {
      "vapor_pressure": {
        "original_name": "Vapor Pressure",
        "value": "0.3 mm Hg",
        "links": [],
        "cross_references": []
      },
      "explanatory_notes": {
        "original_name": "Explanatory Notes",
        "value": "Flash Point = 85.0 deg F; [CAMEO]",
        "links": [],
        "cross_references": [
          {
            "type": "name_match",
            "text": "ash",
            "confidence": 1.0,
            "uuid": "68b360f1-5ad0-4337-bea0-d7adca2961b5",
            "name": "Ash",
            "url": "https://haz-map.com/Agents/965",
            "category": "agents"
          }
        ]
      }
    },
    "adverse_effects": {
      "neurotoxin": {
        "original_name": "Neurotoxin",
        "value": "Acute solvent syndrome",
        "links": [],
        "cross_references": []
      }
    },
    "diseases_processes_and_activities_linked_to_this_agent": {
      "diseases": {
        "original_name": "Diseases",
        "value": "Occupational diseases associated with exposure to this agent: Solvents, acute toxic effect",
        "links": [
          {
            "text": "Solvents, acute toxic effect",
            "url": "https://haz-map.com/Diseases/326"
          }
        ],
        "cross_references": [
          {
            "type": "url_match",
            "text": "Solvents, acute toxic effect",
            "url": "https://haz-map.com/Diseases/326",
            "confidence": 1.0,
            "uuid": "581e90e3-9d0c-45f0-aa6c-3468c28da129",
            "name": "Solvents, acute toxic effect",
            "category": "diseases"
          }
        ]
      }
    }
  },
  "cross_references": [
    {
      "type": "url_match",
      "text": "Solvents, acute toxic effect",
      "url": "https://haz-map.com/Diseases/326",
      "confidence": 1.0,
      "uuid": "581e90e3-9d0c-45f0-aa6c-3468c28da129",
      "name": "Solvents, acute toxic effect",
      "category": "diseases"
    },
    {
      "type": "name_match",
      "text": "ash",
      "confidence": 1.0,
      "uuid": "68b360f1-5ad0-4337-bea0-d7adca2961b5",
      "name": "Ash",
      "url": "https://haz-map.com/Agents/965",
      "category": "agents"
    },
    {
      "type": "name_match",
      "text": "dimethyl succinate",
      "confidence": 1.0,
      "uuid": "78559e8a-77b6-40dc-90b6-d8a5460d65fb",
      "name": "Dimethyl succinate",
      "url": "https://haz-map.com/Agents/4962",
      "category": "agents"
    },
    {
      "type": "name_match",
      "text": "succinic acid",
      "confidence": 1.0,
      "uuid": "e01347b0-231d-4c97-8f6d-724da7d58bfb",
      "name": "Succinic acid",
      "url": "https://haz-map.com/Agents/7229",
      "category": "agents"
    }
  ],
  "all_links": [
    {
      "text": "Search PubMed",
      "url": "https://www.ncbi.nlm.nih.gov/pubmed?term=Dimethyl+succinate%20AND%20human%5Bmh%5D%20AND%20%28Occupational%20Diseases%20%5Bmh%5D%20OR%20Occupational%20Exposure%20%5Bmh%5D%29%20%20AND%20%28tox%5Bsb%5D%29&cmd=search"
    },
    {
      "text": "Solvents, acute toxic effect",
      "url": "https://haz-map.com/Diseases/326"
    }
  ]
}