{
  "metadata": {
    "scraped_from": "https://haz-map.com/Agents/8503",
    "entity_name": "1,1-Dimethylallene",
    "category": "agents",
    "uuid": "7881d7c9-553d-49c2-8e81-dab679c637ec",
    "scraped_at": "2025-07-23T20:28:01.264796"
  },
  "parsed_at": "2025-07-24T01:04:41.440239",
  "title": "1,1-Dimethylallene",
  "sections": {
    "general": {
      "agent_name": {
        "original_name": "Agent Name",
        "value": "1,1-Dimethylallene",
        "links": [],
        "cross_references": [
          {
            "type": "name_match",
            "text": "methylal",
            "confidence": 1.0,
            "uuid": "27aa92c4-7ed1-4f60-8903-41e72d99556f",
            "name": "Methylal",
            "url": "https://haz-map.com/Agents/555",
            "category": "agents"
          },
          {
            "type": "name_match",
            "text": "1,1-dimethylallene",
            "confidence": 1.0,
            "uuid": "7881d7c9-553d-49c2-8e81-dab679c637ec",
            "name": "1,1-Dimethylallene",
            "url": "https://haz-map.com/Agents/8503",
            "category": "agents"
          }
        ]
      },
      "cas_number": {
        "original_name": "CAS Number",
        "value": "598-25-4",
        "links": [],
        "cross_references": []
      },
      "formula": {
        "original_name": "Formula",
        "value": "C5-H8",
        "links": [],
        "cross_references": []
      },
      "major_category": {
        "original_name": "Major Category",
        "value": "Other Classes",
        "links": [],
        "cross_references": []
      },
      "synonyms": {
        "original_name": "Synonyms",
        "value": "1,1-Dimethylallylene; 2-Methyl-2,3-butadiene; 3,3-Dimethylallene; 3-Methyl-1,2-butadiene; 1,2-Butadiene, 3-methyl- (8CI)(9CI); 3-Methylbuta-1,2-diene; [ChemIDplus] UN3295",
        "links": [],
        "cross_references": [
          {
            "type": "name_match",
            "text": "methylal",
            "confidence": 1.0,
            "uuid": "27aa92c4-7ed1-4f60-8903-41e72d99556f",
            "name": "Methylal",
            "url": "https://haz-map.com/Agents/555",
            "category": "agents"
          },
          {
            "type": "name_match",
            "text": "1,2-butadiene",
            "confidence": 1.0,
            "uuid": "380a3f81-10d5-407a-96f8-9c765be2849e",
            "name": "1,2-Butadiene",
            "url": "https://haz-map.com/Agents/2738",
            "category": "agents"
          },
          {
            "type": "name_match",
            "text": "butadiene",
            "confidence": 1.0,
            "uuid": "f4fdb4ce-e062-4db5-8e5d-eba44b8a05be",
            "name": "Butadiene",
            "url": "https://haz-map.com/Agents/12505",
            "category": "agents"
          },
          {
            "type": "fuzzy_match",
            "text": "3-butadiene",
            "matched_name": "1,3-Butadiene",
            "confidence": 0.8397435897435898,
            "uuid": "ea12a86a-218a-42af-aaa1-b113f636b7fe",
            "category": "agents",
            "url": "https://haz-map.com/Agents/318"
          }
        ]
      },
      "category": {
        "original_name": "Category",
        "value": "Aliphatics, Unsaturated",
        "links": [],
        "cross_references": []
      },
      "description": {
        "original_name": "Description",
        "value": "Colorless or pale yellow liquid; [MSDSonline]",
        "links": [],
        "cross_references": []
      },
      "comments": {
        "original_name": "Comments",
        "value": "An irritant; May cause aspiration pneumonitis if swallowed; [MSDSonline]",
        "links": [],
        "cross_references": []
      },
      "biomedical_references": {
        "original_name": "Biomedical References",
        "value": "Search PubMed",
        "links": [
          {
            "text": "Search PubMed",
            "url": "https://www.ncbi.nlm.nih.gov/pubmed?term=1%2c1-Dimethylallene%20AND%20human%5Bmh%5D%20AND%20%28Occupational%20Diseases%20%5Bmh%5D%20OR%20Occupational%20Exposure%20%5Bmh%5D%29%20%20AND%20%28tox%5Bsb%5D%29&cmd=search"
          }
        ],
        "cross_references": []
      }
    },
    "exposure_assessment": {
      "vapor_pressure": {
        "original_name": "Vapor Pressure",
        "value": "426 mm Hg",
        "links": [],
        "cross_references": []
      },
      "explanatory_notes": {
        "original_name": "Explanatory Notes",
        "value": "The Guide in the Emergency Response Guidebook is for \"Hydrocarbons, liquid, n.o.s.\" VP from ChemIDplus;",
        "links": [],
        "cross_references": [
          {
            "type": "name_match",
            "text": "carbon",
            "confidence": 1.0,
            "uuid": "b53f8815-ee80-40ef-b4aa-3b000e17dab5",
            "name": "Carbon",
            "url": "https://haz-map.com/Agents/1891",
            "category": "agents"
          },
          {
            "type": "fuzzy_match",
            "text": "hydrocarbons",
            "matched_name": "Hydrocarbons, C>3",
            "confidence": 0.7100840336134454,
            "uuid": "8eaa37ac-3931-44e4-9242-2734127fd661",
            "category": "agents",
            "url": "https://haz-map.com/Agents/14795"
          }
        ]
      }
    },
    "diseases_processes_and_activities_linked_to_this_agent": {
      "other_information": {
        "original_name": "Other Information",
        "value": "No other related information on this agent was found.",
        "links": [],
        "cross_references": []
      }
    }
  },
  "cross_references": [
    {
      "type": "name_match",
      "text": "methylal",
      "confidence": 1.0,
      "uuid": "27aa92c4-7ed1-4f60-8903-41e72d99556f",
      "name": "Methylal",
      "url": "https://haz-map.com/Agents/555",
      "category": "agents"
    },
    {
      "type": "name_match",
      "text": "carbon",
      "confidence": 1.0,
      "uuid": "b53f8815-ee80-40ef-b4aa-3b000e17dab5",
      "name": "Carbon",
      "url": "https://haz-map.com/Agents/1891",
      "category": "agents"
    },
    {
      "type": "name_match",
      "text": "1,2-butadiene",
      "confidence": 1.0,
      "uuid": "380a3f81-10d5-407a-96f8-9c765be2849e",
      "name": "1,2-Butadiene",
      "url": "https://haz-map.com/Agents/2738",
      "category": "agents"
    },
    {
      "type": "name_match",
      "text": "1,1-dimethylallene",
      "confidence": 1.0,
      "uuid": "7881d7c9-553d-49c2-8e81-dab679c637ec",
      "name": "1,1-Dimethylallene",
      "url": "https://haz-map.com/Agents/8503",
      "category": "agents"
    },
    {
      "type": "name_match",
      "text": "butadiene",
      "confidence": 1.0,
      "uuid": "f4fdb4ce-e062-4db5-8e5d-eba44b8a05be",
      "name": "Butadiene",
      "url": "https://haz-map.com/Agents/12505",
      "category": "agents"
    },
    {
      "type": "fuzzy_match",
      "text": "3-butadiene",
      "matched_name": "1,3-Butadiene",
      "confidence": 0.8397435897435898,
      "uuid": "ea12a86a-218a-42af-aaa1-b113f636b7fe",
      "category": "agents",
      "url": "https://haz-map.com/Agents/318"
    },
    {
      "type": "fuzzy_match",
      "text": "hydrocarbons",
      "matched_name": "Hydrocarbons, C>3",
      "confidence": 0.7100840336134454,
      "uuid": "8eaa37ac-3931-44e4-9242-2734127fd661",
      "category": "agents",
      "url": "https://haz-map.com/Agents/14795"
    }
  ],
  "all_links": [
    {
      "text": "Search PubMed",
      "url": "https://www.ncbi.nlm.nih.gov/pubmed?term=1%2c1-Dimethylallene%20AND%20human%5Bmh%5D%20AND%20%28Occupational%20Diseases%20%5Bmh%5D%20OR%20Occupational%20Exposure%20%5Bmh%5D%29%20%20AND%20%28tox%5Bsb%5D%29&cmd=search"
    }
  ]
}