{
  "metadata": {
    "scraped_from": "https://haz-map.com/Agents/5717",
    "entity_name": "1,4-Bis(alpha-(t-butyldioxy)isopropyl)benzene",
    "category": "agents",
    "uuid": "78c202a4-3b09-4166-bc8e-5a56978259e8",
    "scraped_at": "2025-07-23T19:55:23.251641"
  },
  "parsed_at": "2025-07-24T01:18:03.349283",
  "title": "1,4-Bis(alpha-(t-butyldioxy)isopropyl)benzene",
  "sections": {
    "general": {
      "agent_name": {
        "original_name": "Agent Name",
        "value": "1,4-Bis(alpha-(t-butyldioxy)isopropyl)benzene",
        "links": [],
        "cross_references": [
          {
            "type": "name_match",
            "text": "benzene",
            "confidence": 1.0,
            "uuid": "b05124de-5f34-4c14-8f04-ccb20c3780d9",
            "name": "Benzene",
            "url": "https://haz-map.com/Agents/5",
            "category": "agents"
          },
          {
            "type": "name_match",
            "text": "1,4-bis(alpha-(t-butyldioxy)isopropyl)benzene",
            "confidence": 1.0,
            "uuid": "78c202a4-3b09-4166-bc8e-5a56978259e8",
            "name": "1,4-Bis(alpha-(t-butyldioxy)isopropyl)benzene",
            "url": "https://haz-map.com/Agents/5717",
            "category": "agents"
          }
        ]
      },
      "cas_number": {
        "original_name": "CAS Number",
        "value": "2781-00-2",
        "links": [],
        "cross_references": []
      },
      "formula": {
        "original_name": "Formula",
        "value": "C20-H34-O4",
        "links": [],
        "cross_references": []
      },
      "major_category": {
        "original_name": "Major Category",
        "value": "Other Classes",
        "links": [],
        "cross_references": []
      },
      "synonyms": {
        "original_name": "Synonyms",
        "value": "1,4-Bis(alpha-(tert-butyldioxy)isopropyl)benzene; Perkadox 14/40C; Perkadox U 14/40; Peroxide, (1,4-phenylenebis(1-methylethylidene))bis-(1,1-dimethylethyl); Peroxide, (p-phenylenediisopropylidene)bis(tert-butyl; Peroximon F 100; Peroximon F 40; alpha,alpha'-Bis(tert-butyldioxy)-p-diisopropylbenzene; alpha,alpha'-Bis(tert-butylperoxy)-1,4-diisopropylbenzene; alpha,alpha'-Bis(tert-butylperoxy)-p-diisopropylbenzene; [ChemIDplus]",
        "links": [],
        "cross_references": [
          {
            "type": "name_match",
            "text": "benzene",
            "confidence": 1.0,
            "uuid": "b05124de-5f34-4c14-8f04-ccb20c3780d9",
            "name": "Benzene",
            "url": "https://haz-map.com/Agents/5",
            "category": "agents"
          },
          {
            "type": "name_match",
            "text": "1,4-diisopropylbenzene",
            "confidence": 1.0,
            "uuid": "1ef802a4-4f15-4b8a-b614-7e28de28f554",
            "name": "1,4-Diisopropylbenzene",
            "url": "https://haz-map.com/Agents/2822",
            "category": "agents"
          }
        ]
      },
      "category": {
        "original_name": "Category",
        "value": "Peroxides, Organic",
        "links": [],
        "cross_references": []
      },
      "sourcesuses": {
        "original_name": "Sources/Uses",
        "value": "An agricultural chemical; [RTECS]",
        "links": [],
        "cross_references": [
          {
            "type": "name_match",
            "text": "mica",
            "confidence": 1.0,
            "uuid": "433f26f1-c399-4596-b179-ce3843cfd465",
            "name": "Mica",
            "url": "https://haz-map.com/Agents/621",
            "category": "agents"
          }
        ]
      },
      "comments": {
        "original_name": "Comments",
        "value": "Emergency treatment: Irritants; [HSDB]",
        "links": [],
        "cross_references": [
          {
            "type": "name_match",
            "text": "irritants",
            "confidence": 1.0,
            "uuid": "9d2b9572-8c3e-48a4-ac68-63d6e2eb6f49",
            "name": "Irritants",
            "url": "https://haz-map.com/Agents/2063",
            "category": "agents"
          }
        ]
      },
      "biomedical_references": {
        "original_name": "Biomedical References",
        "value": "Search PubMed",
        "links": [
          {
            "text": "Search PubMed",
            "url": "https://www.ncbi.nlm.nih.gov/pubmed?term=1%2c4-Bis(alpha-(t-butyldioxy)isopropyl)benzene%20AND%20human%5Bmh%5D%20AND%20%28Occupational%20Diseases%20%5Bmh%5D%20OR%20Occupational%20Exposure%20%5Bmh%5D%29%20%20AND%20%28tox%5Bsb%5D%29&cmd=search"
          }
        ],
        "cross_references": []
      }
    },
    "exposure_assessment": {
      "vapor_pressure": {
        "original_name": "Vapor Pressure",
        "value": "1.71E-05 mm Hg",
        "links": [],
        "cross_references": []
      }
    },
    "diseases_processes_and_activities_linked_to_this_agent": {
      "other_information": {
        "original_name": "Other Information",
        "value": "No other related information on this agent was found.",
        "links": [],
        "cross_references": []
      }
    }
  },
  "cross_references": [
    {
      "type": "name_match",
      "text": "benzene",
      "confidence": 1.0,
      "uuid": "b05124de-5f34-4c14-8f04-ccb20c3780d9",
      "name": "Benzene",
      "url": "https://haz-map.com/Agents/5",
      "category": "agents"
    },
    {
      "type": "name_match",
      "text": "mica",
      "confidence": 1.0,
      "uuid": "433f26f1-c399-4596-b179-ce3843cfd465",
      "name": "Mica",
      "url": "https://haz-map.com/Agents/621",
      "category": "agents"
    },
    {
      "type": "name_match",
      "text": "irritants",
      "confidence": 1.0,
      "uuid": "9d2b9572-8c3e-48a4-ac68-63d6e2eb6f49",
      "name": "Irritants",
      "url": "https://haz-map.com/Agents/2063",
      "category": "agents"
    },
    {
      "type": "name_match",
      "text": "1,4-diisopropylbenzene",
      "confidence": 1.0,
      "uuid": "1ef802a4-4f15-4b8a-b614-7e28de28f554",
      "name": "1,4-Diisopropylbenzene",
      "url": "https://haz-map.com/Agents/2822",
      "category": "agents"
    },
    {
      "type": "name_match",
      "text": "1,4-bis(alpha-(t-butyldioxy)isopropyl)benzene",
      "confidence": 1.0,
      "uuid": "78c202a4-3b09-4166-bc8e-5a56978259e8",
      "name": "1,4-Bis(alpha-(t-butyldioxy)isopropyl)benzene",
      "url": "https://haz-map.com/Agents/5717",
      "category": "agents"
    }
  ],
  "all_links": [
    {
      "text": "Search PubMed",
      "url": "https://www.ncbi.nlm.nih.gov/pubmed?term=1%2c4-Bis(alpha-(t-butyldioxy)isopropyl)benzene%20AND%20human%5Bmh%5D%20AND%20%28Occupational%20Diseases%20%5Bmh%5D%20OR%20Occupational%20Exposure%20%5Bmh%5D%29%20%20AND%20%28tox%5Bsb%5D%29&cmd=search"
    }
  ]
}