{
  "metadata": {
    "scraped_from": "https://haz-map.com/Agents/6226",
    "entity_name": "n-Butylamide",
    "category": "agents",
    "uuid": "78d0d650-b7ac-4198-86eb-a0b051d6169b",
    "scraped_at": "2025-07-23T19:59:51.592497"
  },
  "parsed_at": "2025-07-24T00:57:13.679135",
  "title": "n-Butylamide",
  "sections": {
    "general": {
      "agent_name": {
        "original_name": "Agent Name",
        "value": "n-Butylamide",
        "links": [],
        "cross_references": [
          {
            "type": "name_match",
            "text": "n-butylamide",
            "confidence": 1.0,
            "uuid": "78d0d650-b7ac-4198-86eb-a0b051d6169b",
            "name": "n-Butylamide",
            "url": "https://haz-map.com/Agents/6226",
            "category": "agents"
          }
        ]
      },
      "cas_number": {
        "original_name": "CAS Number",
        "value": "541-35-5",
        "links": [],
        "cross_references": []
      },
      "formula": {
        "original_name": "Formula",
        "value": "C4-H9-N-O",
        "links": [],
        "cross_references": []
      },
      "major_category": {
        "original_name": "Major Category",
        "value": "Solvents",
        "links": [],
        "cross_references": []
      },
      "synonyms": {
        "original_name": "Synonyms",
        "value": "Butanamide; Butanimidic acid; Butanoic acid, amide; Butyramide; n-Butyramide; [ChemIDplus]",
        "links": [],
        "cross_references": []
      },
      "category": {
        "original_name": "Category",
        "value": "Amides (<C10)",
        "links": [],
        "cross_references": []
      },
      "description": {
        "original_name": "Description",
        "value": "Solid; [Merck Index] White crystalline solid; [Alfa Aesar MSDS]",
        "links": [],
        "cross_references": [
          {
            "type": "fuzzy_match",
            "text": "crystalline",
            "matched_name": "Silica, crystalline",
            "confidence": 0.7061403508771931,
            "uuid": "f920e8a2-46df-41b7-af8d-0368a777251e",
            "category": "agents",
            "url": "https://haz-map.com/Agents/427"
          }
        ]
      },
      "sourcesuses": {
        "original_name": "Sources/Uses",
        "value": "Used as a flavoring agent; [JECFA]",
        "links": [],
        "cross_references": []
      },
      "comments": {
        "original_name": "Comments",
        "value": "Safe when used as a flavoring agent in food; [JECFA] May cause irritation; [Alfa Aesar MSDS] See \"Dimethylformamide.\"",
        "links": [],
        "cross_references": [
          {
            "type": "name_match",
            "text": "dimethylformamide",
            "confidence": 1.0,
            "uuid": "d27b5fb4-dfbf-45ab-a2cc-47ad4612a47c",
            "name": "Dimethylformamide",
            "url": "https://haz-map.com/Agents/463",
            "category": "agents"
          },
          {
            "type": "name_match",
            "text": "formamide",
            "confidence": 1.0,
            "uuid": "70c12f11-5fdc-417f-a614-4b4de0f81d0b",
            "name": "Formamide",
            "url": "https://haz-map.com/Agents/496",
            "category": "agents"
          }
        ]
      },
      "biomedical_references": {
        "original_name": "Biomedical References",
        "value": "Search PubMed",
        "links": [
          {
            "text": "Search PubMed",
            "url": "https://www.ncbi.nlm.nih.gov/pubmed?term=n-Butylamide%20AND%20human%5Bmh%5D%20AND%20%28Occupational%20Diseases%20%5Bmh%5D%20OR%20Occupational%20Exposure%20%5Bmh%5D%29%20%20AND%20%28tox%5Bsb%5D%29&cmd=search"
          }
        ],
        "cross_references": []
      }
    },
    "exposure_assessment": {
      "vapor_pressure": {
        "original_name": "Vapor Pressure",
        "value": "0.00391 mm Hg",
        "links": [],
        "cross_references": []
      }
    },
    "adverse_effects": {
      "neurotoxin": {
        "original_name": "Neurotoxin",
        "value": "Acute solvent syndrome",
        "links": [],
        "cross_references": []
      }
    },
    "diseases_processes_and_activities_linked_to_this_agent": {
      "diseases": {
        "original_name": "Diseases",
        "value": "Occupational diseases associated with exposure to this agent: Solvents, acute toxic effect",
        "links": [
          {
            "text": "Solvents, acute toxic effect",
            "url": "https://haz-map.com/Diseases/326"
          }
        ],
        "cross_references": [
          {
            "type": "url_match",
            "text": "Solvents, acute toxic effect",
            "url": "https://haz-map.com/Diseases/326",
            "confidence": 1.0,
            "uuid": "581e90e3-9d0c-45f0-aa6c-3468c28da129",
            "name": "Solvents, acute toxic effect",
            "category": "diseases"
          }
        ]
      }
    }
  },
  "cross_references": [
    {
      "type": "url_match",
      "text": "Solvents, acute toxic effect",
      "url": "https://haz-map.com/Diseases/326",
      "confidence": 1.0,
      "uuid": "581e90e3-9d0c-45f0-aa6c-3468c28da129",
      "name": "Solvents, acute toxic effect",
      "category": "diseases"
    },
    {
      "type": "name_match",
      "text": "dimethylformamide",
      "confidence": 1.0,
      "uuid": "d27b5fb4-dfbf-45ab-a2cc-47ad4612a47c",
      "name": "Dimethylformamide",
      "url": "https://haz-map.com/Agents/463",
      "category": "agents"
    },
    {
      "type": "name_match",
      "text": "formamide",
      "confidence": 1.0,
      "uuid": "70c12f11-5fdc-417f-a614-4b4de0f81d0b",
      "name": "Formamide",
      "url": "https://haz-map.com/Agents/496",
      "category": "agents"
    },
    {
      "type": "name_match",
      "text": "n-butylamide",
      "confidence": 1.0,
      "uuid": "78d0d650-b7ac-4198-86eb-a0b051d6169b",
      "name": "n-Butylamide",
      "url": "https://haz-map.com/Agents/6226",
      "category": "agents"
    },
    {
      "type": "fuzzy_match",
      "text": "crystalline",
      "matched_name": "Silica, crystalline",
      "confidence": 0.7061403508771931,
      "uuid": "f920e8a2-46df-41b7-af8d-0368a777251e",
      "category": "agents",
      "url": "https://haz-map.com/Agents/427"
    }
  ],
  "all_links": [
    {
      "text": "Search PubMed",
      "url": "https://www.ncbi.nlm.nih.gov/pubmed?term=n-Butylamide%20AND%20human%5Bmh%5D%20AND%20%28Occupational%20Diseases%20%5Bmh%5D%20OR%20Occupational%20Exposure%20%5Bmh%5D%29%20%20AND%20%28tox%5Bsb%5D%29&cmd=search"
    },
    {
      "text": "Solvents, acute toxic effect",
      "url": "https://haz-map.com/Diseases/326"
    }
  ]
}