{
  "metadata": {
    "scraped_from": "https://haz-map.com/Agents/7142",
    "entity_name": "Sodium oleate",
    "category": "agents",
    "uuid": "78ded8fa-6ea3-4660-8b11-4279906000ea",
    "scraped_at": "2025-07-23T20:09:28.251933"
  },
  "parsed_at": "2025-07-24T01:09:54.103663",
  "title": "Sodium oleate",
  "sections": {
    "general": {
      "agent_name": {
        "original_name": "Agent Name",
        "value": "Sodium oleate",
        "links": [],
        "cross_references": [
          {
            "type": "name_match",
            "text": "sodium",
            "confidence": 1.0,
            "uuid": "1adffc42-a4d8-44d5-81d6-7dbd96ef8a6f",
            "name": "Sodium",
            "url": "https://haz-map.com/Agents/1527",
            "category": "agents"
          },
          {
            "type": "name_match",
            "text": "sodium oleate",
            "confidence": 1.0,
            "uuid": "78ded8fa-6ea3-4660-8b11-4279906000ea",
            "name": "Sodium oleate",
            "url": "https://haz-map.com/Agents/7142",
            "category": "agents"
          }
        ]
      },
      "cas_number": {
        "original_name": "CAS Number",
        "value": "143-19-1",
        "links": [],
        "cross_references": []
      },
      "formula": {
        "original_name": "Formula",
        "value": "C18-H34-O2.Na",
        "links": [],
        "cross_references": []
      },
      "major_category": {
        "original_name": "Major Category",
        "value": "Other Uses",
        "links": [],
        "cross_references": []
      },
      "synonyms": {
        "original_name": "Synonyms",
        "value": "9-Octadecenoic acid, sodium salt; Osteum; Sodium 9-octadecenoate; 9-Octadecenoic acid (Z)-, sodium salt; Eunatrol; Olate flakes; Oleic acid, sodium salt; Sodium 9-octadecenoate, (Z)-; [ChemIDplus]",
        "links": [],
        "cross_references": [
          {
            "type": "name_match",
            "text": "sodium",
            "confidence": 1.0,
            "uuid": "1adffc42-a4d8-44d5-81d6-7dbd96ef8a6f",
            "name": "Sodium",
            "url": "https://haz-map.com/Agents/1527",
            "category": "agents"
          },
          {
            "type": "name_match",
            "text": "oleic acid",
            "confidence": 1.0,
            "uuid": "92fd92b6-f74c-4bd2-b9f1-919fbad882ae",
            "name": "Oleic acid",
            "url": "https://haz-map.com/Agents/6455",
            "category": "agents"
          }
        ]
      },
      "category": {
        "original_name": "Category",
        "value": "Emulsifiers/Surfactants",
        "links": [],
        "cross_references": []
      },
      "description": {
        "original_name": "Description",
        "value": "White solid; [Merck Index] Light tan solid; [CAMEO]",
        "links": [],
        "cross_references": [
          {
            "type": "name_match",
            "text": "ht",
            "confidence": 1.0,
            "uuid": "764df367-8d53-4a11-81a2-31ccfe122a8d",
            "name": "HT",
            "url": "https://haz-map.com/Agents/2168",
            "category": "agents"
          }
        ]
      },
      "sourcesuses": {
        "original_name": "Sources/Uses",
        "value": "Used in ore flotation, waterproofing textiles, metal polishes, polymer curing, and veterinary medicine; Used as emulsifier for oil/water systems and in the polymerization of butadiene; [HSDB]",
        "links": [],
        "cross_references": [
          {
            "type": "name_match",
            "text": "butadiene",
            "confidence": 1.0,
            "uuid": "f4fdb4ce-e062-4db5-8e5d-eba44b8a05be",
            "name": "Butadiene",
            "url": "https://haz-map.com/Agents/12505",
            "category": "agents"
          },
          {
            "type": "name_match",
            "text": "water",
            "confidence": 1.0,
            "uuid": "6f2a7557-dfd2-49bc-9b4b-a93cd8e225d4",
            "name": "Water",
            "url": "https://haz-map.com/Agents/18668",
            "category": "agents"
          }
        ]
      },
      "comments": {
        "original_name": "Comments",
        "value": "A mild skin and mucous membrane irritant; [Merck Index] An eye, nose, and throat irritant; [HSDB];",
        "links": [],
        "cross_references": []
      },
      "biomedical_references": {
        "original_name": "Biomedical References",
        "value": "Search PubMed",
        "links": [
          {
            "text": "Search PubMed",
            "url": "https://www.ncbi.nlm.nih.gov/pubmed?term=Sodium+oleate%20AND%20human%5Bmh%5D%20AND%20%28Occupational%20Diseases%20%5Bmh%5D%20OR%20Occupational%20Exposure%20%5Bmh%5D%29%20%20AND%20%28tox%5Bsb%5D%29&cmd=search"
          }
        ],
        "cross_references": []
      }
    },
    "exposure_assessment": {
      "vapor_pressure": {
        "original_name": "Vapor Pressure",
        "value": "7.8E-13 mm Hg",
        "links": [],
        "cross_references": []
      }
    },
    "diseases_processes_and_activities_linked_to_this_agent": {
      "processes": {
        "original_name": "Processes",
        "value": "Industrial Processes with risk of exposure: Metal Extraction and Refining Plastic Composites Manufacturing Textiles (Printing, Dyeing, or Finishing)",
        "links": [
          {
            "text": "Metal Extraction and Refining",
            "url": "https://haz-map.com/Processes/261"
          },
          {
            "text": "Plastic Composites Manufacturing",
            "url": "https://haz-map.com/Processes/222"
          },
          {
            "text": "Textiles (Printing, Dyeing, or Finishing)",
            "url": "https://haz-map.com/Processes/235"
          }
        ],
        "cross_references": [
          {
            "type": "url_match",
            "text": "Plastic Composites Manufacturing",
            "url": "https://haz-map.com/Processes/222",
            "confidence": 1.0,
            "uuid": "d4461b82-dc77-4172-8e3d-0a5e3b213911",
            "name": "Plastic Composites Manufacturing",
            "category": "processes"
          }
        ]
      }
    }
  },
  "cross_references": [
    {
      "type": "url_match",
      "text": "Plastic Composites Manufacturing",
      "url": "https://haz-map.com/Processes/222",
      "confidence": 1.0,
      "uuid": "d4461b82-dc77-4172-8e3d-0a5e3b213911",
      "name": "Plastic Composites Manufacturing",
      "category": "processes"
    },
    {
      "type": "name_match",
      "text": "sodium",
      "confidence": 1.0,
      "uuid": "1adffc42-a4d8-44d5-81d6-7dbd96ef8a6f",
      "name": "Sodium",
      "url": "https://haz-map.com/Agents/1527",
      "category": "agents"
    },
    {
      "type": "name_match",
      "text": "ht",
      "confidence": 1.0,
      "uuid": "764df367-8d53-4a11-81a2-31ccfe122a8d",
      "name": "HT",
      "url": "https://haz-map.com/Agents/2168",
      "category": "agents"
    },
    {
      "type": "name_match",
      "text": "oleic acid",
      "confidence": 1.0,
      "uuid": "92fd92b6-f74c-4bd2-b9f1-919fbad882ae",
      "name": "Oleic acid",
      "url": "https://haz-map.com/Agents/6455",
      "category": "agents"
    },
    {
      "type": "name_match",
      "text": "sodium oleate",
      "confidence": 1.0,
      "uuid": "78ded8fa-6ea3-4660-8b11-4279906000ea",
      "name": "Sodium oleate",
      "url": "https://haz-map.com/Agents/7142",
      "category": "agents"
    },
    {
      "type": "name_match",
      "text": "butadiene",
      "confidence": 1.0,
      "uuid": "f4fdb4ce-e062-4db5-8e5d-eba44b8a05be",
      "name": "Butadiene",
      "url": "https://haz-map.com/Agents/12505",
      "category": "agents"
    },
    {
      "type": "name_match",
      "text": "water",
      "confidence": 1.0,
      "uuid": "6f2a7557-dfd2-49bc-9b4b-a93cd8e225d4",
      "name": "Water",
      "url": "https://haz-map.com/Agents/18668",
      "category": "agents"
    }
  ],
  "all_links": [
    {
      "text": "Search PubMed",
      "url": "https://www.ncbi.nlm.nih.gov/pubmed?term=Sodium+oleate%20AND%20human%5Bmh%5D%20AND%20%28Occupational%20Diseases%20%5Bmh%5D%20OR%20Occupational%20Exposure%20%5Bmh%5D%29%20%20AND%20%28tox%5Bsb%5D%29&cmd=search"
    },
    {
      "text": "Metal Extraction and Refining",
      "url": "https://haz-map.com/Processes/261"
    },
    {
      "text": "Plastic Composites Manufacturing",
      "url": "https://haz-map.com/Processes/222"
    },
    {
      "text": "Textiles (Printing, Dyeing, or Finishing)",
      "url": "https://haz-map.com/Processes/235"
    }
  ]
}