{
  "metadata": {
    "scraped_from": "https://haz-map.com/Agents/2938",
    "entity_name": "Dipicrylamine",
    "category": "agents",
    "uuid": "78e34b50-ab23-498b-a2b7-229febeae013",
    "scraped_at": "2025-07-23T19:21:18.806849"
  },
  "parsed_at": "2025-07-24T01:10:48.218067",
  "title": "Dipicrylamine",
  "sections": {
    "general": {
      "agent_name": {
        "original_name": "Agent Name",
        "value": "Dipicrylamine",
        "links": [],
        "cross_references": [
          {
            "type": "name_match",
            "text": "dipicrylamine",
            "confidence": 1.0,
            "uuid": "78e34b50-ab23-498b-a2b7-229febeae013",
            "name": "Dipicrylamine",
            "url": "https://haz-map.com/Agents/2938",
            "category": "agents"
          }
        ]
      },
      "alternative_name": {
        "original_name": "Alternative Name",
        "value": "2,2',4,4',6,6'-Hexanitrodiphenylamine",
        "links": [],
        "cross_references": [
          {
            "type": "name_match",
            "text": "diphenylamine",
            "confidence": 1.0,
            "uuid": "3f92d416-f15a-456f-86a5-60c536b4229b",
            "name": "Diphenylamine",
            "url": "https://haz-map.com/Agents/471",
            "category": "agents"
          },
          {
            "type": "name_match",
            "text": "hexanitrodiphenylamine",
            "confidence": 1.0,
            "uuid": "1c8dd930-8b5a-4cd4-b89e-21e5ceffd469",
            "name": "Hexanitrodiphenylamine",
            "url": "https://haz-map.com/Agents/14631",
            "category": "agents"
          }
        ]
      },
      "cas_number": {
        "original_name": "CAS Number",
        "value": "131-73-7",
        "links": [],
        "cross_references": []
      },
      "formula": {
        "original_name": "Formula",
        "value": "C12-H5-N7-O12",
        "links": [],
        "cross_references": []
      },
      "major_category": {
        "original_name": "Major Category",
        "value": "Nitrogen Compounds",
        "links": [],
        "cross_references": [
          {
            "type": "name_match",
            "text": "nitrogen",
            "confidence": 1.0,
            "uuid": "db5e90a9-06d2-45b9-8b81-f345a89b0bc0",
            "name": "Nitrogen",
            "url": "https://haz-map.com/Agents/1072",
            "category": "agents"
          }
        ]
      },
      "synonyms": {
        "original_name": "Synonyms",
        "value": "2,2',4,4',6,6'-Hexanitrodiphenylamine; 2,2',4,4',6,6'-Hexanitrodifenylamin [Czech]; 2,4,6,2',4',6'-Hexanitrodiphenylamine; 2,4,6-Trinitro-N-(2,4,6-trinitrophenyl)benzenamine; Benzenamine, 2,4,6-trinitro-N-(2,4,6-trinitrophenyl)-; Bis(2,4,6-trinitro-phenyl)-amin [German]; Bis(2,4,6-trinitrophenyl)amine; C.I. 10360; Diphenylamine, 2,2',4,4',6,6'-hexanitro-; Diphenylamine, hexanitro-; Dipikrylamin [Czech]; Esanitrodifenilamina [Italian]; Hexamine; Hexamine (potassium reagent); Hexanitrodifenylamine [Dutch]; Hexanitrodiphenylamine; Hexanitrodiphenylamine [French]; Hexil; Hexite; Hexyl; Hexyl (VAN); Hexyl (reagent); Hexyl [German, Dutch]; [ChemIDplus] UN0079",
        "links": [],
        "cross_references": [
          {
            "type": "name_match",
            "text": "diphenylamine",
            "confidence": 1.0,
            "uuid": "3f92d416-f15a-456f-86a5-60c536b4229b",
            "name": "Diphenylamine",
            "url": "https://haz-map.com/Agents/471",
            "category": "agents"
          },
          {
            "type": "name_match",
            "text": "tali",
            "confidence": 1.0,
            "uuid": "8c3a0f99-2143-4122-b539-ec5cc49596b0",
            "name": "Tali",
            "url": "https://haz-map.com/Agents/1128",
            "category": "agents"
          },
          {
            "type": "name_match",
            "text": "potassium",
            "confidence": 1.0,
            "uuid": "41542f50-8311-43c8-9ec6-078665bee9df",
            "name": "Potassium",
            "url": "https://haz-map.com/Agents/1526",
            "category": "agents"
          },
          {
            "type": "name_match",
            "text": "hexanitrodiphenylamine",
            "confidence": 1.0,
            "uuid": "1c8dd930-8b5a-4cd4-b89e-21e5ceffd469",
            "name": "Hexanitrodiphenylamine",
            "url": "https://haz-map.com/Agents/14631",
            "category": "agents"
          }
        ]
      },
      "category": {
        "original_name": "Category",
        "value": "Other Aromatics (Nitrogen)",
        "links": [],
        "cross_references": [
          {
            "type": "name_match",
            "text": "nitrogen",
            "confidence": 1.0,
            "uuid": "db5e90a9-06d2-45b9-8b81-f345a89b0bc0",
            "name": "Nitrogen",
            "url": "https://haz-map.com/Agents/1072",
            "category": "agents"
          }
        ]
      },
      "description": {
        "original_name": "Description",
        "value": "Yellow solid; [Merck Index] Yellow crystals; [MSDSonline]",
        "links": [],
        "cross_references": []
      },
      "sourcesuses": {
        "original_name": "Sources/Uses",
        "value": "Used as a booster explosive (bombs, mines, and torpedo warheads) and as a reagent for gravimetric determination of potassium; [HSDB]",
        "links": [],
        "cross_references": [
          {
            "type": "name_match",
            "text": "potassium",
            "confidence": 1.0,
            "uuid": "41542f50-8311-43c8-9ec6-078665bee9df",
            "name": "Potassium",
            "url": "https://haz-map.com/Agents/1526",
            "category": "agents"
          }
        ]
      },
      "comments": {
        "original_name": "Comments",
        "value": "Explosive compound; [Merck Index] Emergency treatment: Methemoglobinemia; [HSDB] Very toxic by inhalation, ingestion, and skin contact; [eChemPortal: ESIS] May cause irritation; May cause methemoglobinemia; [MSDSonline]",
        "links": [],
        "cross_references": [
          {
            "type": "name_match",
            "text": "methemoglobin",
            "confidence": 1.0,
            "uuid": "afb7ebf5-d2a3-4e60-8d2e-3a19456344ee",
            "name": "Methemoglobin",
            "url": "https://haz-map.com/Agents/15467",
            "category": "agents"
          },
          {
            "type": "fuzzy_match",
            "text": "methemoglobinemia",
            "matched_name": "Methemoglobinemia, acute",
            "confidence": 0.7208333333333333,
            "uuid": "473a44bd-cf11-4710-a769-e8e2b25ba317",
            "category": "diseases",
            "url": "https://haz-map.com/Diseases/210"
          }
        ]
      },
      "biomedical_references": {
        "original_name": "Biomedical References",
        "value": "Search PubMed",
        "links": [
          {
            "text": "Search PubMed",
            "url": "https://www.ncbi.nlm.nih.gov/pubmed?term=Dipicrylamine%20AND%20human%5Bmh%5D%20AND%20%28Occupational%20Diseases%20%5Bmh%5D%20OR%20Occupational%20Exposure%20%5Bmh%5D%29%20%20AND%20%28tox%5Bsb%5D%29&cmd=search"
          }
        ],
        "cross_references": []
      }
    },
    "exposure_assessment": {
      "vapor_pressure": {
        "original_name": "Vapor Pressure",
        "value": "2.89E-14 mm Hg",
        "links": [],
        "cross_references": []
      }
    },
    "adverse_effects": {
      "methemoglobinemia": {
        "original_name": "Methemoglobinemia",
        "value": "MetHgb is secondary toxic effect",
        "links": [],
        "cross_references": []
      }
    },
    "diseases_processes_and_activities_linked_to_this_agent": {
      "other_information": {
        "original_name": "Other Information",
        "value": "No other related information on this agent was found.",
        "links": [],
        "cross_references": []
      }
    }
  },
  "cross_references": [
    {
      "type": "name_match",
      "text": "diphenylamine",
      "confidence": 1.0,
      "uuid": "3f92d416-f15a-456f-86a5-60c536b4229b",
      "name": "Diphenylamine",
      "url": "https://haz-map.com/Agents/471",
      "category": "agents"
    },
    {
      "type": "name_match",
      "text": "nitrogen",
      "confidence": 1.0,
      "uuid": "db5e90a9-06d2-45b9-8b81-f345a89b0bc0",
      "name": "Nitrogen",
      "url": "https://haz-map.com/Agents/1072",
      "category": "agents"
    },
    {
      "type": "name_match",
      "text": "tali",
      "confidence": 1.0,
      "uuid": "8c3a0f99-2143-4122-b539-ec5cc49596b0",
      "name": "Tali",
      "url": "https://haz-map.com/Agents/1128",
      "category": "agents"
    },
    {
      "type": "name_match",
      "text": "potassium",
      "confidence": 1.0,
      "uuid": "41542f50-8311-43c8-9ec6-078665bee9df",
      "name": "Potassium",
      "url": "https://haz-map.com/Agents/1526",
      "category": "agents"
    },
    {
      "type": "name_match",
      "text": "dipicrylamine",
      "confidence": 1.0,
      "uuid": "78e34b50-ab23-498b-a2b7-229febeae013",
      "name": "Dipicrylamine",
      "url": "https://haz-map.com/Agents/2938",
      "category": "agents"
    },
    {
      "type": "name_match",
      "text": "hexanitrodiphenylamine",
      "confidence": 1.0,
      "uuid": "1c8dd930-8b5a-4cd4-b89e-21e5ceffd469",
      "name": "Hexanitrodiphenylamine",
      "url": "https://haz-map.com/Agents/14631",
      "category": "agents"
    },
    {
      "type": "name_match",
      "text": "methemoglobin",
      "confidence": 1.0,
      "uuid": "afb7ebf5-d2a3-4e60-8d2e-3a19456344ee",
      "name": "Methemoglobin",
      "url": "https://haz-map.com/Agents/15467",
      "category": "agents"
    },
    {
      "type": "fuzzy_match",
      "text": "methemoglobinemia",
      "matched_name": "Methemoglobinemia, acute",
      "confidence": 0.7208333333333333,
      "uuid": "473a44bd-cf11-4710-a769-e8e2b25ba317",
      "category": "diseases",
      "url": "https://haz-map.com/Diseases/210"
    }
  ],
  "all_links": [
    {
      "text": "Search PubMed",
      "url": "https://www.ncbi.nlm.nih.gov/pubmed?term=Dipicrylamine%20AND%20human%5Bmh%5D%20AND%20%28Occupational%20Diseases%20%5Bmh%5D%20OR%20Occupational%20Exposure%20%5Bmh%5D%29%20%20AND%20%28tox%5Bsb%5D%29&cmd=search"
    }
  ]
}