{
  "metadata": {
    "scraped_from": "https://haz-map.com/Agents/19465",
    "entity_name": "4,6-Dichloro-2-phenylphenol",
    "category": "agents",
    "uuid": "793ba32d-9ab7-4e83-af4c-253ecf5b2608",
    "scraped_at": "2025-07-23T22:06:40.062498"
  },
  "parsed_at": "2025-07-24T01:12:49.756704",
  "title": "4,6-Dichloro-2-phenylphenol",
  "sections": {
    "general": {
      "agent_name": {
        "original_name": "Agent Name",
        "value": "4,6-Dichloro-2-phenylphenol",
        "links": [],
        "cross_references": [
          {
            "type": "name_match",
            "text": "phenol",
            "confidence": 1.0,
            "uuid": "03141a03-a7df-4f51-9a37-adde1a7c4b31",
            "name": "Phenol",
            "url": "https://haz-map.com/Agents/84",
            "category": "agents"
          },
          {
            "type": "name_match",
            "text": "4,6-dichloro-2-phenylphenol",
            "confidence": 1.0,
            "uuid": "793ba32d-9ab7-4e83-af4c-253ecf5b2608",
            "name": "4,6-Dichloro-2-phenylphenol",
            "url": "https://haz-map.com/Agents/19465",
            "category": "agents"
          }
        ]
      },
      "cas_number": {
        "original_name": "CAS Number",
        "value": "5335-24-0",
        "links": [],
        "cross_references": []
      },
      "formula": {
        "original_name": "Formula",
        "value": "C12-H8-Cl2-O",
        "links": [],
        "cross_references": []
      },
      "major_category": {
        "original_name": "Major Category",
        "value": "Other Classes",
        "links": [],
        "cross_references": []
      },
      "synonyms": {
        "original_name": "Synonyms",
        "value": "2,4-Dichloro-6-phenylphenol; 2-Biphenylol, 3,5-dichloro-; 2-Hydroxy-3,5-dichlorobiphenyl; 3,5-Dichloro-(1,1'-biphenyl)-2-ol; 3,5-Dichloro-2-biphenylol; 4,6-Dichloro-o-phenylphenol; (1,1'-Biphenyl)-2-ol, 3,5-dichloro-; [ChemIDplus]",
        "links": [],
        "cross_references": [
          {
            "type": "name_match",
            "text": "phenol",
            "confidence": 1.0,
            "uuid": "03141a03-a7df-4f51-9a37-adde1a7c4b31",
            "name": "Phenol",
            "url": "https://haz-map.com/Agents/84",
            "category": "agents"
          },
          {
            "type": "name_match",
            "text": "biphenyl",
            "confidence": 1.0,
            "uuid": "740f90cb-888a-4a3b-b9ae-30768927fec2",
            "name": "Biphenyl",
            "url": "https://haz-map.com/Agents/306",
            "category": "agents"
          },
          {
            "type": "name_match",
            "text": "2,4-d",
            "confidence": 1.0,
            "uuid": "bed35f54-2d93-4ffd-a3ee-723ab365faf1",
            "name": "2,4-D",
            "url": "https://haz-map.com/Agents/389",
            "category": "agents"
          },
          {
            "type": "name_match",
            "text": "o-phenylphenol",
            "confidence": 1.0,
            "uuid": "89d6c16d-eb36-4bbf-8089-165988f14c3c",
            "name": "o-Phenylphenol",
            "url": "https://haz-map.com/Agents/6418",
            "category": "agents"
          }
        ]
      },
      "category": {
        "original_name": "Category",
        "value": "Halogenated Polyaromatics",
        "links": [],
        "cross_references": []
      },
      "comments": {
        "original_name": "Comments",
        "value": "See \"2-Chloro-4-phenylphenol.\"",
        "links": [],
        "cross_references": [
          {
            "type": "name_match",
            "text": "phenol",
            "confidence": 1.0,
            "uuid": "03141a03-a7df-4f51-9a37-adde1a7c4b31",
            "name": "Phenol",
            "url": "https://haz-map.com/Agents/84",
            "category": "agents"
          },
          {
            "type": "name_match",
            "text": "2-chloro-4-phenylphenol",
            "confidence": 1.0,
            "uuid": "423f2c12-463f-4118-8da7-ab853ebd9d09",
            "name": "2-Chloro-4-phenylphenol",
            "url": "https://haz-map.com/Agents/9999",
            "category": "agents"
          }
        ]
      },
      "biomedical_references": {
        "original_name": "Biomedical References",
        "value": "Search PubMed",
        "links": [
          {
            "text": "Search PubMed",
            "url": "https://www.ncbi.nlm.nih.gov/pubmed?term=4%2c6-Dichloro-2-phenylphenol%20AND%20human%5Bmh%5D%20AND%20%28Occupational%20Diseases%20%5Bmh%5D%20OR%20Occupational%20Exposure%20%5Bmh%5D%29%20%20AND%20%28tox%5Bsb%5D%29&cmd=search"
          }
        ],
        "cross_references": []
      }
    },
    "exposure_assessment": {
      "vapor_pressure": {
        "original_name": "Vapor Pressure",
        "value": "2.57E-06 mm Hg",
        "links": [],
        "cross_references": []
      }
    },
    "diseases_processes_and_activities_linked_to_this_agent": {
      "other_information": {
        "original_name": "Other Information",
        "value": "No other related information on this agent was found.",
        "links": [],
        "cross_references": []
      }
    }
  },
  "cross_references": [
    {
      "type": "name_match",
      "text": "phenol",
      "confidence": 1.0,
      "uuid": "03141a03-a7df-4f51-9a37-adde1a7c4b31",
      "name": "Phenol",
      "url": "https://haz-map.com/Agents/84",
      "category": "agents"
    },
    {
      "type": "name_match",
      "text": "biphenyl",
      "confidence": 1.0,
      "uuid": "740f90cb-888a-4a3b-b9ae-30768927fec2",
      "name": "Biphenyl",
      "url": "https://haz-map.com/Agents/306",
      "category": "agents"
    },
    {
      "type": "name_match",
      "text": "2,4-d",
      "confidence": 1.0,
      "uuid": "bed35f54-2d93-4ffd-a3ee-723ab365faf1",
      "name": "2,4-D",
      "url": "https://haz-map.com/Agents/389",
      "category": "agents"
    },
    {
      "type": "name_match",
      "text": "o-phenylphenol",
      "confidence": 1.0,
      "uuid": "89d6c16d-eb36-4bbf-8089-165988f14c3c",
      "name": "o-Phenylphenol",
      "url": "https://haz-map.com/Agents/6418",
      "category": "agents"
    },
    {
      "type": "name_match",
      "text": "2-chloro-4-phenylphenol",
      "confidence": 1.0,
      "uuid": "423f2c12-463f-4118-8da7-ab853ebd9d09",
      "name": "2-Chloro-4-phenylphenol",
      "url": "https://haz-map.com/Agents/9999",
      "category": "agents"
    },
    {
      "type": "name_match",
      "text": "4,6-dichloro-2-phenylphenol",
      "confidence": 1.0,
      "uuid": "793ba32d-9ab7-4e83-af4c-253ecf5b2608",
      "name": "4,6-Dichloro-2-phenylphenol",
      "url": "https://haz-map.com/Agents/19465",
      "category": "agents"
    }
  ],
  "all_links": [
    {
      "text": "Search PubMed",
      "url": "https://www.ncbi.nlm.nih.gov/pubmed?term=4%2c6-Dichloro-2-phenylphenol%20AND%20human%5Bmh%5D%20AND%20%28Occupational%20Diseases%20%5Bmh%5D%20OR%20Occupational%20Exposure%20%5Bmh%5D%29%20%20AND%20%28tox%5Bsb%5D%29&cmd=search"
    }
  ]
}