{
  "metadata": {
    "scraped_from": "https://haz-map.com/Agents/15547",
    "entity_name": "Methyl trichloroacetate",
    "category": "agents",
    "uuid": "796e1a09-b5fe-4073-b6f3-3b85ec4314ae",
    "scraped_at": "2025-07-23T21:30:41.845722"
  },
  "parsed_at": "2025-07-24T01:09:05.322204",
  "title": "Methyl trichloroacetate",
  "sections": {
    "general": {
      "agent_name": {
        "original_name": "Agent Name",
        "value": "Methyl trichloroacetate",
        "links": [],
        "cross_references": [
          {
            "type": "name_match",
            "text": "methyl trichloroacetate",
            "confidence": 1.0,
            "uuid": "796e1a09-b5fe-4073-b6f3-3b85ec4314ae",
            "name": "Methyl trichloroacetate",
            "url": "https://haz-map.com/Agents/15547",
            "category": "agents"
          }
        ]
      },
      "cas_number": {
        "original_name": "CAS Number",
        "value": "598-99-2",
        "links": [],
        "cross_references": []
      },
      "formula": {
        "original_name": "Formula",
        "value": "C3-H3-Cl3-O2",
        "links": [],
        "cross_references": []
      },
      "major_category": {
        "original_name": "Major Category",
        "value": "Other Classes",
        "links": [],
        "cross_references": []
      },
      "synonyms": {
        "original_name": "Synonyms",
        "value": "Methyl trichloroacetic acid; Acetic acid, 2,2,2-trichloro-, methyl ester; Acetic acid, trichloro-, methyl ester; [ChemIDplus] UN2533",
        "links": [],
        "cross_references": [
          {
            "type": "name_match",
            "text": "acetic acid",
            "confidence": 1.0,
            "uuid": "0905c6e4-df84-4895-a92d-658819239bbd",
            "name": "Acetic acid",
            "url": "https://haz-map.com/Agents/207",
            "category": "agents"
          },
          {
            "type": "name_match",
            "text": "trichloroacetic acid",
            "confidence": 1.0,
            "uuid": "01898ce2-25e9-4a4f-93d9-6d6023f3dda8",
            "name": "Trichloroacetic acid",
            "url": "https://haz-map.com/Agents/660",
            "category": "agents"
          },
          {
            "type": "name_match",
            "text": "chloroacetic acid",
            "confidence": 1.0,
            "uuid": "3a910c63-0df9-4346-b031-7ddeb8b64230",
            "name": "Chloroacetic acid",
            "url": "https://haz-map.com/Agents/1392",
            "category": "agents"
          }
        ]
      },
      "category": {
        "original_name": "Category",
        "value": "Chloroacetic Acid Derivatives",
        "links": [],
        "cross_references": [
          {
            "type": "name_match",
            "text": "acetic acid",
            "confidence": 1.0,
            "uuid": "0905c6e4-df84-4895-a92d-658819239bbd",
            "name": "Acetic acid",
            "url": "https://haz-map.com/Agents/207",
            "category": "agents"
          },
          {
            "type": "name_match",
            "text": "chloroacetic acid",
            "confidence": 1.0,
            "uuid": "3a910c63-0df9-4346-b031-7ddeb8b64230",
            "name": "Chloroacetic acid",
            "url": "https://haz-map.com/Agents/1392",
            "category": "agents"
          }
        ]
      },
      "description": {
        "original_name": "Description",
        "value": "Colorless liquid; [CAMEO]",
        "links": [],
        "cross_references": []
      },
      "sourcesuses": {
        "original_name": "Sources/Uses",
        "value": "Used to make other chemicals; [CAMEO]",
        "links": [],
        "cross_references": [
          {
            "type": "name_match",
            "text": "mica",
            "confidence": 1.0,
            "uuid": "433f26f1-c399-4596-b179-ce3843cfd465",
            "name": "Mica",
            "url": "https://haz-map.com/Agents/621",
            "category": "agents"
          }
        ]
      },
      "comments": {
        "original_name": "Comments",
        "value": "May cause mild irritation; [CAMEO] A skin and strong eye irritant; [Sigma-Aldrich MSDS] See \"Trichloroacetic acid\" and \"Sodium trichloroacetate.\"",
        "links": [],
        "cross_references": [
          {
            "type": "name_match",
            "text": "acetic acid",
            "confidence": 1.0,
            "uuid": "0905c6e4-df84-4895-a92d-658819239bbd",
            "name": "Acetic acid",
            "url": "https://haz-map.com/Agents/207",
            "category": "agents"
          },
          {
            "type": "name_match",
            "text": "trichloroacetic acid",
            "confidence": 1.0,
            "uuid": "01898ce2-25e9-4a4f-93d9-6d6023f3dda8",
            "name": "Trichloroacetic acid",
            "url": "https://haz-map.com/Agents/660",
            "category": "agents"
          },
          {
            "type": "name_match",
            "text": "chloroacetic acid",
            "confidence": 1.0,
            "uuid": "3a910c63-0df9-4346-b031-7ddeb8b64230",
            "name": "Chloroacetic acid",
            "url": "https://haz-map.com/Agents/1392",
            "category": "agents"
          },
          {
            "type": "name_match",
            "text": "sodium",
            "confidence": 1.0,
            "uuid": "1adffc42-a4d8-44d5-81d6-7dbd96ef8a6f",
            "name": "Sodium",
            "url": "https://haz-map.com/Agents/1527",
            "category": "agents"
          },
          {
            "type": "name_match",
            "text": "sodium trichloroacetate",
            "confidence": 1.0,
            "uuid": "1236a37a-97e2-4f3e-acb4-920473cb8497",
            "name": "Sodium trichloroacetate",
            "url": "https://haz-map.com/Agents/7178",
            "category": "agents"
          }
        ]
      },
      "biomedical_references": {
        "original_name": "Biomedical References",
        "value": "Search PubMed",
        "links": [
          {
            "text": "Search PubMed",
            "url": "https://www.ncbi.nlm.nih.gov/pubmed?term=Methyl+trichloroacetate%20AND%20human%5Bmh%5D%20AND%20%28Occupational%20Diseases%20%5Bmh%5D%20OR%20Occupational%20Exposure%20%5Bmh%5D%29%20%20AND%20%28tox%5Bsb%5D%29&cmd=search"
          }
        ],
        "cross_references": []
      }
    },
    "exposure_assessment": {
      "vapor_pressure": {
        "original_name": "Vapor Pressure",
        "value": "5.5 mm Hg",
        "links": [],
        "cross_references": []
      }
    },
    "diseases_processes_and_activities_linked_to_this_agent": {
      "other_information": {
        "original_name": "Other Information",
        "value": "No other related information on this agent was found.",
        "links": [],
        "cross_references": []
      }
    }
  },
  "cross_references": [
    {
      "type": "name_match",
      "text": "acetic acid",
      "confidence": 1.0,
      "uuid": "0905c6e4-df84-4895-a92d-658819239bbd",
      "name": "Acetic acid",
      "url": "https://haz-map.com/Agents/207",
      "category": "agents"
    },
    {
      "type": "name_match",
      "text": "mica",
      "confidence": 1.0,
      "uuid": "433f26f1-c399-4596-b179-ce3843cfd465",
      "name": "Mica",
      "url": "https://haz-map.com/Agents/621",
      "category": "agents"
    },
    {
      "type": "name_match",
      "text": "trichloroacetic acid",
      "confidence": 1.0,
      "uuid": "01898ce2-25e9-4a4f-93d9-6d6023f3dda8",
      "name": "Trichloroacetic acid",
      "url": "https://haz-map.com/Agents/660",
      "category": "agents"
    },
    {
      "type": "name_match",
      "text": "chloroacetic acid",
      "confidence": 1.0,
      "uuid": "3a910c63-0df9-4346-b031-7ddeb8b64230",
      "name": "Chloroacetic acid",
      "url": "https://haz-map.com/Agents/1392",
      "category": "agents"
    },
    {
      "type": "name_match",
      "text": "sodium",
      "confidence": 1.0,
      "uuid": "1adffc42-a4d8-44d5-81d6-7dbd96ef8a6f",
      "name": "Sodium",
      "url": "https://haz-map.com/Agents/1527",
      "category": "agents"
    },
    {
      "type": "name_match",
      "text": "sodium trichloroacetate",
      "confidence": 1.0,
      "uuid": "1236a37a-97e2-4f3e-acb4-920473cb8497",
      "name": "Sodium trichloroacetate",
      "url": "https://haz-map.com/Agents/7178",
      "category": "agents"
    },
    {
      "type": "name_match",
      "text": "methyl trichloroacetate",
      "confidence": 1.0,
      "uuid": "796e1a09-b5fe-4073-b6f3-3b85ec4314ae",
      "name": "Methyl trichloroacetate",
      "url": "https://haz-map.com/Agents/15547",
      "category": "agents"
    }
  ],
  "all_links": [
    {
      "text": "Search PubMed",
      "url": "https://www.ncbi.nlm.nih.gov/pubmed?term=Methyl+trichloroacetate%20AND%20human%5Bmh%5D%20AND%20%28Occupational%20Diseases%20%5Bmh%5D%20OR%20Occupational%20Exposure%20%5Bmh%5D%29%20%20AND%20%28tox%5Bsb%5D%29&cmd=search"
    }
  ]
}