{
  "metadata": {
    "scraped_from": "https://haz-map.com/Agents/19391",
    "entity_name": "1-Naphthylisothiocyanate",
    "category": "agents",
    "uuid": "7974788c-84de-488d-aa0e-837ab30fc839",
    "scraped_at": "2025-07-23T22:05:09.350585"
  },
  "parsed_at": "2025-07-24T00:56:11.299607",
  "title": "1-Naphthylisothiocyanate",
  "sections": {
    "general": {
      "agent_name": {
        "original_name": "Agent Name",
        "value": "1-Naphthylisothiocyanate",
        "links": [],
        "cross_references": [
          {
            "type": "name_match",
            "text": "ht",
            "confidence": 1.0,
            "uuid": "764df367-8d53-4a11-81a2-31ccfe122a8d",
            "name": "HT",
            "url": "https://haz-map.com/Agents/2168",
            "category": "agents"
          },
          {
            "type": "name_match",
            "text": "1-naphthylisothiocyanate",
            "confidence": 1.0,
            "uuid": "7974788c-84de-488d-aa0e-837ab30fc839",
            "name": "1-Naphthylisothiocyanate",
            "url": "https://haz-map.com/Agents/19391",
            "category": "agents"
          }
        ]
      },
      "cas_number": {
        "original_name": "CAS Number",
        "value": "551-06-4",
        "links": [],
        "cross_references": []
      },
      "formula": {
        "original_name": "Formula",
        "value": "C11-H7-N-S",
        "links": [],
        "cross_references": []
      },
      "major_category": {
        "original_name": "Major Category",
        "value": "Nitrogen Compounds",
        "links": [],
        "cross_references": [
          {
            "type": "name_match",
            "text": "nitrogen",
            "confidence": 1.0,
            "uuid": "db5e90a9-06d2-45b9-8b81-f345a89b0bc0",
            "name": "Nitrogen",
            "url": "https://haz-map.com/Agents/1072",
            "category": "agents"
          }
        ]
      },
      "synonyms": {
        "original_name": "Synonyms",
        "value": "1-Isothiocyanate-naphthalene; 1-Isothiocyanatonaphthalene; 1-Naftylisothiokyanat [Czech]; 1-Naphthyl isothiocyanate; alpha-Naphthyl isothiocyanate; ANI; ANIT; Kesscocide; Naphthalene, isothiocyanato-; Isothiocyanic acid, 1-naphthyl ester; Naphthalene, 1-isothiocyanato-; [ChemIDplus] alpha-Naphthyl mustard oil; alpha-Naphthylisothiocyanate; Isothiocyanatonaphthalene; 1-Naphthyl ester isothiocyanic acid; [CAMEO] UN2811",
        "links": [],
        "cross_references": [
          {
            "type": "name_match",
            "text": "naphthalene",
            "confidence": 1.0,
            "uuid": "433cf489-5423-4297-a38e-6e755a9d458e",
            "name": "Naphthalene",
            "url": "https://haz-map.com/Agents/46",
            "category": "agents"
          },
          {
            "type": "name_match",
            "text": "ht",
            "confidence": 1.0,
            "uuid": "764df367-8d53-4a11-81a2-31ccfe122a8d",
            "name": "HT",
            "url": "https://haz-map.com/Agents/2168",
            "category": "agents"
          },
          {
            "type": "name_match",
            "text": "thiocyanic acid",
            "confidence": 1.0,
            "uuid": "1ea9faab-6fd3-4195-bb95-eb98a8e81823",
            "name": "Thiocyanic acid",
            "url": "https://haz-map.com/Agents/19869",
            "category": "agents"
          }
        ]
      },
      "category": {
        "original_name": "Category",
        "value": "Isothiocyanates",
        "links": [],
        "cross_references": []
      },
      "description": {
        "original_name": "Description",
        "value": "White nearly odorless solid; [Merck Index] Slightly yellow odorless powder; [Acros Organics MSDS]",
        "links": [],
        "cross_references": [
          {
            "type": "name_match",
            "text": "ht",
            "confidence": 1.0,
            "uuid": "764df367-8d53-4a11-81a2-31ccfe122a8d",
            "name": "HT",
            "url": "https://haz-map.com/Agents/2168",
            "category": "agents"
          }
        ]
      },
      "sourcesuses": {
        "original_name": "Sources/Uses",
        "value": "\"A tool for the study of liver damage which causes bile stasis and hyperbilirubinemia acutely and bile duct hyperplasia and biliary cirrhosis chronically, with changes in hepatocyte function. It may cause skin and kidney damage.\" [ChemIDplus] Has been used as an insecticide (with pyrethrum); [NTP]",
        "links": [],
        "cross_references": [
          {
            "type": "name_match",
            "text": "pyrethrum",
            "confidence": 1.0,
            "uuid": "2207eb81-00c4-4197-8027-9a241d9cab6a",
            "name": "Pyrethrum",
            "url": "https://haz-map.com/Agents/615",
            "category": "agents"
          },
          {
            "type": "name_match",
            "text": "bilirubin",
            "confidence": 1.0,
            "uuid": "4684d8d8-07ae-409d-abc8-5833bbbfda20",
            "name": "Bilirubin",
            "url": "https://haz-map.com/Agents/12333",
            "category": "agents"
          }
        ]
      },
      "comments": {
        "original_name": "Comments",
        "value": "Causes abnormal liver function tests, cholestatic jaundice, and hepatitis in acute oral studies of rats; [RTECS] A hepatotoxin; [Merck Index] Slowly hydrolyzed by water; [CAMEO] May cause liver and kidney injury; [NTP] May cause irritation; Harmful by ingestion; May cause liver injury; [Acros Organics MSDS] See \"Phenyl isothiocyanate.\"",
        "links": [],
        "cross_references": [
          {
            "type": "name_match",
            "text": "jaundice",
            "confidence": 1.0,
            "uuid": "810fab39-c247-48bc-8475-aa897a5942da",
            "name": "jaundice",
            "url": "https://haz-map.com/Findings/19",
            "category": "findings"
          },
          {
            "type": "name_match",
            "text": "phenyl isothiocyanate",
            "confidence": 1.0,
            "uuid": "b58ee6c6-6e1f-4bb7-93f8-65f1b63354ef",
            "name": "Phenyl isothiocyanate",
            "url": "https://haz-map.com/Agents/16548",
            "category": "agents"
          },
          {
            "type": "name_match",
            "text": "water",
            "confidence": 1.0,
            "uuid": "6f2a7557-dfd2-49bc-9b4b-a93cd8e225d4",
            "name": "Water",
            "url": "https://haz-map.com/Agents/18668",
            "category": "agents"
          },
          {
            "type": "fuzzy_match",
            "text": "liver function test",
            "matched_name": "liver function test, abnormal",
            "confidence": 0.7099391480730223,
            "uuid": "914c0118-6d54-441d-ad3a-44c52b3d4e41",
            "category": "findings",
            "url": "https://haz-map.com/Findings/202"
          }
        ]
      },
      "biomedical_references": {
        "original_name": "Biomedical References",
        "value": "Search PubMed",
        "links": [
          {
            "text": "Search PubMed",
            "url": "https://www.ncbi.nlm.nih.gov/pubmed?term=1-Naphthylisothiocyanate%20AND%20human%5Bmh%5D%20AND%20%28Occupational%20Diseases%20%5Bmh%5D%20OR%20Occupational%20Exposure%20%5Bmh%5D%29%20%20AND%20%28tox%5Bsb%5D%29&cmd=search"
          }
        ],
        "cross_references": []
      }
    },
    "exposure_assessment": {
      "vapor_pressure": {
        "original_name": "Vapor Pressure",
        "value": "0.000132 mm Hg",
        "links": [],
        "cross_references": []
      },
      "explanatory_notes": {
        "original_name": "Explanatory Notes",
        "value": "The Guide in the Emergency Response Guidebook is for \"Toxic solid, organic, n.o.s.\"",
        "links": [],
        "cross_references": []
      }
    },
    "adverse_effects": {
      "hepatotoxin": {
        "original_name": "Hepatotoxin",
        "value": "Hepatoxic (a) from occupational exposure (secondary effect) or (b) in animal studies or in humans after ingestion",
        "links": [],
        "cross_references": []
      }
    },
    "diseases_processes_and_activities_linked_to_this_agent": {
      "processes": {
        "original_name": "Processes",
        "value": "Industrial Processes with risk of exposure: Farming (Pesticides)",
        "links": [
          {
            "text": "Farming (Pesticides)",
            "url": "https://haz-map.com/Processes/218"
          }
        ],
        "cross_references": [
          {
            "type": "url_match",
            "text": "Farming (Pesticides)",
            "url": "https://haz-map.com/Processes/218",
            "confidence": 1.0,
            "uuid": "cf1e5815-c9bb-4917-82a5-391848170b7e",
            "name": "Farming (Pesticides)",
            "category": "processes"
          }
        ]
      }
    }
  },
  "cross_references": [
    {
      "type": "url_match",
      "text": "Farming (Pesticides)",
      "url": "https://haz-map.com/Processes/218",
      "confidence": 1.0,
      "uuid": "cf1e5815-c9bb-4917-82a5-391848170b7e",
      "name": "Farming (Pesticides)",
      "category": "processes"
    },
    {
      "type": "name_match",
      "text": "jaundice",
      "confidence": 1.0,
      "uuid": "810fab39-c247-48bc-8475-aa897a5942da",
      "name": "jaundice",
      "url": "https://haz-map.com/Findings/19",
      "category": "findings"
    },
    {
      "type": "name_match",
      "text": "naphthalene",
      "confidence": 1.0,
      "uuid": "433cf489-5423-4297-a38e-6e755a9d458e",
      "name": "Naphthalene",
      "url": "https://haz-map.com/Agents/46",
      "category": "agents"
    },
    {
      "type": "name_match",
      "text": "pyrethrum",
      "confidence": 1.0,
      "uuid": "2207eb81-00c4-4197-8027-9a241d9cab6a",
      "name": "Pyrethrum",
      "url": "https://haz-map.com/Agents/615",
      "category": "agents"
    },
    {
      "type": "name_match",
      "text": "nitrogen",
      "confidence": 1.0,
      "uuid": "db5e90a9-06d2-45b9-8b81-f345a89b0bc0",
      "name": "Nitrogen",
      "url": "https://haz-map.com/Agents/1072",
      "category": "agents"
    },
    {
      "type": "name_match",
      "text": "ht",
      "confidence": 1.0,
      "uuid": "764df367-8d53-4a11-81a2-31ccfe122a8d",
      "name": "HT",
      "url": "https://haz-map.com/Agents/2168",
      "category": "agents"
    },
    {
      "type": "name_match",
      "text": "bilirubin",
      "confidence": 1.0,
      "uuid": "4684d8d8-07ae-409d-abc8-5833bbbfda20",
      "name": "Bilirubin",
      "url": "https://haz-map.com/Agents/12333",
      "category": "agents"
    },
    {
      "type": "name_match",
      "text": "phenyl isothiocyanate",
      "confidence": 1.0,
      "uuid": "b58ee6c6-6e1f-4bb7-93f8-65f1b63354ef",
      "name": "Phenyl isothiocyanate",
      "url": "https://haz-map.com/Agents/16548",
      "category": "agents"
    },
    {
      "type": "name_match",
      "text": "water",
      "confidence": 1.0,
      "uuid": "6f2a7557-dfd2-49bc-9b4b-a93cd8e225d4",
      "name": "Water",
      "url": "https://haz-map.com/Agents/18668",
      "category": "agents"
    },
    {
      "type": "name_match",
      "text": "1-naphthylisothiocyanate",
      "confidence": 1.0,
      "uuid": "7974788c-84de-488d-aa0e-837ab30fc839",
      "name": "1-Naphthylisothiocyanate",
      "url": "https://haz-map.com/Agents/19391",
      "category": "agents"
    },
    {
      "type": "name_match",
      "text": "thiocyanic acid",
      "confidence": 1.0,
      "uuid": "1ea9faab-6fd3-4195-bb95-eb98a8e81823",
      "name": "Thiocyanic acid",
      "url": "https://haz-map.com/Agents/19869",
      "category": "agents"
    },
    {
      "type": "fuzzy_match",
      "text": "liver function test",
      "matched_name": "liver function test, abnormal",
      "confidence": 0.7099391480730223,
      "uuid": "914c0118-6d54-441d-ad3a-44c52b3d4e41",
      "category": "findings",
      "url": "https://haz-map.com/Findings/202"
    }
  ],
  "all_links": [
    {
      "text": "Search PubMed",
      "url": "https://www.ncbi.nlm.nih.gov/pubmed?term=1-Naphthylisothiocyanate%20AND%20human%5Bmh%5D%20AND%20%28Occupational%20Diseases%20%5Bmh%5D%20OR%20Occupational%20Exposure%20%5Bmh%5D%29%20%20AND%20%28tox%5Bsb%5D%29&cmd=search"
    },
    {
      "text": "Farming (Pesticides)",
      "url": "https://haz-map.com/Processes/218"
    }
  ]
}