{
  "metadata": {
    "scraped_from": "https://haz-map.com/Agents/14144",
    "entity_name": "Ergosterol",
    "category": "agents",
    "uuid": "797b4dd1-0d7c-4c38-8863-7e94d860f0f4",
    "scraped_at": "2025-07-23T21:20:50.019148"
  },
  "parsed_at": "2025-07-24T00:51:19.955106",
  "title": "Ergosterol",
  "sections": {
    "general": {
      "agent_name": {
        "original_name": "Agent Name",
        "value": "Ergosterol",
        "links": [],
        "cross_references": [
          {
            "type": "name_match",
            "text": "ergosterol",
            "confidence": 1.0,
            "uuid": "797b4dd1-0d7c-4c38-8863-7e94d860f0f4",
            "name": "Ergosterol",
            "url": "https://haz-map.com/Agents/14144",
            "category": "agents"
          }
        ]
      },
      "cas_number": {
        "original_name": "CAS Number",
        "value": "57-87-4",
        "links": [],
        "cross_references": []
      },
      "formula": {
        "original_name": "Formula",
        "value": "C28-H44-O",
        "links": [],
        "cross_references": []
      },
      "major_category": {
        "original_name": "Major Category",
        "value": "Biological Agents",
        "links": [],
        "cross_references": []
      },
      "synonyms": {
        "original_name": "Synonyms",
        "value": "24-Methylcholesta-5,7,22-trien-3beta-ol; 24R-Methylcholesta-5,7,2E-trien-3beta-ol; 24alpha-Methyl-22E-dehydrocholesterol; Ergosta-5,7,22-trien-3beta-ol; Ergosterin; Provitamin D2; Ergosta-5,7,22-trien-3-ol, (3beta,22E)-; [ChemIDplus]",
        "links": [],
        "cross_references": [
          {
            "type": "name_match",
            "text": "cholesterol",
            "confidence": 1.0,
            "uuid": "3e9e7ae0-82d3-48a0-b599-722a89aa7bfc",
            "name": "Cholesterol",
            "url": "https://haz-map.com/Agents/12966",
            "category": "agents"
          },
          {
            "type": "name_match",
            "text": "vitamin d",
            "confidence": 1.0,
            "uuid": "dcbd5499-e33c-46ac-aa83-8a4ca51183e3",
            "name": "Vitamin D",
            "url": "https://haz-map.com/Agents/18657",
            "category": "agents"
          },
          {
            "type": "name_match",
            "text": "vitamin d2",
            "confidence": 1.0,
            "uuid": "7da36cb7-b776-40f0-b5a7-598549db260d",
            "name": "Vitamin D2",
            "url": "https://haz-map.com/Agents/19047",
            "category": "agents"
          }
        ]
      },
      "category": {
        "original_name": "Category",
        "value": "Vitamins and Derivatives",
        "links": [],
        "cross_references": []
      },
      "description": {
        "original_name": "Description",
        "value": "Solid; Turns yellow on exposure to light and air; [Merck Index] Hygroscopic solid; [Sigma-Aldrich MSDS]",
        "links": [],
        "cross_references": [
          {
            "type": "name_match",
            "text": "ht",
            "confidence": 1.0,
            "uuid": "764df367-8d53-4a11-81a2-31ccfe122a8d",
            "name": "HT",
            "url": "https://haz-map.com/Agents/2168",
            "category": "agents"
          }
        ]
      },
      "sourcesuses": {
        "original_name": "Sources/Uses",
        "value": "Most important provitamin D, usually obtained from yeast; Used as a vitamin; [Merck Index] Used as a vitamin and to make vitamin D2 and cortisone; [HSDB]",
        "links": [],
        "cross_references": [
          {
            "type": "name_match",
            "text": "vitamin d",
            "confidence": 1.0,
            "uuid": "dcbd5499-e33c-46ac-aa83-8a4ca51183e3",
            "name": "Vitamin D",
            "url": "https://haz-map.com/Agents/18657",
            "category": "agents"
          },
          {
            "type": "name_match",
            "text": "vitamin a",
            "confidence": 1.0,
            "uuid": "6153e6dc-c71a-4223-ba38-70dc39542046",
            "name": "Vitamin A",
            "url": "https://haz-map.com/Agents/19043",
            "category": "agents"
          },
          {
            "type": "name_match",
            "text": "vitamin d2",
            "confidence": 1.0,
            "uuid": "7da36cb7-b776-40f0-b5a7-598549db260d",
            "name": "Vitamin D2",
            "url": "https://haz-map.com/Agents/19047",
            "category": "agents"
          }
        ]
      },
      "comments": {
        "original_name": "Comments",
        "value": "May cause irritation; [Sigma-Aldrich MSDS] See \"Vitamin D.\"",
        "links": [],
        "cross_references": [
          {
            "type": "name_match",
            "text": "vitamin d",
            "confidence": 1.0,
            "uuid": "dcbd5499-e33c-46ac-aa83-8a4ca51183e3",
            "name": "Vitamin D",
            "url": "https://haz-map.com/Agents/18657",
            "category": "agents"
          }
        ]
      },
      "biomedical_references": {
        "original_name": "Biomedical References",
        "value": "Search PubMed",
        "links": [
          {
            "text": "Search PubMed",
            "url": "https://www.ncbi.nlm.nih.gov/pubmed?term=Ergosterol%20AND%20human%5Bmh%5D%20AND%20%28Occupational%20Diseases%20%5Bmh%5D%20OR%20Occupational%20Exposure%20%5Bmh%5D%29%20%20AND%20%28tox%5Bsb%5D%29&cmd=search"
          }
        ],
        "cross_references": []
      }
    },
    "exposure_assessment": {
      "vapor_pressure": {
        "original_name": "Vapor Pressure",
        "value": "1.04E-09 mm Hg",
        "links": [],
        "cross_references": []
      }
    },
    "diseases_processes_and_activities_linked_to_this_agent": {
      "other_information": {
        "original_name": "Other Information",
        "value": "No other related information on this agent was found.",
        "links": [],
        "cross_references": []
      }
    }
  },
  "cross_references": [
    {
      "type": "name_match",
      "text": "ht",
      "confidence": 1.0,
      "uuid": "764df367-8d53-4a11-81a2-31ccfe122a8d",
      "name": "HT",
      "url": "https://haz-map.com/Agents/2168",
      "category": "agents"
    },
    {
      "type": "name_match",
      "text": "cholesterol",
      "confidence": 1.0,
      "uuid": "3e9e7ae0-82d3-48a0-b599-722a89aa7bfc",
      "name": "Cholesterol",
      "url": "https://haz-map.com/Agents/12966",
      "category": "agents"
    },
    {
      "type": "name_match",
      "text": "ergosterol",
      "confidence": 1.0,
      "uuid": "797b4dd1-0d7c-4c38-8863-7e94d860f0f4",
      "name": "Ergosterol",
      "url": "https://haz-map.com/Agents/14144",
      "category": "agents"
    },
    {
      "type": "name_match",
      "text": "vitamin d",
      "confidence": 1.0,
      "uuid": "dcbd5499-e33c-46ac-aa83-8a4ca51183e3",
      "name": "Vitamin D",
      "url": "https://haz-map.com/Agents/18657",
      "category": "agents"
    },
    {
      "type": "name_match",
      "text": "vitamin a",
      "confidence": 1.0,
      "uuid": "6153e6dc-c71a-4223-ba38-70dc39542046",
      "name": "Vitamin A",
      "url": "https://haz-map.com/Agents/19043",
      "category": "agents"
    },
    {
      "type": "name_match",
      "text": "vitamin d2",
      "confidence": 1.0,
      "uuid": "7da36cb7-b776-40f0-b5a7-598549db260d",
      "name": "Vitamin D2",
      "url": "https://haz-map.com/Agents/19047",
      "category": "agents"
    }
  ],
  "all_links": [
    {
      "text": "Search PubMed",
      "url": "https://www.ncbi.nlm.nih.gov/pubmed?term=Ergosterol%20AND%20human%5Bmh%5D%20AND%20%28Occupational%20Diseases%20%5Bmh%5D%20OR%20Occupational%20Exposure%20%5Bmh%5D%29%20%20AND%20%28tox%5Bsb%5D%29&cmd=search"
    }
  ]
}