{
  "metadata": {
    "scraped_from": "https://haz-map.com/Agents/17039",
    "entity_name": "Pyridoxal 5-phosphate",
    "category": "agents",
    "uuid": "7a799b71-1525-43fa-9a4f-1601b5c83415",
    "scraped_at": "2025-07-23T21:42:55.007843"
  },
  "parsed_at": "2025-07-24T01:08:48.897990",
  "title": "Pyridoxal 5-phosphate",
  "sections": {
    "general": {
      "agent_name": {
        "original_name": "Agent Name",
        "value": "Pyridoxal 5-phosphate",
        "links": [],
        "cross_references": [
          {
            "type": "name_match",
            "text": "pyridoxal",
            "confidence": 1.0,
            "uuid": "d5882a3b-2dcb-4b88-8f59-6d2507563cdb",
            "name": "Pyridoxal",
            "url": "https://haz-map.com/Agents/17038",
            "category": "agents"
          },
          {
            "type": "name_match",
            "text": "pyridoxal 5-phosphate",
            "confidence": 1.0,
            "uuid": "7a799b71-1525-43fa-9a4f-1601b5c83415",
            "name": "Pyridoxal 5-phosphate",
            "url": "https://haz-map.com/Agents/17039",
            "category": "agents"
          }
        ]
      },
      "cas_number": {
        "original_name": "CAS Number",
        "value": "54-47-7",
        "links": [],
        "cross_references": []
      },
      "formula": {
        "original_name": "Formula",
        "value": "C8-H10-N-O6-P",
        "links": [],
        "cross_references": []
      },
      "major_category": {
        "original_name": "Major Category",
        "value": "Biological Agents",
        "links": [],
        "cross_references": []
      },
      "synonyms": {
        "original_name": "Synonyms",
        "value": "3-Hydroxy-2-methyl-5-((phosphonooxy)methyl)-4-pyridinecarboxaldehyde; 4-Pyridinecarboxaldehyde, 3-hydroxy-2-methyl-5-((phosphonooxy)methyl)-; Apolon B(sub 6); Apolon B6; Biosechs; Codecarboxylase; Coenzyme B6; HI-Pyridoxin; Hairoxal; Hexermin P; Hiadelon; Himitan; PLP; Pal-P; Phosphopyridoxal; Phosphopyridoxal coenzyme; Pidopidon; Piodel; Pydoxal; Pyridoxal 5-phosphate; Pyridoxal P; Pyridoxal monophosphate; Pyridoxal phosphate; Pyridoxal-5'-phosphate; Pyridoxaldehyde phosphate; Pyridoxyl phosphate; Pyromijin; Sechvitan; Vitahexin P; Vitazechs; Pyridoxal 5'-(dihydrogen phosphate); [ChemIDplus] Pyridoxal 5-monophosphoric acid ester; 3-Hydroxy-5-(hydroxymethyl)-2-methylisonicotinaldehyde 5-phosphate; [Merck Index]",
        "links": [],
        "cross_references": [
          {
            "type": "name_match",
            "text": "phosphoric acid",
            "confidence": 1.0,
            "uuid": "9049e74c-22b3-4fb1-8e7f-53f17c0ec74a",
            "name": "Phosphoric acid",
            "url": "https://haz-map.com/Agents/595",
            "category": "agents"
          },
          {
            "type": "name_match",
            "text": "pyridine",
            "confidence": 1.0,
            "uuid": "a2d916a4-844b-4df6-9be5-868b2b364d71",
            "name": "Pyridine",
            "url": "https://haz-map.com/Agents/616",
            "category": "agents"
          },
          {
            "type": "name_match",
            "text": "hydrogen",
            "confidence": 1.0,
            "uuid": "e2d9645f-5559-4d88-b820-fc4710c154f2",
            "name": "Hydrogen",
            "url": "https://haz-map.com/Agents/1070",
            "category": "agents"
          },
          {
            "type": "name_match",
            "text": "pyridoxal",
            "confidence": 1.0,
            "uuid": "d5882a3b-2dcb-4b88-8f59-6d2507563cdb",
            "name": "Pyridoxal",
            "url": "https://haz-map.com/Agents/17038",
            "category": "agents"
          },
          {
            "type": "name_match",
            "text": "pyridoxal 5-phosphate",
            "confidence": 1.0,
            "uuid": "7a799b71-1525-43fa-9a4f-1601b5c83415",
            "name": "Pyridoxal 5-phosphate",
            "url": "https://haz-map.com/Agents/17039",
            "category": "agents"
          },
          {
            "type": "name_match",
            "text": "4-pyridinecarboxaldehyde",
            "confidence": 1.0,
            "uuid": "3861a409-d375-4fe6-988f-65c1a26e25e9",
            "name": "4-Pyridinecarboxaldehyde",
            "url": "https://haz-map.com/Agents/20088",
            "category": "agents"
          }
        ]
      },
      "category": {
        "original_name": "Category",
        "value": "Vitamins and Derivatives",
        "links": [],
        "cross_references": []
      },
      "description": {
        "original_name": "Description",
        "value": "Light yellow powder; [Acros Organics MSDS]",
        "links": [],
        "cross_references": [
          {
            "type": "name_match",
            "text": "ht",
            "confidence": 1.0,
            "uuid": "764df367-8d53-4a11-81a2-31ccfe122a8d",
            "name": "HT",
            "url": "https://haz-map.com/Agents/2168",
            "category": "agents"
          }
        ]
      },
      "sourcesuses": {
        "original_name": "Sources/Uses",
        "value": "Used as a vitamin (enzyme cofactor); [Merck Index] The active form of vitamin B6; [ChemIDplus]",
        "links": [],
        "cross_references": []
      },
      "comments": {
        "original_name": "Comments",
        "value": "May cause irritation; [Acros Organics MSDS] See \"Pyridoxine hydrochloride.\"",
        "links": [],
        "cross_references": [
          {
            "type": "name_match",
            "text": "pyridoxine",
            "confidence": 1.0,
            "uuid": "d18fa8ac-e5f3-461f-af5f-8f90de5fe52d",
            "name": "Pyridoxine",
            "url": "https://haz-map.com/Agents/17041",
            "category": "agents"
          },
          {
            "type": "name_match",
            "text": "pyridoxine hydrochloride",
            "confidence": 1.0,
            "uuid": "e4c2df4f-32d1-4bb8-9d9b-da4b4483359a",
            "name": "Pyridoxine hydrochloride",
            "url": "https://haz-map.com/Agents/17042",
            "category": "agents"
          }
        ]
      },
      "biomedical_references": {
        "original_name": "Biomedical References",
        "value": "Search PubMed",
        "links": [
          {
            "text": "Search PubMed",
            "url": "https://www.ncbi.nlm.nih.gov/pubmed?term=Pyridoxal+5-phosphate%20AND%20human%5Bmh%5D%20AND%20%28Occupational%20Diseases%20%5Bmh%5D%20OR%20Occupational%20Exposure%20%5Bmh%5D%29%20%20AND%20%28tox%5Bsb%5D%29&cmd=search"
          }
        ],
        "cross_references": []
      }
    },
    "exposure_assessment": {
      "vapor_pressure": {
        "original_name": "Vapor Pressure",
        "value": "3.28E-10 mm Hg",
        "links": [],
        "cross_references": []
      }
    },
    "diseases_processes_and_activities_linked_to_this_agent": {
      "other_information": {
        "original_name": "Other Information",
        "value": "No other related information on this agent was found.",
        "links": [],
        "cross_references": []
      }
    }
  },
  "cross_references": [
    {
      "type": "name_match",
      "text": "phosphoric acid",
      "confidence": 1.0,
      "uuid": "9049e74c-22b3-4fb1-8e7f-53f17c0ec74a",
      "name": "Phosphoric acid",
      "url": "https://haz-map.com/Agents/595",
      "category": "agents"
    },
    {
      "type": "name_match",
      "text": "pyridine",
      "confidence": 1.0,
      "uuid": "a2d916a4-844b-4df6-9be5-868b2b364d71",
      "name": "Pyridine",
      "url": "https://haz-map.com/Agents/616",
      "category": "agents"
    },
    {
      "type": "name_match",
      "text": "hydrogen",
      "confidence": 1.0,
      "uuid": "e2d9645f-5559-4d88-b820-fc4710c154f2",
      "name": "Hydrogen",
      "url": "https://haz-map.com/Agents/1070",
      "category": "agents"
    },
    {
      "type": "name_match",
      "text": "ht",
      "confidence": 1.0,
      "uuid": "764df367-8d53-4a11-81a2-31ccfe122a8d",
      "name": "HT",
      "url": "https://haz-map.com/Agents/2168",
      "category": "agents"
    },
    {
      "type": "name_match",
      "text": "pyridoxal",
      "confidence": 1.0,
      "uuid": "d5882a3b-2dcb-4b88-8f59-6d2507563cdb",
      "name": "Pyridoxal",
      "url": "https://haz-map.com/Agents/17038",
      "category": "agents"
    },
    {
      "type": "name_match",
      "text": "pyridoxal 5-phosphate",
      "confidence": 1.0,
      "uuid": "7a799b71-1525-43fa-9a4f-1601b5c83415",
      "name": "Pyridoxal 5-phosphate",
      "url": "https://haz-map.com/Agents/17039",
      "category": "agents"
    },
    {
      "type": "name_match",
      "text": "pyridoxine",
      "confidence": 1.0,
      "uuid": "d18fa8ac-e5f3-461f-af5f-8f90de5fe52d",
      "name": "Pyridoxine",
      "url": "https://haz-map.com/Agents/17041",
      "category": "agents"
    },
    {
      "type": "name_match",
      "text": "pyridoxine hydrochloride",
      "confidence": 1.0,
      "uuid": "e4c2df4f-32d1-4bb8-9d9b-da4b4483359a",
      "name": "Pyridoxine hydrochloride",
      "url": "https://haz-map.com/Agents/17042",
      "category": "agents"
    },
    {
      "type": "name_match",
      "text": "4-pyridinecarboxaldehyde",
      "confidence": 1.0,
      "uuid": "3861a409-d375-4fe6-988f-65c1a26e25e9",
      "name": "4-Pyridinecarboxaldehyde",
      "url": "https://haz-map.com/Agents/20088",
      "category": "agents"
    }
  ],
  "all_links": [
    {
      "text": "Search PubMed",
      "url": "https://www.ncbi.nlm.nih.gov/pubmed?term=Pyridoxal+5-phosphate%20AND%20human%5Bmh%5D%20AND%20%28Occupational%20Diseases%20%5Bmh%5D%20OR%20Occupational%20Exposure%20%5Bmh%5D%29%20%20AND%20%28tox%5Bsb%5D%29&cmd=search"
    }
  ]
}