{
  "metadata": {
    "scraped_from": "https://haz-map.com/Agents/19669",
    "entity_name": "2-Oxindole",
    "category": "agents",
    "uuid": "7a9a879e-11f3-45e9-aeb0-9666929a1157",
    "scraped_at": "2025-07-23T22:10:38.511501"
  },
  "parsed_at": "2025-07-24T01:08:10.434488",
  "title": "2-Oxindole",
  "sections": {
    "general": {
      "agent_name": {
        "original_name": "Agent Name",
        "value": "2-Oxindole",
        "links": [],
        "cross_references": [
          {
            "type": "name_match",
            "text": "indole",
            "confidence": 1.0,
            "uuid": "9c93731a-de8c-47f7-94f9-bfba35edd847",
            "name": "Indole",
            "url": "https://haz-map.com/Agents/5628",
            "category": "agents"
          },
          {
            "type": "name_match",
            "text": "2-oxindole",
            "confidence": 1.0,
            "uuid": "7a9a879e-11f3-45e9-aeb0-9666929a1157",
            "name": "2-Oxindole",
            "url": "https://haz-map.com/Agents/19669",
            "category": "agents"
          }
        ]
      },
      "cas_number": {
        "original_name": "CAS Number",
        "value": "59-48-3",
        "links": [],
        "cross_references": []
      },
      "formula": {
        "original_name": "Formula",
        "value": "C8-H7-N-O",
        "links": [],
        "cross_references": []
      },
      "major_category": {
        "original_name": "Major Category",
        "value": "Nitrogen Compounds",
        "links": [],
        "cross_references": [
          {
            "type": "name_match",
            "text": "nitrogen",
            "confidence": 1.0,
            "uuid": "db5e90a9-06d2-45b9-8b81-f345a89b0bc0",
            "name": "Nitrogen",
            "url": "https://haz-map.com/Agents/1072",
            "category": "agents"
          }
        ]
      },
      "synonyms": {
        "original_name": "Synonyms",
        "value": "1,3-Dihydro-2H-indol-2-one; 1,3-Dihydroindol-2-one; 2-Oxindoline; 2-Oxoindoline; Indol-2(3H)-one; Oxindol; Oxindole; 2-Indolinone; 2H-Indol-2-one, 1,3-dihydro-; [ChemIDplus]",
        "links": [],
        "cross_references": [
          {
            "type": "name_match",
            "text": "indole",
            "confidence": 1.0,
            "uuid": "9c93731a-de8c-47f7-94f9-bfba35edd847",
            "name": "Indole",
            "url": "https://haz-map.com/Agents/5628",
            "category": "agents"
          },
          {
            "type": "name_match",
            "text": "indoline",
            "confidence": 1.0,
            "uuid": "27dcc4a6-aaa5-4eea-a7c0-89f290b9659c",
            "name": "Indoline",
            "url": "https://haz-map.com/Agents/14881",
            "category": "agents"
          }
        ]
      },
      "category": {
        "original_name": "Category",
        "value": "Indoles",
        "links": [],
        "cross_references": [
          {
            "type": "name_match",
            "text": "indole",
            "confidence": 1.0,
            "uuid": "9c93731a-de8c-47f7-94f9-bfba35edd847",
            "name": "Indole",
            "url": "https://haz-map.com/Agents/5628",
            "category": "agents"
          }
        ]
      },
      "description": {
        "original_name": "Description",
        "value": "White to brown powder; [Alfa Aesar MSDS]",
        "links": [],
        "cross_references": []
      },
      "comments": {
        "original_name": "Comments",
        "value": "Causes flaccid paralysis without anesthesia (usually neuromuscular blockage), changes in motor activity, and ataxia in oral and intraperitoneal lethal-dose studies of mice; [RTECS] May cause irritation; Harmful by ingestion; [Alfa Aesar MSDS] See \"Indole.\"",
        "links": [],
        "cross_references": [
          {
            "type": "name_match",
            "text": "indole",
            "confidence": 1.0,
            "uuid": "9c93731a-de8c-47f7-94f9-bfba35edd847",
            "name": "Indole",
            "url": "https://haz-map.com/Agents/5628",
            "category": "agents"
          }
        ]
      },
      "biomedical_references": {
        "original_name": "Biomedical References",
        "value": "Search PubMed",
        "links": [
          {
            "text": "Search PubMed",
            "url": "https://www.ncbi.nlm.nih.gov/pubmed?term=2-Oxindole%20AND%20human%5Bmh%5D%20AND%20%28Occupational%20Diseases%20%5Bmh%5D%20OR%20Occupational%20Exposure%20%5Bmh%5D%29%20%20AND%20%28tox%5Bsb%5D%29&cmd=search"
          }
        ],
        "cross_references": []
      }
    },
    "exposure_assessment": {
      "vapor_pressure": {
        "original_name": "Vapor Pressure",
        "value": "0.000132 mm Hg",
        "links": [],
        "cross_references": []
      }
    },
    "diseases_processes_and_activities_linked_to_this_agent": {
      "other_information": {
        "original_name": "Other Information",
        "value": "No other related information on this agent was found.",
        "links": [],
        "cross_references": []
      }
    }
  },
  "cross_references": [
    {
      "type": "name_match",
      "text": "nitrogen",
      "confidence": 1.0,
      "uuid": "db5e90a9-06d2-45b9-8b81-f345a89b0bc0",
      "name": "Nitrogen",
      "url": "https://haz-map.com/Agents/1072",
      "category": "agents"
    },
    {
      "type": "name_match",
      "text": "indole",
      "confidence": 1.0,
      "uuid": "9c93731a-de8c-47f7-94f9-bfba35edd847",
      "name": "Indole",
      "url": "https://haz-map.com/Agents/5628",
      "category": "agents"
    },
    {
      "type": "name_match",
      "text": "indoline",
      "confidence": 1.0,
      "uuid": "27dcc4a6-aaa5-4eea-a7c0-89f290b9659c",
      "name": "Indoline",
      "url": "https://haz-map.com/Agents/14881",
      "category": "agents"
    },
    {
      "type": "name_match",
      "text": "2-oxindole",
      "confidence": 1.0,
      "uuid": "7a9a879e-11f3-45e9-aeb0-9666929a1157",
      "name": "2-Oxindole",
      "url": "https://haz-map.com/Agents/19669",
      "category": "agents"
    }
  ],
  "all_links": [
    {
      "text": "Search PubMed",
      "url": "https://www.ncbi.nlm.nih.gov/pubmed?term=2-Oxindole%20AND%20human%5Bmh%5D%20AND%20%28Occupational%20Diseases%20%5Bmh%5D%20OR%20Occupational%20Exposure%20%5Bmh%5D%29%20%20AND%20%28tox%5Bsb%5D%29&cmd=search"
    }
  ]
}