{
  "metadata": {
    "scraped_from": "https://haz-map.com/Agents/9691",
    "entity_name": "Ammonium bisulfide",
    "category": "agents",
    "uuid": "7ab7b630-9f7b-4896-af78-538ea85322c1",
    "scraped_at": "2025-07-23T20:41:23.760656"
  },
  "parsed_at": "2025-07-24T01:18:42.906885",
  "title": "Ammonium bisulfide",
  "sections": {
    "general": {
      "agent_name": {
        "original_name": "Agent Name",
        "value": "Ammonium bisulfide",
        "links": [],
        "cross_references": [
          {
            "type": "name_match",
            "text": "ammonium bisulfide",
            "confidence": 1.0,
            "uuid": "7ab7b630-9f7b-4896-af78-538ea85322c1",
            "name": "Ammonium bisulfide",
            "url": "https://haz-map.com/Agents/9691",
            "category": "agents"
          }
        ]
      },
      "cas_number": {
        "original_name": "CAS Number",
        "value": "12124-99-1",
        "links": [],
        "cross_references": []
      },
      "formula": {
        "original_name": "Formula",
        "value": "H4-N.H-S",
        "links": [],
        "cross_references": []
      },
      "major_category": {
        "original_name": "Major Category",
        "value": "Other Classes",
        "links": [],
        "cross_references": []
      },
      "synonyms": {
        "original_name": "Synonyms",
        "value": "Ammonium hydrogen sulfide; Ammonium hydrosulfide; Ammonium mercaptan; Ammonium sulfhydrate; Ammonium sulfide; Monoammonium sulfide; Sirnik amonny [Czech]; Ammonium hydrogensulphide; [ChemIDplus] UN2683",
        "links": [],
        "cross_references": [
          {
            "type": "name_match",
            "text": "hydrogen sulfide",
            "confidence": 1.0,
            "uuid": "f19cb2ec-fb76-4caf-bf11-33b23fef9ae6",
            "name": "Hydrogen sulfide",
            "url": "https://haz-map.com/Agents/22",
            "category": "agents"
          },
          {
            "type": "name_match",
            "text": "captan",
            "confidence": 1.0,
            "uuid": "19bf918c-9caa-4481-999a-002bb3395f5a",
            "name": "Captan",
            "url": "https://haz-map.com/Agents/341",
            "category": "agents"
          },
          {
            "type": "name_match",
            "text": "hydrogen",
            "confidence": 1.0,
            "uuid": "e2d9645f-5559-4d88-b820-fc4710c154f2",
            "name": "Hydrogen",
            "url": "https://haz-map.com/Agents/1070",
            "category": "agents"
          },
          {
            "type": "name_match",
            "text": "ammonium sulfide",
            "confidence": 1.0,
            "uuid": "0af75147-f9dd-416a-9c70-678dc68d9a5c",
            "name": "Ammonium sulfide",
            "url": "https://haz-map.com/Agents/4718",
            "category": "agents"
          }
        ]
      },
      "category": {
        "original_name": "Category",
        "value": "Sulfur Compounds",
        "links": [],
        "cross_references": [
          {
            "type": "name_match",
            "text": "sulfur",
            "confidence": 1.0,
            "uuid": "5aabdef6-71c8-44c8-b762-feaabff50696",
            "name": "Sulfur",
            "url": "https://haz-map.com/Agents/1942",
            "category": "agents"
          }
        ]
      },
      "description": {
        "original_name": "Description",
        "value": "White to yellow hygroscopic solid; [ICSC] Decomposes when moisture or >0 deg C; [Hawley] Technical grade is 40-44% and kept basic with sodium hydroxide; [CAMEO] Solution has strong odor of rotten eggs and ammonia; [CHRIS]",
        "links": [],
        "cross_references": [
          {
            "type": "name_match",
            "text": "ammonia",
            "confidence": 1.0,
            "uuid": "4a9ab845-a2cc-47e0-ab5c-e53693380800",
            "name": "Ammonia",
            "url": "https://haz-map.com/Agents/291",
            "category": "agents"
          },
          {
            "type": "name_match",
            "text": "sodium hydroxide",
            "confidence": 1.0,
            "uuid": "4fb9e995-e7f4-47d6-9017-957326f69493",
            "name": "Sodium hydroxide",
            "url": "https://haz-map.com/Agents/628",
            "category": "agents"
          },
          {
            "type": "name_match",
            "text": "sodium",
            "confidence": 1.0,
            "uuid": "1adffc42-a4d8-44d5-81d6-7dbd96ef8a6f",
            "name": "Sodium",
            "url": "https://haz-map.com/Agents/1527",
            "category": "agents"
          }
        ]
      },
      "sourcesuses": {
        "original_name": "Sources/Uses",
        "value": "Used in lubricants; [Merck Index] Used in photography, textiles, synthetic flavors, for coloring brasses and bronzes, and for iron control (soda ash production); [CAMEO]",
        "links": [],
        "cross_references": [
          {
            "type": "name_match",
            "text": "ash",
            "confidence": 1.0,
            "uuid": "68b360f1-5ad0-4337-bea0-d7adca2961b5",
            "name": "Ash",
            "url": "https://haz-map.com/Agents/965",
            "category": "agents"
          },
          {
            "type": "name_match",
            "text": "iron",
            "confidence": 1.0,
            "uuid": "a6101f16-ec31-4d6c-af41-cbdbda5b1c7c",
            "name": "Iron",
            "url": "https://haz-map.com/Agents/1993",
            "category": "agents"
          }
        ]
      },
      "comments": {
        "original_name": "Comments",
        "value": "Crystals decompose at room temperature forming hydrogen sulfide (may be fatal) and ammonia; A severe skin irritant; [Merck Index] A severe skin, eye, and respiratory tract irritant; Can be absorbed through skin; [ICSC] Produces hydrogen sulfide on mixing with water; A reducing agent; [CAMEO] Aqueous solution: Causes severe eye burns and severe skin irritation; Inhalation of 500 ppm for 30 minutes causes headache, dizziness, and bronchial pneumonia; 600 ppm for 30 minutes can be fatal; Can be absorbed through skin resulting in hydrogen sulfide poisoning; [CHRIS] Causes mydriasis, dyspnea, and respiratory stimulation in lethal-dose animal studies (dermal, intraperitoneal, intravenous, and oral routes); [RTECS] See \"Hydrogen sulfide.\"",
        "links": [],
        "cross_references": [
          {
            "type": "name_match",
            "text": "dizziness",
            "confidence": 1.0,
            "uuid": "4b0e6043-b228-49de-996c-b42ec8b3780e",
            "name": "dizziness",
            "url": "https://haz-map.com/Findings/16",
            "category": "findings"
          },
          {
            "type": "name_match",
            "text": "headache",
            "confidence": 1.0,
            "uuid": "a474a38d-66ac-44da-92de-de1c781a30e7",
            "name": "headache",
            "url": "https://haz-map.com/Findings/17",
            "category": "findings"
          },
          {
            "type": "name_match",
            "text": "burn",
            "confidence": 1.0,
            "uuid": "63665de5-6376-4918-8dbf-4c10c4d63837",
            "name": "burn",
            "url": "https://haz-map.com/Findings/204",
            "category": "findings"
          },
          {
            "type": "name_match",
            "text": "hydrogen sulfide",
            "confidence": 1.0,
            "uuid": "f19cb2ec-fb76-4caf-bf11-33b23fef9ae6",
            "name": "Hydrogen sulfide",
            "url": "https://haz-map.com/Agents/22",
            "category": "agents"
          },
          {
            "type": "name_match",
            "text": "ammonia",
            "confidence": 1.0,
            "uuid": "4a9ab845-a2cc-47e0-ab5c-e53693380800",
            "name": "Ammonia",
            "url": "https://haz-map.com/Agents/291",
            "category": "agents"
          },
          {
            "type": "name_match",
            "text": "hydrogen",
            "confidence": 1.0,
            "uuid": "e2d9645f-5559-4d88-b820-fc4710c154f2",
            "name": "Hydrogen",
            "url": "https://haz-map.com/Agents/1070",
            "category": "agents"
          },
          {
            "type": "name_match",
            "text": "water",
            "confidence": 1.0,
            "uuid": "6f2a7557-dfd2-49bc-9b4b-a93cd8e225d4",
            "name": "Water",
            "url": "https://haz-map.com/Agents/18668",
            "category": "agents"
          }
        ]
      },
      "biomedical_references": {
        "original_name": "Biomedical References",
        "value": "Search PubMed",
        "links": [
          {
            "text": "Search PubMed",
            "url": "https://www.ncbi.nlm.nih.gov/pubmed?term=Ammonium+bisulfide%20AND%20human%5Bmh%5D%20AND%20%28Occupational%20Diseases%20%5Bmh%5D%20OR%20Occupational%20Exposure%20%5Bmh%5D%29%20%20AND%20%28tox%5Bsb%5D%29&cmd=search"
          }
        ],
        "cross_references": []
      }
    },
    "exposure_assessment": {
      "vapor_pressure": {
        "original_name": "Vapor Pressure",
        "value": "390 mm Hg",
        "links": [],
        "cross_references": []
      },
      "explanatory_notes": {
        "original_name": "Explanatory Notes",
        "value": "The Guide in the Emergency Response Guidebook is for \"Ammonium sulfide, solution.\"",
        "links": [],
        "cross_references": [
          {
            "type": "name_match",
            "text": "ammonium sulfide",
            "confidence": 1.0,
            "uuid": "0af75147-f9dd-416a-9c70-678dc68d9a5c",
            "name": "Ammonium sulfide",
            "url": "https://haz-map.com/Agents/4718",
            "category": "agents"
          }
        ]
      }
    },
    "adverse_effects": {
      "dermatotoxin": {
        "original_name": "Dermatotoxin",
        "value": "Skin burns",
        "links": [],
        "cross_references": [
          {
            "type": "name_match",
            "text": "burn",
            "confidence": 1.0,
            "uuid": "63665de5-6376-4918-8dbf-4c10c4d63837",
            "name": "burn",
            "url": "https://haz-map.com/Findings/204",
            "category": "findings"
          }
        ]
      },
      "other_poison": {
        "original_name": "Other Poison",
        "value": "Chemical Asphyxiant",
        "links": [],
        "cross_references": [
          {
            "type": "name_match",
            "text": "mica",
            "confidence": 1.0,
            "uuid": "433f26f1-c399-4596-b179-ce3843cfd465",
            "name": "Mica",
            "url": "https://haz-map.com/Agents/621",
            "category": "agents"
          }
        ]
      }
    },
    "diseases_processes_and_activities_linked_to_this_agent": {
      "diseases": {
        "original_name": "Diseases",
        "value": "Occupational diseases associated with exposure to this agent: Asphyxiation, chemical",
        "links": [
          {
            "text": "Asphyxiation, chemical",
            "url": "https://haz-map.com/Diseases/351"
          }
        ],
        "cross_references": [
          {
            "type": "url_match",
            "text": "Asphyxiation, chemical",
            "url": "https://haz-map.com/Diseases/351",
            "confidence": 1.0,
            "uuid": "78d8c6de-b137-4149-8098-0b7e8b092753",
            "name": "Asphyxiation, chemical",
            "category": "diseases"
          },
          {
            "type": "name_match",
            "text": "mica",
            "confidence": 1.0,
            "uuid": "433f26f1-c399-4596-b179-ce3843cfd465",
            "name": "Mica",
            "url": "https://haz-map.com/Agents/621",
            "category": "agents"
          }
        ]
      },
      "processes": {
        "original_name": "Processes",
        "value": "Industrial Processes with risk of exposure: Photographic Processing Textiles (Printing, Dyeing, or Finishing)",
        "links": [
          {
            "text": "Photographic Processing",
            "url": "https://haz-map.com/Processes/231"
          },
          {
            "text": "Textiles (Printing, Dyeing, or Finishing)",
            "url": "https://haz-map.com/Processes/235"
          }
        ],
        "cross_references": []
      },
      "activities": {
        "original_name": "Activities",
        "value": "Activities with risk of exposure: Applying metallic patinas",
        "links": [
          {
            "text": "Applying metallic patinas",
            "url": "https://haz-map.com/Activities/65"
          }
        ],
        "cross_references": []
      }
    }
  },
  "cross_references": [
    {
      "type": "url_match",
      "text": "Asphyxiation, chemical",
      "url": "https://haz-map.com/Diseases/351",
      "confidence": 1.0,
      "uuid": "78d8c6de-b137-4149-8098-0b7e8b092753",
      "name": "Asphyxiation, chemical",
      "category": "diseases"
    },
    {
      "type": "name_match",
      "text": "dizziness",
      "confidence": 1.0,
      "uuid": "4b0e6043-b228-49de-996c-b42ec8b3780e",
      "name": "dizziness",
      "url": "https://haz-map.com/Findings/16",
      "category": "findings"
    },
    {
      "type": "name_match",
      "text": "headache",
      "confidence": 1.0,
      "uuid": "a474a38d-66ac-44da-92de-de1c781a30e7",
      "name": "headache",
      "url": "https://haz-map.com/Findings/17",
      "category": "findings"
    },
    {
      "type": "name_match",
      "text": "burn",
      "confidence": 1.0,
      "uuid": "63665de5-6376-4918-8dbf-4c10c4d63837",
      "name": "burn",
      "url": "https://haz-map.com/Findings/204",
      "category": "findings"
    },
    {
      "type": "name_match",
      "text": "hydrogen sulfide",
      "confidence": 1.0,
      "uuid": "f19cb2ec-fb76-4caf-bf11-33b23fef9ae6",
      "name": "Hydrogen sulfide",
      "url": "https://haz-map.com/Agents/22",
      "category": "agents"
    },
    {
      "type": "name_match",
      "text": "ammonia",
      "confidence": 1.0,
      "uuid": "4a9ab845-a2cc-47e0-ab5c-e53693380800",
      "name": "Ammonia",
      "url": "https://haz-map.com/Agents/291",
      "category": "agents"
    },
    {
      "type": "name_match",
      "text": "captan",
      "confidence": 1.0,
      "uuid": "19bf918c-9caa-4481-999a-002bb3395f5a",
      "name": "Captan",
      "url": "https://haz-map.com/Agents/341",
      "category": "agents"
    },
    {
      "type": "name_match",
      "text": "mica",
      "confidence": 1.0,
      "uuid": "433f26f1-c399-4596-b179-ce3843cfd465",
      "name": "Mica",
      "url": "https://haz-map.com/Agents/621",
      "category": "agents"
    },
    {
      "type": "name_match",
      "text": "sodium hydroxide",
      "confidence": 1.0,
      "uuid": "4fb9e995-e7f4-47d6-9017-957326f69493",
      "name": "Sodium hydroxide",
      "url": "https://haz-map.com/Agents/628",
      "category": "agents"
    },
    {
      "type": "name_match",
      "text": "ash",
      "confidence": 1.0,
      "uuid": "68b360f1-5ad0-4337-bea0-d7adca2961b5",
      "name": "Ash",
      "url": "https://haz-map.com/Agents/965",
      "category": "agents"
    },
    {
      "type": "name_match",
      "text": "hydrogen",
      "confidence": 1.0,
      "uuid": "e2d9645f-5559-4d88-b820-fc4710c154f2",
      "name": "Hydrogen",
      "url": "https://haz-map.com/Agents/1070",
      "category": "agents"
    },
    {
      "type": "name_match",
      "text": "sodium",
      "confidence": 1.0,
      "uuid": "1adffc42-a4d8-44d5-81d6-7dbd96ef8a6f",
      "name": "Sodium",
      "url": "https://haz-map.com/Agents/1527",
      "category": "agents"
    },
    {
      "type": "name_match",
      "text": "sulfur",
      "confidence": 1.0,
      "uuid": "5aabdef6-71c8-44c8-b762-feaabff50696",
      "name": "Sulfur",
      "url": "https://haz-map.com/Agents/1942",
      "category": "agents"
    },
    {
      "type": "name_match",
      "text": "iron",
      "confidence": 1.0,
      "uuid": "a6101f16-ec31-4d6c-af41-cbdbda5b1c7c",
      "name": "Iron",
      "url": "https://haz-map.com/Agents/1993",
      "category": "agents"
    },
    {
      "type": "name_match",
      "text": "ammonium sulfide",
      "confidence": 1.0,
      "uuid": "0af75147-f9dd-416a-9c70-678dc68d9a5c",
      "name": "Ammonium sulfide",
      "url": "https://haz-map.com/Agents/4718",
      "category": "agents"
    },
    {
      "type": "name_match",
      "text": "ammonium bisulfide",
      "confidence": 1.0,
      "uuid": "7ab7b630-9f7b-4896-af78-538ea85322c1",
      "name": "Ammonium bisulfide",
      "url": "https://haz-map.com/Agents/9691",
      "category": "agents"
    },
    {
      "type": "name_match",
      "text": "water",
      "confidence": 1.0,
      "uuid": "6f2a7557-dfd2-49bc-9b4b-a93cd8e225d4",
      "name": "Water",
      "url": "https://haz-map.com/Agents/18668",
      "category": "agents"
    }
  ],
  "all_links": [
    {
      "text": "Search PubMed",
      "url": "https://www.ncbi.nlm.nih.gov/pubmed?term=Ammonium+bisulfide%20AND%20human%5Bmh%5D%20AND%20%28Occupational%20Diseases%20%5Bmh%5D%20OR%20Occupational%20Exposure%20%5Bmh%5D%29%20%20AND%20%28tox%5Bsb%5D%29&cmd=search"
    },
    {
      "text": "Asphyxiation, chemical",
      "url": "https://haz-map.com/Diseases/351"
    },
    {
      "text": "Photographic Processing",
      "url": "https://haz-map.com/Processes/231"
    },
    {
      "text": "Textiles (Printing, Dyeing, or Finishing)",
      "url": "https://haz-map.com/Processes/235"
    },
    {
      "text": "Applying metallic patinas",
      "url": "https://haz-map.com/Activities/65"
    }
  ]
}