{
  "metadata": {
    "scraped_from": "https://haz-map.com/Agents/17115",
    "entity_name": "D-Ribose",
    "category": "agents",
    "uuid": "7aebfeb3-889f-4930-8a2e-6343a7550fe6",
    "scraped_at": "2025-07-23T21:43:47.643225"
  },
  "parsed_at": "2025-07-24T01:02:57.602725",
  "title": "D-Ribose",
  "sections": {
    "general": {
      "agent_name": {
        "original_name": "Agent Name",
        "value": "D-Ribose",
        "links": [],
        "cross_references": [
          {
            "type": "name_match",
            "text": "d-ribose",
            "confidence": 1.0,
            "uuid": "7aebfeb3-889f-4930-8a2e-6343a7550fe6",
            "name": "D-Ribose",
            "url": "https://haz-map.com/Agents/17115",
            "category": "agents"
          }
        ]
      },
      "cas_number": {
        "original_name": "CAS Number",
        "value": "50-69-1",
        "links": [],
        "cross_references": []
      },
      "formula": {
        "original_name": "Formula",
        "value": "C5-H10-O5",
        "links": [],
        "cross_references": []
      },
      "major_category": {
        "original_name": "Major Category",
        "value": "Biological Agents",
        "links": [],
        "cross_references": []
      },
      "synonyms": {
        "original_name": "Synonyms",
        "value": "Ribo-2,3,4,5-tetrahydroxyvaleraldehyde, D-; Ribose; Ribose, D-; [ChemIDplus] D-(-)-Ribose; [Sigma-Aldrich MSDS]",
        "links": [],
        "cross_references": []
      },
      "category": {
        "original_name": "Category",
        "value": "Monosaccharides and Derivatives",
        "links": [],
        "cross_references": []
      },
      "description": {
        "original_name": "Description",
        "value": "Solid; [Merck Index] White powder; [Sigma-Aldrich MSDS]",
        "links": [],
        "cross_references": []
      },
      "sourcesuses": {
        "original_name": "Sources/Uses",
        "value": "Used as a flavoring agent; [FDA]",
        "links": [],
        "cross_references": []
      },
      "comments": {
        "original_name": "Comments",
        "value": "May cause irritation; [Sigma-Aldrich MSDS]",
        "links": [],
        "cross_references": []
      },
      "biomedical_references": {
        "original_name": "Biomedical References",
        "value": "Search PubMed",
        "links": [
          {
            "text": "Search PubMed",
            "url": "https://www.ncbi.nlm.nih.gov/pubmed?term=D-Ribose%20AND%20human%5Bmh%5D%20AND%20%28Occupational%20Diseases%20%5Bmh%5D%20OR%20Occupational%20Exposure%20%5Bmh%5D%29%20%20AND%20%28tox%5Bsb%5D%29&cmd=search"
          }
        ],
        "cross_references": []
      }
    },
    "exposure_assessment": {
      "vapor_pressure": {
        "original_name": "Vapor Pressure",
        "value": "8.55E-07 mm Hg",
        "links": [],
        "cross_references": []
      }
    },
    "diseases_processes_and_activities_linked_to_this_agent": {
      "other_information": {
        "original_name": "Other Information",
        "value": "No other related information on this agent was found.",
        "links": [],
        "cross_references": []
      }
    }
  },
  "cross_references": [
    {
      "type": "name_match",
      "text": "d-ribose",
      "confidence": 1.0,
      "uuid": "7aebfeb3-889f-4930-8a2e-6343a7550fe6",
      "name": "D-Ribose",
      "url": "https://haz-map.com/Agents/17115",
      "category": "agents"
    }
  ],
  "all_links": [
    {
      "text": "Search PubMed",
      "url": "https://www.ncbi.nlm.nih.gov/pubmed?term=D-Ribose%20AND%20human%5Bmh%5D%20AND%20%28Occupational%20Diseases%20%5Bmh%5D%20OR%20Occupational%20Exposure%20%5Bmh%5D%29%20%20AND%20%28tox%5Bsb%5D%29&cmd=search"
    }
  ]
}