{
  "metadata": {
    "scraped_from": "https://haz-map.com/Agents/15084",
    "entity_name": "Aspartic acid",
    "category": "agents",
    "uuid": "7b12254f-ffdd-453d-82ba-a9d7ff06cc85",
    "scraped_at": "2025-07-23T21:27:57.852478"
  },
  "parsed_at": "2025-07-24T00:54:47.514559",
  "title": "Aspartic acid",
  "sections": {
    "general": {
      "agent_name": {
        "original_name": "Agent Name",
        "value": "Aspartic acid",
        "links": [],
        "cross_references": [
          {
            "type": "name_match",
            "text": "aspartic acid",
            "confidence": 1.0,
            "uuid": "7b12254f-ffdd-453d-82ba-a9d7ff06cc85",
            "name": "Aspartic acid",
            "url": "https://haz-map.com/Agents/15084",
            "category": "agents"
          }
        ]
      },
      "cas_number": {
        "original_name": "CAS Number",
        "value": "56-84-8",
        "links": [],
        "cross_references": []
      },
      "formula": {
        "original_name": "Formula",
        "value": "C4-H7-N-O4",
        "links": [],
        "cross_references": []
      },
      "major_category": {
        "original_name": "Major Category",
        "value": "Biological Agents",
        "links": [],
        "cross_references": []
      },
      "synonyms": {
        "original_name": "Synonyms",
        "value": "(2S)-Aspartic acid; (S)-Aminobutanedioic acid; (S)-Aspartic acid; Acide aspartique [INN-French]; Acido aspartico [INN-Spanish]; Acidum asparticum [INN-Latin]; Aminosuccinic acid; Asparagic acid (VAN); Asparaginic acid (VAN); Asparaginsaeure [German]; Aspartate; Aspartate, L-; Butanedioic acid, amino-, (S)-; H-Asp-OH; (+ )-Aminobernsteinsaeure; L-2-Aminobutanedioic acid; L-Aminosuccinic acid; L-Asparagic acid; L-Asparaginic acid; L-Asparaginsaeure; L-Asparaginsyra; L-Aspartic acid; L-Aspartinsaeure; Aspartic acid, L-; [ChemIDplus]",
        "links": [],
        "cross_references": [
          {
            "type": "name_match",
            "text": "succinic acid",
            "confidence": 1.0,
            "uuid": "e01347b0-231d-4c97-8f6d-724da7d58bfb",
            "name": "Succinic acid",
            "url": "https://haz-map.com/Agents/7229",
            "category": "agents"
          },
          {
            "type": "name_match",
            "text": "aspartic acid",
            "confidence": 1.0,
            "uuid": "7b12254f-ffdd-453d-82ba-a9d7ff06cc85",
            "name": "Aspartic acid",
            "url": "https://haz-map.com/Agents/15084",
            "category": "agents"
          }
        ]
      },
      "category": {
        "original_name": "Category",
        "value": "Amino Acids and Derivatives",
        "links": [],
        "cross_references": []
      },
      "description": {
        "original_name": "Description",
        "value": "Colorless solid; [ICSC] White powder; [Sigma-Aldrich MSDS]",
        "links": [],
        "cross_references": []
      },
      "sourcesuses": {
        "original_name": "Sources/Uses",
        "value": "A non-essential amino acid; [Merck Index] [REPROTOX] Used in biological and clinical studies, to make culture media, and in aspartame products (detergents, fungicides, germicides, and metal complexations); [HSDB] Used in chemical synthesis, cosmetics, food additives, and pharmaceuticals; [IUCLID] Used as a flavoring agent and nutritional supplement; [FDA]",
        "links": [],
        "cross_references": [
          {
            "type": "name_match",
            "text": "mica",
            "confidence": 1.0,
            "uuid": "433f26f1-c399-4596-b179-ce3843cfd465",
            "name": "Mica",
            "url": "https://haz-map.com/Agents/621",
            "category": "agents"
          },
          {
            "type": "name_match",
            "text": "fungicides",
            "confidence": 1.0,
            "uuid": "f4a9c1e1-4d57-4480-be97-d3590d38ce39",
            "name": "FUNGICIDES",
            "url": "https://haz-map.com/Agents/763",
            "category": "agents"
          },
          {
            "type": "name_match",
            "text": "pharmaceuticals",
            "confidence": 1.0,
            "uuid": "713c3c30-b67e-4a2f-a90f-b32f8a306332",
            "name": "PHARMACEUTICALS",
            "url": "https://haz-map.com/Agents/1000",
            "category": "agents"
          },
          {
            "type": "name_match",
            "text": "fungi",
            "confidence": 1.0,
            "uuid": "e0d489cb-bfee-4aee-b665-999c017268a2",
            "name": "Fungi",
            "url": "https://haz-map.com/Agents/1988",
            "category": "agents"
          },
          {
            "type": "name_match",
            "text": "aspartame",
            "confidence": 1.0,
            "uuid": "2e0b2946-5d6a-4bab-a558-268e73380c1c",
            "name": "Aspartame",
            "url": "https://haz-map.com/Agents/20264",
            "category": "agents"
          }
        ]
      },
      "comments": {
        "original_name": "Comments",
        "value": "Causes no skin and mild eye irritation in rabbits (classified by the EC as not irritating); Not a skin sensitizer in guinea pigs; [IUCLID] An eye and respiratory tract irritant; [ICSC] Safe when used as a flavoring agent in food; [JECFA] An irritant that may cause severe eye irritation; [Sigma-Aldrich MSDS]",
        "links": [],
        "cross_references": []
      },
      "biomedical_references": {
        "original_name": "Biomedical References",
        "value": "Search PubMed",
        "links": [
          {
            "text": "Search PubMed",
            "url": "https://www.ncbi.nlm.nih.gov/pubmed?term=Aspartic+acid%20AND%20human%5Bmh%5D%20AND%20%28Occupational%20Diseases%20%5Bmh%5D%20OR%20Occupational%20Exposure%20%5Bmh%5D%29%20%20AND%20%28tox%5Bsb%5D%29&cmd=search"
          }
        ],
        "cross_references": []
      }
    },
    "exposure_assessment": {
      "vapor_pressure": {
        "original_name": "Vapor Pressure",
        "value": "1.3E-06 mm Hg",
        "links": [],
        "cross_references": []
      }
    },
    "diseases_processes_and_activities_linked_to_this_agent": {
      "other_information": {
        "original_name": "Other Information",
        "value": "No other related information on this agent was found.",
        "links": [],
        "cross_references": []
      }
    }
  },
  "cross_references": [
    {
      "type": "name_match",
      "text": "mica",
      "confidence": 1.0,
      "uuid": "433f26f1-c399-4596-b179-ce3843cfd465",
      "name": "Mica",
      "url": "https://haz-map.com/Agents/621",
      "category": "agents"
    },
    {
      "type": "name_match",
      "text": "fungicides",
      "confidence": 1.0,
      "uuid": "f4a9c1e1-4d57-4480-be97-d3590d38ce39",
      "name": "FUNGICIDES",
      "url": "https://haz-map.com/Agents/763",
      "category": "agents"
    },
    {
      "type": "name_match",
      "text": "pharmaceuticals",
      "confidence": 1.0,
      "uuid": "713c3c30-b67e-4a2f-a90f-b32f8a306332",
      "name": "PHARMACEUTICALS",
      "url": "https://haz-map.com/Agents/1000",
      "category": "agents"
    },
    {
      "type": "name_match",
      "text": "fungi",
      "confidence": 1.0,
      "uuid": "e0d489cb-bfee-4aee-b665-999c017268a2",
      "name": "Fungi",
      "url": "https://haz-map.com/Agents/1988",
      "category": "agents"
    },
    {
      "type": "name_match",
      "text": "succinic acid",
      "confidence": 1.0,
      "uuid": "e01347b0-231d-4c97-8f6d-724da7d58bfb",
      "name": "Succinic acid",
      "url": "https://haz-map.com/Agents/7229",
      "category": "agents"
    },
    {
      "type": "name_match",
      "text": "aspartic acid",
      "confidence": 1.0,
      "uuid": "7b12254f-ffdd-453d-82ba-a9d7ff06cc85",
      "name": "Aspartic acid",
      "url": "https://haz-map.com/Agents/15084",
      "category": "agents"
    },
    {
      "type": "name_match",
      "text": "aspartame",
      "confidence": 1.0,
      "uuid": "2e0b2946-5d6a-4bab-a558-268e73380c1c",
      "name": "Aspartame",
      "url": "https://haz-map.com/Agents/20264",
      "category": "agents"
    }
  ],
  "all_links": [
    {
      "text": "Search PubMed",
      "url": "https://www.ncbi.nlm.nih.gov/pubmed?term=Aspartic+acid%20AND%20human%5Bmh%5D%20AND%20%28Occupational%20Diseases%20%5Bmh%5D%20OR%20Occupational%20Exposure%20%5Bmh%5D%29%20%20AND%20%28tox%5Bsb%5D%29&cmd=search"
    }
  ]
}