{
  "metadata": {
    "scraped_from": "https://haz-map.com/Agents/20085",
    "entity_name": "4-Phenylcyclohexanone",
    "category": "agents",
    "uuid": "7bf4d7a2-886e-4b8e-9125-7e77894e11ca",
    "scraped_at": "2025-07-23T22:18:45.734897"
  },
  "parsed_at": "2025-07-24T01:06:15.338169",
  "title": "4-Phenylcyclohexanone",
  "sections": {
    "general": {
      "agent_name": {
        "original_name": "Agent Name",
        "value": "4-Phenylcyclohexanone",
        "links": [],
        "cross_references": [
          {
            "type": "name_match",
            "text": "cyclohexanone",
            "confidence": 1.0,
            "uuid": "cadadacc-fd16-4dd4-9b2c-b1d70f77d75e",
            "name": "Cyclohexanone",
            "url": "https://haz-map.com/Agents/139",
            "category": "agents"
          },
          {
            "type": "name_match",
            "text": "4-phenylcyclohexanone",
            "confidence": 1.0,
            "uuid": "7bf4d7a2-886e-4b8e-9125-7e77894e11ca",
            "name": "4-Phenylcyclohexanone",
            "url": "https://haz-map.com/Agents/20085",
            "category": "agents"
          }
        ]
      },
      "cas_number": {
        "original_name": "CAS Number",
        "value": "4894-75-1",
        "links": [],
        "cross_references": []
      },
      "formula": {
        "original_name": "Formula",
        "value": "C12-H14-O",
        "links": [],
        "cross_references": []
      },
      "major_category": {
        "original_name": "Major Category",
        "value": "Other Classes",
        "links": [],
        "cross_references": []
      },
      "category": {
        "original_name": "Category",
        "value": "Aromatic Ketones",
        "links": [],
        "cross_references": []
      },
      "description": {
        "original_name": "Description",
        "value": "White or cream powder; [Alfa Aesar MSDS]",
        "links": [],
        "cross_references": []
      },
      "comments": {
        "original_name": "Comments",
        "value": "May cause irritation; [Alfa Aesar MSDS] See \"Cyclohexanone.\"",
        "links": [],
        "cross_references": [
          {
            "type": "name_match",
            "text": "cyclohexanone",
            "confidence": 1.0,
            "uuid": "cadadacc-fd16-4dd4-9b2c-b1d70f77d75e",
            "name": "Cyclohexanone",
            "url": "https://haz-map.com/Agents/139",
            "category": "agents"
          }
        ]
      },
      "biomedical_references": {
        "original_name": "Biomedical References",
        "value": "Search PubMed",
        "links": [
          {
            "text": "Search PubMed",
            "url": "https://www.ncbi.nlm.nih.gov/pubmed?term=4-Phenylcyclohexanone%20AND%20human%5Bmh%5D%20AND%20%28Occupational%20Diseases%20%5Bmh%5D%20OR%20Occupational%20Exposure%20%5Bmh%5D%29%20%20AND%20%28tox%5Bsb%5D%29&cmd=search"
          }
        ],
        "cross_references": []
      }
    },
    "exposure_assessment": {
      "vapor_pressure": {
        "original_name": "Vapor Pressure",
        "value": "0.00233 mm Hg",
        "links": [],
        "cross_references": []
      }
    },
    "diseases_processes_and_activities_linked_to_this_agent": {
      "other_information": {
        "original_name": "Other Information",
        "value": "No other related information on this agent was found.",
        "links": [],
        "cross_references": []
      }
    }
  },
  "cross_references": [
    {
      "type": "name_match",
      "text": "cyclohexanone",
      "confidence": 1.0,
      "uuid": "cadadacc-fd16-4dd4-9b2c-b1d70f77d75e",
      "name": "Cyclohexanone",
      "url": "https://haz-map.com/Agents/139",
      "category": "agents"
    },
    {
      "type": "name_match",
      "text": "4-phenylcyclohexanone",
      "confidence": 1.0,
      "uuid": "7bf4d7a2-886e-4b8e-9125-7e77894e11ca",
      "name": "4-Phenylcyclohexanone",
      "url": "https://haz-map.com/Agents/20085",
      "category": "agents"
    }
  ],
  "all_links": [
    {
      "text": "Search PubMed",
      "url": "https://www.ncbi.nlm.nih.gov/pubmed?term=4-Phenylcyclohexanone%20AND%20human%5Bmh%5D%20AND%20%28Occupational%20Diseases%20%5Bmh%5D%20OR%20Occupational%20Exposure%20%5Bmh%5D%29%20%20AND%20%28tox%5Bsb%5D%29&cmd=search"
    }
  ]
}