{
  "metadata": {
    "scraped_from": "https://haz-map.com/Agents/572",
    "entity_name": "Nitroglycerin",
    "category": "agents",
    "uuid": "7c074b58-8bb7-48fd-88b3-0a64bdafdebf",
    "scraped_at": "2025-07-23T18:44:39.074012"
  },
  "parsed_at": "2025-07-24T00:56:20.444010",
  "title": "Nitroglycerin",
  "sections": {
    "general": {
      "agent_name": {
        "original_name": "Agent Name",
        "value": "Nitroglycerin",
        "links": [],
        "cross_references": [
          {
            "type": "name_match",
            "text": "glycerin",
            "confidence": 1.0,
            "uuid": "28d55633-4d0d-446a-82c8-ed15a611f2bd",
            "name": "Glycerin",
            "url": "https://haz-map.com/Agents/501",
            "category": "agents"
          },
          {
            "type": "name_match",
            "text": "nitroglycerin",
            "confidence": 1.0,
            "uuid": "7c074b58-8bb7-48fd-88b3-0a64bdafdebf",
            "name": "Nitroglycerin",
            "url": "https://haz-map.com/Agents/572",
            "category": "agents"
          }
        ]
      },
      "cas_number": {
        "original_name": "CAS Number",
        "value": "55-63-0",
        "links": [],
        "cross_references": []
      },
      "formula": {
        "original_name": "Formula",
        "value": "C3-H5-N3-O9",
        "links": [],
        "cross_references": []
      },
      "major_category": {
        "original_name": "Major Category",
        "value": "Other Uses",
        "links": [],
        "cross_references": []
      },
      "synonyms": {
        "original_name": "Synonyms",
        "value": "Glyceryl trinitrate; NG; 1,2,3-Propanetriol trinitrate; Trinitroglycerin; [NIOSH]",
        "links": [],
        "cross_references": [
          {
            "type": "name_match",
            "text": "glycerin",
            "confidence": 1.0,
            "uuid": "28d55633-4d0d-446a-82c8-ed15a611f2bd",
            "name": "Glycerin",
            "url": "https://haz-map.com/Agents/501",
            "category": "agents"
          },
          {
            "type": "name_match",
            "text": "nitroglycerin",
            "confidence": 1.0,
            "uuid": "7c074b58-8bb7-48fd-88b3-0a64bdafdebf",
            "name": "Nitroglycerin",
            "url": "https://haz-map.com/Agents/572",
            "category": "agents"
          },
          {
            "type": "name_match",
            "text": "propane",
            "confidence": 1.0,
            "uuid": "563a611b-46ea-4bdc-b77b-17d8f7646283",
            "name": "Propane",
            "url": "https://haz-map.com/Agents/607",
            "category": "agents"
          }
        ]
      },
      "category": {
        "original_name": "Category",
        "value": "Explosives",
        "links": [],
        "cross_references": []
      },
      "description": {
        "original_name": "Description",
        "value": "Colorless to pale-yellow, viscous liquid or solid (below 56 degrees F). [Note: An explosive ingredient in dynamite (20-40%) with ethylene glycol dinitrate (80-60%).]; [NIOSH]",
        "links": [],
        "cross_references": [
          {
            "type": "name_match",
            "text": "ethylene glycol",
            "confidence": 1.0,
            "uuid": "99589035-d71c-415a-914c-81c7a166be11",
            "name": "Ethylene glycol",
            "url": "https://haz-map.com/Agents/488",
            "category": "agents"
          },
          {
            "type": "name_match",
            "text": "ethylene glycol dinitrate",
            "confidence": 1.0,
            "uuid": "d8c1bd98-5d0c-4802-a358-cc19d3f727fd",
            "name": "Ethylene glycol dinitrate",
            "url": "https://haz-map.com/Agents/489",
            "category": "agents"
          },
          {
            "type": "name_match",
            "text": "ethylene",
            "confidence": 1.0,
            "uuid": "958eacc0-5135-4b62-bb93-6df972bf552f",
            "name": "Ethylene",
            "url": "https://haz-map.com/Agents/1076",
            "category": "agents"
          }
        ]
      },
      "sourcesuses": {
        "original_name": "Sources/Uses",
        "value": "Used in the production of dynamite and other explosives, rocket fuel and pharmaceuticals; [HSDB]",
        "links": [],
        "cross_references": [
          {
            "type": "name_match",
            "text": "pharmaceuticals",
            "confidence": 1.0,
            "uuid": "713c3c30-b67e-4a2f-a90f-b32f8a306332",
            "name": "PHARMACEUTICALS",
            "url": "https://haz-map.com/Agents/1000",
            "category": "agents"
          }
        ]
      },
      "comments": {
        "original_name": "Comments",
        "value": "Allergic contact dermatitis reported in workers manufacturing explosives and pharmaceuticals; [Kanerva, p. 1820] Listed by ACGIH in a table of agents that may cause methemoglobinemia in the nonoccupational setting;",
        "links": [],
        "cross_references": [
          {
            "type": "name_match",
            "text": "dermatitis",
            "confidence": 1.0,
            "uuid": "fe9c05f2-b19f-4ceb-ac7a-ffb7d7a0cae0",
            "name": "dermatitis",
            "url": "https://haz-map.com/Findings/59",
            "category": "findings"
          },
          {
            "type": "name_match",
            "text": "pharmaceuticals",
            "confidence": 1.0,
            "uuid": "713c3c30-b67e-4a2f-a90f-b32f8a306332",
            "name": "PHARMACEUTICALS",
            "url": "https://haz-map.com/Agents/1000",
            "category": "agents"
          },
          {
            "type": "name_match",
            "text": "methemoglobin",
            "confidence": 1.0,
            "uuid": "afb7ebf5-d2a3-4e60-8d2e-3a19456344ee",
            "name": "Methemoglobin",
            "url": "https://haz-map.com/Agents/15467",
            "category": "agents"
          },
          {
            "type": "fuzzy_match",
            "text": "contact dermatitis",
            "matched_name": "Contact dermatitis, allergic",
            "confidence": 0.7214285714285715,
            "uuid": "c9499de0-9aa1-41bf-8753-cd5b28a63e29",
            "category": "diseases",
            "url": "https://haz-map.com/Diseases/18"
          },
          {
            "type": "fuzzy_match",
            "text": "methemoglobinemia",
            "matched_name": "Methemoglobinemia, acute",
            "confidence": 0.7208333333333333,
            "uuid": "473a44bd-cf11-4710-a769-e8e2b25ba317",
            "category": "diseases",
            "url": "https://haz-map.com/Diseases/210"
          }
        ]
      },
      "restricted": {
        "original_name": "Restricted",
        "value": "An OSHA Class A explosive (1910.109).",
        "links": [],
        "cross_references": []
      },
      "biomedical_references": {
        "original_name": "Biomedical References",
        "value": "Search PubMed",
        "links": [
          {
            "text": "Search PubMed",
            "url": "https://www.ncbi.nlm.nih.gov/pubmed?term=Nitroglycerin%20AND%20human%5Bmh%5D%20AND%20%28Occupational%20Diseases%20%5Bmh%5D%20OR%20Occupational%20Exposure%20%5Bmh%5D%29%20%20AND%20%28tox%5Bsb%5D%29&cmd=search"
          }
        ],
        "cross_references": []
      }
    },
    "exposure_assessment": {
      "skin_designation_acgih": {
        "original_name": "Skin Designation (ACGIH)",
        "value": "Yes",
        "links": [],
        "cross_references": []
      },
      "tlv_acgih": {
        "original_name": "TLV (ACGIH)",
        "value": "0.05 ppm",
        "links": [],
        "cross_references": []
      },
      "pel_osha": {
        "original_name": "PEL (OSHA)",
        "value": "Ceiling(OSHA) = 0.2 ppm",
        "links": [],
        "cross_references": []
      },
      "mak": {
        "original_name": "MAK",
        "value": "0.01 ppm (Value applies for the sum of the concentrations of Ethylene glycol dinitrate, Nitroglycerin and Propylene glycol dinitrate in the air.)",
        "links": [],
        "cross_references": [
          {
            "type": "name_match",
            "text": "ethylene glycol",
            "confidence": 1.0,
            "uuid": "99589035-d71c-415a-914c-81c7a166be11",
            "name": "Ethylene glycol",
            "url": "https://haz-map.com/Agents/488",
            "category": "agents"
          },
          {
            "type": "name_match",
            "text": "ethylene glycol dinitrate",
            "confidence": 1.0,
            "uuid": "d8c1bd98-5d0c-4802-a358-cc19d3f727fd",
            "name": "Ethylene glycol dinitrate",
            "url": "https://haz-map.com/Agents/489",
            "category": "agents"
          },
          {
            "type": "name_match",
            "text": "glycerin",
            "confidence": 1.0,
            "uuid": "28d55633-4d0d-446a-82c8-ed15a611f2bd",
            "name": "Glycerin",
            "url": "https://haz-map.com/Agents/501",
            "category": "agents"
          },
          {
            "type": "name_match",
            "text": "nitroglycerin",
            "confidence": 1.0,
            "uuid": "7c074b58-8bb7-48fd-88b3-0a64bdafdebf",
            "name": "Nitroglycerin",
            "url": "https://haz-map.com/Agents/572",
            "category": "agents"
          },
          {
            "type": "name_match",
            "text": "propylene glycol",
            "confidence": 1.0,
            "uuid": "6d7c61db-8aa2-442e-b6c7-8a0385ab77da",
            "name": "Propylene glycol",
            "url": "https://haz-map.com/Agents/685",
            "category": "agents"
          },
          {
            "type": "name_match",
            "text": "ethylene",
            "confidence": 1.0,
            "uuid": "958eacc0-5135-4b62-bb93-6df972bf552f",
            "name": "Ethylene",
            "url": "https://haz-map.com/Agents/1076",
            "category": "agents"
          },
          {
            "type": "name_match",
            "text": "propylene",
            "confidence": 1.0,
            "uuid": "78ac73a1-0029-4a50-b283-561134c72041",
            "name": "Propylene",
            "url": "https://haz-map.com/Agents/1078",
            "category": "agents"
          }
        ]
      },
      "idlh_niosh": {
        "original_name": "IDLH (NIOSH)",
        "value": "8 ppm",
        "links": [],
        "cross_references": []
      },
      "excerpts_from_documentation_for_idlhs": {
        "original_name": "Excerpts from Documentation for IDLHs",
        "value": "Human data: Headaches have developed in workers exposed to 0.4 to 0.67 mg/m3 for 25 minutes; all had decreases in blood pressure [Trainor and Jones 1966]. Ethylene glycol dinitrate and nitroglycerine are vasodilators and initial exposures result in headache, dizziness, nausea, or decreases in blood pressure; however, workers become tolerant of the vasodilatory activity after 2 to 4 days of exposure [NIOSH 1978]. It has been estimated that the lethal oral dose in humans is 200 mg although others have survived doses of 1,200 mg with no apparent ill effects [Rabinowitch 1944]. [Note: An oral dose of 200 mg is equivalent to a worker being exposed to about 150 mg/m3 for 30 minutes, assuming a breathing rate of 50 liters per minute and 100% absorption.]",
        "links": [],
        "cross_references": [
          {
            "type": "name_match",
            "text": "dizziness",
            "confidence": 1.0,
            "uuid": "4b0e6043-b228-49de-996c-b42ec8b3780e",
            "name": "dizziness",
            "url": "https://haz-map.com/Findings/16",
            "category": "findings"
          },
          {
            "type": "name_match",
            "text": "headache",
            "confidence": 1.0,
            "uuid": "a474a38d-66ac-44da-92de-de1c781a30e7",
            "name": "headache",
            "url": "https://haz-map.com/Findings/17",
            "category": "findings"
          },
          {
            "type": "name_match",
            "text": "ethylene glycol",
            "confidence": 1.0,
            "uuid": "99589035-d71c-415a-914c-81c7a166be11",
            "name": "Ethylene glycol",
            "url": "https://haz-map.com/Agents/488",
            "category": "agents"
          },
          {
            "type": "name_match",
            "text": "ethylene glycol dinitrate",
            "confidence": 1.0,
            "uuid": "d8c1bd98-5d0c-4802-a358-cc19d3f727fd",
            "name": "Ethylene glycol dinitrate",
            "url": "https://haz-map.com/Agents/489",
            "category": "agents"
          },
          {
            "type": "name_match",
            "text": "glycerin",
            "confidence": 1.0,
            "uuid": "28d55633-4d0d-446a-82c8-ed15a611f2bd",
            "name": "Glycerin",
            "url": "https://haz-map.com/Agents/501",
            "category": "agents"
          },
          {
            "type": "name_match",
            "text": "nitroglycerin",
            "confidence": 1.0,
            "uuid": "7c074b58-8bb7-48fd-88b3-0a64bdafdebf",
            "name": "Nitroglycerin",
            "url": "https://haz-map.com/Agents/572",
            "category": "agents"
          },
          {
            "type": "name_match",
            "text": "ethylene",
            "confidence": 1.0,
            "uuid": "958eacc0-5135-4b62-bb93-6df972bf552f",
            "name": "Ethylene",
            "url": "https://haz-map.com/Agents/1076",
            "category": "agents"
          }
        ]
      },
      "vapor_pressure": {
        "original_name": "Vapor Pressure",
        "value": "0.0003 mm Hg",
        "links": [],
        "cross_references": []
      },
      "explanatory_notes": {
        "original_name": "Explanatory Notes",
        "value": "The Guide from to the Emergency Response Guidebook is for \"Nitroglycerin, solution in alcohol, with not more than 5% Nitroglycerin.\" VP = 0.0002 @ 20 deg C; [HSDB]",
        "links": [],
        "cross_references": [
          {
            "type": "name_match",
            "text": "glycerin",
            "confidence": 1.0,
            "uuid": "28d55633-4d0d-446a-82c8-ed15a611f2bd",
            "name": "Glycerin",
            "url": "https://haz-map.com/Agents/501",
            "category": "agents"
          },
          {
            "type": "name_match",
            "text": "nitroglycerin",
            "confidence": 1.0,
            "uuid": "7c074b58-8bb7-48fd-88b3-0a64bdafdebf",
            "name": "Nitroglycerin",
            "url": "https://haz-map.com/Agents/572",
            "category": "agents"
          }
        ]
      },
      "nfpa": {
        "original_name": "NFPA",
        "value": "may ignite at ambient temp",
        "links": [],
        "cross_references": []
      }
    },
    "adverse_effects": {
      "skin_sensitizer": {
        "original_name": "Skin Sensitizer",
        "value": "Yes",
        "links": [],
        "cross_references": []
      },
      "methemoglobinemia": {
        "original_name": "Methemoglobinemia",
        "value": "MetHgb is secondary toxic effect",
        "links": [],
        "cross_references": []
      }
    },
    "diseases_processes_and_activities_linked_to_this_agent": {
      "diseases": {
        "original_name": "Diseases",
        "value": "Occupational diseases associated with exposure to this agent: Contact dermatitis, allergic",
        "links": [
          {
            "text": "Contact dermatitis, allergic",
            "url": "https://haz-map.com/Diseases/18"
          }
        ],
        "cross_references": [
          {
            "type": "url_match",
            "text": "Contact dermatitis, allergic",
            "url": "https://haz-map.com/Diseases/18",
            "confidence": 1.0,
            "uuid": "c9499de0-9aa1-41bf-8753-cd5b28a63e29",
            "name": "Contact dermatitis, allergic",
            "category": "diseases"
          },
          {
            "type": "name_match",
            "text": "dermatitis",
            "confidence": 1.0,
            "uuid": "fe9c05f2-b19f-4ceb-ac7a-ffb7d7a0cae0",
            "name": "dermatitis",
            "url": "https://haz-map.com/Findings/59",
            "category": "findings"
          }
        ]
      }
    }
  },
  "cross_references": [
    {
      "type": "url_match",
      "text": "Contact dermatitis, allergic",
      "url": "https://haz-map.com/Diseases/18",
      "confidence": 1.0,
      "uuid": "c9499de0-9aa1-41bf-8753-cd5b28a63e29",
      "name": "Contact dermatitis, allergic",
      "category": "diseases"
    },
    {
      "type": "name_match",
      "text": "dizziness",
      "confidence": 1.0,
      "uuid": "4b0e6043-b228-49de-996c-b42ec8b3780e",
      "name": "dizziness",
      "url": "https://haz-map.com/Findings/16",
      "category": "findings"
    },
    {
      "type": "name_match",
      "text": "headache",
      "confidence": 1.0,
      "uuid": "a474a38d-66ac-44da-92de-de1c781a30e7",
      "name": "headache",
      "url": "https://haz-map.com/Findings/17",
      "category": "findings"
    },
    {
      "type": "name_match",
      "text": "dermatitis",
      "confidence": 1.0,
      "uuid": "fe9c05f2-b19f-4ceb-ac7a-ffb7d7a0cae0",
      "name": "dermatitis",
      "url": "https://haz-map.com/Findings/59",
      "category": "findings"
    },
    {
      "type": "name_match",
      "text": "ethylene glycol",
      "confidence": 1.0,
      "uuid": "99589035-d71c-415a-914c-81c7a166be11",
      "name": "Ethylene glycol",
      "url": "https://haz-map.com/Agents/488",
      "category": "agents"
    },
    {
      "type": "name_match",
      "text": "ethylene glycol dinitrate",
      "confidence": 1.0,
      "uuid": "d8c1bd98-5d0c-4802-a358-cc19d3f727fd",
      "name": "Ethylene glycol dinitrate",
      "url": "https://haz-map.com/Agents/489",
      "category": "agents"
    },
    {
      "type": "name_match",
      "text": "glycerin",
      "confidence": 1.0,
      "uuid": "28d55633-4d0d-446a-82c8-ed15a611f2bd",
      "name": "Glycerin",
      "url": "https://haz-map.com/Agents/501",
      "category": "agents"
    },
    {
      "type": "name_match",
      "text": "nitroglycerin",
      "confidence": 1.0,
      "uuid": "7c074b58-8bb7-48fd-88b3-0a64bdafdebf",
      "name": "Nitroglycerin",
      "url": "https://haz-map.com/Agents/572",
      "category": "agents"
    },
    {
      "type": "name_match",
      "text": "propane",
      "confidence": 1.0,
      "uuid": "563a611b-46ea-4bdc-b77b-17d8f7646283",
      "name": "Propane",
      "url": "https://haz-map.com/Agents/607",
      "category": "agents"
    },
    {
      "type": "name_match",
      "text": "propylene glycol",
      "confidence": 1.0,
      "uuid": "6d7c61db-8aa2-442e-b6c7-8a0385ab77da",
      "name": "Propylene glycol",
      "url": "https://haz-map.com/Agents/685",
      "category": "agents"
    },
    {
      "type": "name_match",
      "text": "pharmaceuticals",
      "confidence": 1.0,
      "uuid": "713c3c30-b67e-4a2f-a90f-b32f8a306332",
      "name": "PHARMACEUTICALS",
      "url": "https://haz-map.com/Agents/1000",
      "category": "agents"
    },
    {
      "type": "name_match",
      "text": "ethylene",
      "confidence": 1.0,
      "uuid": "958eacc0-5135-4b62-bb93-6df972bf552f",
      "name": "Ethylene",
      "url": "https://haz-map.com/Agents/1076",
      "category": "agents"
    },
    {
      "type": "name_match",
      "text": "propylene",
      "confidence": 1.0,
      "uuid": "78ac73a1-0029-4a50-b283-561134c72041",
      "name": "Propylene",
      "url": "https://haz-map.com/Agents/1078",
      "category": "agents"
    },
    {
      "type": "name_match",
      "text": "methemoglobin",
      "confidence": 1.0,
      "uuid": "afb7ebf5-d2a3-4e60-8d2e-3a19456344ee",
      "name": "Methemoglobin",
      "url": "https://haz-map.com/Agents/15467",
      "category": "agents"
    },
    {
      "type": "fuzzy_match",
      "text": "methemoglobinemia",
      "matched_name": "Methemoglobinemia, acute",
      "confidence": 0.7208333333333333,
      "uuid": "473a44bd-cf11-4710-a769-e8e2b25ba317",
      "category": "diseases",
      "url": "https://haz-map.com/Diseases/210"
    }
  ],
  "all_links": [
    {
      "text": "Search PubMed",
      "url": "https://www.ncbi.nlm.nih.gov/pubmed?term=Nitroglycerin%20AND%20human%5Bmh%5D%20AND%20%28Occupational%20Diseases%20%5Bmh%5D%20OR%20Occupational%20Exposure%20%5Bmh%5D%29%20%20AND%20%28tox%5Bsb%5D%29&cmd=search"
    },
    {
      "text": "Contact dermatitis, allergic",
      "url": "https://haz-map.com/Diseases/18"
    }
  ]
}