{
  "metadata": {
    "scraped_from": "https://haz-map.com/Agents/13690",
    "entity_name": "D-Galactose",
    "category": "agents",
    "uuid": "7c17831c-b514-4b2f-ad08-ce2a610baf28",
    "scraped_at": "2025-07-23T21:17:21.018540"
  },
  "parsed_at": "2025-07-24T01:10:08.235258",
  "title": "D-Galactose",
  "sections": {
    "general": {
      "agent_name": {
        "original_name": "Agent Name",
        "value": "D-Galactose",
        "links": [],
        "cross_references": [
          {
            "type": "name_match",
            "text": "d-galactose",
            "confidence": 1.0,
            "uuid": "7c17831c-b514-4b2f-ad08-ce2a610baf28",
            "name": "D-Galactose",
            "url": "https://haz-map.com/Agents/13690",
            "category": "agents"
          },
          {
            "type": "name_match",
            "text": "lactose",
            "confidence": 1.0,
            "uuid": "a9f8c81c-bfa0-43e4-a9eb-6e39fa70ab2c",
            "name": "Lactose",
            "url": "https://haz-map.com/Agents/15057",
            "category": "agents"
          }
        ]
      },
      "cas_number": {
        "original_name": "CAS Number",
        "value": "59-23-4",
        "links": [],
        "cross_references": []
      },
      "formula": {
        "original_name": "Formula",
        "value": "C6-H12-O6",
        "links": [],
        "cross_references": []
      },
      "major_category": {
        "original_name": "Major Category",
        "value": "Biological Agents",
        "links": [],
        "cross_references": []
      },
      "synonyms": {
        "original_name": "Synonyms",
        "value": "Galactose, pure; D(+)-Galactose; Galactose; [ChemIDplus] Cerebrose; Brain sugar; [Merck Index]",
        "links": [],
        "cross_references": [
          {
            "type": "name_match",
            "text": "lactose",
            "confidence": 1.0,
            "uuid": "a9f8c81c-bfa0-43e4-a9eb-6e39fa70ab2c",
            "name": "Lactose",
            "url": "https://haz-map.com/Agents/15057",
            "category": "agents"
          }
        ]
      },
      "category": {
        "original_name": "Category",
        "value": "Monosaccharides and Derivatives",
        "links": [],
        "cross_references": []
      },
      "description": {
        "original_name": "Description",
        "value": "White powder; [Sigma-Aldrich MSDS]",
        "links": [],
        "cross_references": []
      },
      "sourcesuses": {
        "original_name": "Sources/Uses",
        "value": "Component of many oligo- and polysaccharides in pectins, gums, and mucilages; Used in determination of hepatic function; [Merck Index]",
        "links": [],
        "cross_references": [
          {
            "type": "name_match",
            "text": "pectin",
            "confidence": 1.0,
            "uuid": "98682625-6612-449d-be90-397d305ba3ea",
            "name": "Pectin",
            "url": "https://haz-map.com/Agents/6545",
            "category": "agents"
          }
        ]
      },
      "comments": {
        "original_name": "Comments",
        "value": "Teratogenicity observed in rats at 55% of the diet; [Shepard's Catalog of Teratogenic Agents] Causes changes in motor activity, decreased cellular immune response, other liver changes, inflammation, other degenerative changes to brain and coverings, multiple enzyme effects, effects on lipids (including transport), changes in both tubules and glomeruli, and depressed renal function tests in acute subcutaneous studies of mice; [RTECS] May cause irritation; [Sigma-Aldrich MSDS]",
        "links": [],
        "cross_references": []
      },
      "biomedical_references": {
        "original_name": "Biomedical References",
        "value": "Search PubMed",
        "links": [
          {
            "text": "Search PubMed",
            "url": "https://www.ncbi.nlm.nih.gov/pubmed?term=D-Galactose%20AND%20human%5Bmh%5D%20AND%20%28Occupational%20Diseases%20%5Bmh%5D%20OR%20Occupational%20Exposure%20%5Bmh%5D%29%20%20AND%20%28tox%5Bsb%5D%29&cmd=search"
          }
        ],
        "cross_references": []
      }
    },
    "exposure_assessment": {
      "vapor_pressure": {
        "original_name": "Vapor Pressure",
        "value": "1.82E-08 mm Hg",
        "links": [],
        "cross_references": []
      }
    },
    "diseases_processes_and_activities_linked_to_this_agent": {
      "other_information": {
        "original_name": "Other Information",
        "value": "No other related information on this agent was found.",
        "links": [],
        "cross_references": []
      }
    }
  },
  "cross_references": [
    {
      "type": "name_match",
      "text": "pectin",
      "confidence": 1.0,
      "uuid": "98682625-6612-449d-be90-397d305ba3ea",
      "name": "Pectin",
      "url": "https://haz-map.com/Agents/6545",
      "category": "agents"
    },
    {
      "type": "name_match",
      "text": "d-galactose",
      "confidence": 1.0,
      "uuid": "7c17831c-b514-4b2f-ad08-ce2a610baf28",
      "name": "D-Galactose",
      "url": "https://haz-map.com/Agents/13690",
      "category": "agents"
    },
    {
      "type": "name_match",
      "text": "lactose",
      "confidence": 1.0,
      "uuid": "a9f8c81c-bfa0-43e4-a9eb-6e39fa70ab2c",
      "name": "Lactose",
      "url": "https://haz-map.com/Agents/15057",
      "category": "agents"
    }
  ],
  "all_links": [
    {
      "text": "Search PubMed",
      "url": "https://www.ncbi.nlm.nih.gov/pubmed?term=D-Galactose%20AND%20human%5Bmh%5D%20AND%20%28Occupational%20Diseases%20%5Bmh%5D%20OR%20Occupational%20Exposure%20%5Bmh%5D%29%20%20AND%20%28tox%5Bsb%5D%29&cmd=search"
    }
  ]
}