{
  "metadata": {
    "scraped_from": "https://haz-map.com/Agents/15756",
    "entity_name": "N,N-Bis(2-hydroxyethyl)-4-toluidine",
    "category": "agents",
    "uuid": "7c5d4600-6601-422b-9f8c-0992ceee8375",
    "scraped_at": "2025-07-23T21:32:06.363907"
  },
  "parsed_at": "2025-07-24T01:08:21.116789",
  "title": "N,N-Bis(2-hydroxyethyl)-4-toluidine",
  "sections": {
    "general": {
      "agent_name": {
        "original_name": "Agent Name",
        "value": "N,N-Bis(2-hydroxyethyl)-4-toluidine",
        "links": [],
        "cross_references": [
          {
            "type": "name_match",
            "text": "n,n-bis(2-hydroxyethyl)-4-toluidine",
            "confidence": 1.0,
            "uuid": "7c5d4600-6601-422b-9f8c-0992ceee8375",
            "name": "N,N-Bis(2-hydroxyethyl)-4-toluidine",
            "url": "https://haz-map.com/Agents/15756",
            "category": "agents"
          }
        ]
      },
      "cas_number": {
        "original_name": "CAS Number",
        "value": "3077-12-1",
        "links": [],
        "cross_references": []
      },
      "formula": {
        "original_name": "Formula",
        "value": "C11-H17-N-O2",
        "links": [],
        "cross_references": []
      },
      "major_category": {
        "original_name": "Major Category",
        "value": "Nitrogen Compounds",
        "links": [],
        "cross_references": [
          {
            "type": "name_match",
            "text": "nitrogen",
            "confidence": 1.0,
            "uuid": "db5e90a9-06d2-45b9-8b81-f345a89b0bc0",
            "name": "Nitrogen",
            "url": "https://haz-map.com/Agents/1072",
            "category": "agents"
          }
        ]
      },
      "synonyms": {
        "original_name": "Synonyms",
        "value": "2,2'-(p-Tolylimino)diethanol; Diethylol-p-toluidine; N,N-(2-Hydroxyethyl)-p-toluidine; N,N-Bis(2-hydroxyethyl)-p-toluidine; N,N-Di(2-hydroxyethyl)-para-toluidine; N,N-Diethanol-p-toluidine; N-(4-Methylphenyl)-N,N-diethanolamine; N-(4-Methylphenyl)diethanolamine; 2,2'-((4-Methylphenyl)imino)bisethanol; Ethanol, 2,2'-((4-methylphenyl)imino)bis-; Ethanol, 2,2'-(p-tolylimino)di- (8CI); [ChemIDplus] Di(hydroxyethyl)-p-toluidine; [RTECS] N,N-DIHYDROXYETHYL-P-TOLUIDINE; DHEPT; [3M MSDS]",
        "links": [],
        "cross_references": [
          {
            "type": "name_match",
            "text": "ethanolamine",
            "confidence": 1.0,
            "uuid": "16354994-9346-496d-9e19-23d8a4473ab4",
            "name": "Ethanolamine",
            "url": "https://haz-map.com/Agents/288",
            "category": "agents"
          },
          {
            "type": "name_match",
            "text": "p-toluidine",
            "confidence": 1.0,
            "uuid": "0bec36ed-78fe-4ab4-ae71-02439e6b5bee",
            "name": "p-Toluidine",
            "url": "https://haz-map.com/Agents/439",
            "category": "agents"
          },
          {
            "type": "name_match",
            "text": "diethanolamine",
            "confidence": 1.0,
            "uuid": "588b3cdf-df43-41d8-8417-60aaa610fb49",
            "name": "Diethanolamine",
            "url": "https://haz-map.com/Agents/454",
            "category": "agents"
          }
        ]
      },
      "category": {
        "original_name": "Category",
        "value": "Other Aromatics (Nitrogen)",
        "links": [],
        "cross_references": [
          {
            "type": "name_match",
            "text": "nitrogen",
            "confidence": 1.0,
            "uuid": "db5e90a9-06d2-45b9-8b81-f345a89b0bc0",
            "name": "Nitrogen",
            "url": "https://haz-map.com/Agents/1072",
            "category": "agents"
          }
        ]
      },
      "description": {
        "original_name": "Description",
        "value": "White powder with a slight odor; [3M MSDS]",
        "links": [],
        "cross_references": [
          {
            "type": "name_match",
            "text": "ht",
            "confidence": 1.0,
            "uuid": "764df367-8d53-4a11-81a2-31ccfe122a8d",
            "name": "HT",
            "url": "https://haz-map.com/Agents/2168",
            "category": "agents"
          }
        ]
      },
      "sourcesuses": {
        "original_name": "Sources/Uses",
        "value": "\"Lysosome stabilizing agent.\" [ChemIDplus] Used as an accelerator and intermediate; [3M MSDS]",
        "links": [],
        "cross_references": []
      },
      "comments": {
        "original_name": "Comments",
        "value": "Causes flaccid paralysis without anesthesia (usually neuromuscular blockage), ataxia, and respiratory depression in oral lethal-dose studies of rodents; [RTECS] A moderate eye irritant; May induce methemoglobinemia; [3M MSDS] See \"Toluidine.\"",
        "links": [],
        "cross_references": [
          {
            "type": "name_match",
            "text": "methemoglobin",
            "confidence": 1.0,
            "uuid": "afb7ebf5-d2a3-4e60-8d2e-3a19456344ee",
            "name": "Methemoglobin",
            "url": "https://haz-map.com/Agents/15467",
            "category": "agents"
          },
          {
            "type": "fuzzy_match",
            "text": "methemoglobinemia",
            "matched_name": "Methemoglobinemia, acute",
            "confidence": 0.7208333333333333,
            "uuid": "473a44bd-cf11-4710-a769-e8e2b25ba317",
            "category": "diseases",
            "url": "https://haz-map.com/Diseases/210"
          }
        ]
      },
      "biomedical_references": {
        "original_name": "Biomedical References",
        "value": "Search PubMed",
        "links": [
          {
            "text": "Search PubMed",
            "url": "https://www.ncbi.nlm.nih.gov/pubmed?term=N%2cN-Bis(2-hydroxyethyl)-4-toluidine%20AND%20human%5Bmh%5D%20AND%20%28Occupational%20Diseases%20%5Bmh%5D%20OR%20Occupational%20Exposure%20%5Bmh%5D%29%20%20AND%20%28tox%5Bsb%5D%29&cmd=search"
          }
        ],
        "cross_references": []
      }
    },
    "exposure_assessment": {
      "vapor_pressure": {
        "original_name": "Vapor Pressure",
        "value": "7.34E-07 mm Hg",
        "links": [],
        "cross_references": []
      }
    },
    "adverse_effects": {
      "methemoglobinemia": {
        "original_name": "Methemoglobinemia",
        "value": "MetHgb is secondary toxic effect",
        "links": [],
        "cross_references": []
      },
      "neurotoxin": {
        "original_name": "Neurotoxin",
        "value": "Other CNS neurotoxin",
        "links": [],
        "cross_references": []
      }
    },
    "diseases_processes_and_activities_linked_to_this_agent": {
      "other_information": {
        "original_name": "Other Information",
        "value": "No other related information on this agent was found.",
        "links": [],
        "cross_references": []
      }
    }
  },
  "cross_references": [
    {
      "type": "name_match",
      "text": "ethanolamine",
      "confidence": 1.0,
      "uuid": "16354994-9346-496d-9e19-23d8a4473ab4",
      "name": "Ethanolamine",
      "url": "https://haz-map.com/Agents/288",
      "category": "agents"
    },
    {
      "type": "name_match",
      "text": "p-toluidine",
      "confidence": 1.0,
      "uuid": "0bec36ed-78fe-4ab4-ae71-02439e6b5bee",
      "name": "p-Toluidine",
      "url": "https://haz-map.com/Agents/439",
      "category": "agents"
    },
    {
      "type": "name_match",
      "text": "diethanolamine",
      "confidence": 1.0,
      "uuid": "588b3cdf-df43-41d8-8417-60aaa610fb49",
      "name": "Diethanolamine",
      "url": "https://haz-map.com/Agents/454",
      "category": "agents"
    },
    {
      "type": "name_match",
      "text": "nitrogen",
      "confidence": 1.0,
      "uuid": "db5e90a9-06d2-45b9-8b81-f345a89b0bc0",
      "name": "Nitrogen",
      "url": "https://haz-map.com/Agents/1072",
      "category": "agents"
    },
    {
      "type": "name_match",
      "text": "ht",
      "confidence": 1.0,
      "uuid": "764df367-8d53-4a11-81a2-31ccfe122a8d",
      "name": "HT",
      "url": "https://haz-map.com/Agents/2168",
      "category": "agents"
    },
    {
      "type": "name_match",
      "text": "methemoglobin",
      "confidence": 1.0,
      "uuid": "afb7ebf5-d2a3-4e60-8d2e-3a19456344ee",
      "name": "Methemoglobin",
      "url": "https://haz-map.com/Agents/15467",
      "category": "agents"
    },
    {
      "type": "name_match",
      "text": "n,n-bis(2-hydroxyethyl)-4-toluidine",
      "confidence": 1.0,
      "uuid": "7c5d4600-6601-422b-9f8c-0992ceee8375",
      "name": "N,N-Bis(2-hydroxyethyl)-4-toluidine",
      "url": "https://haz-map.com/Agents/15756",
      "category": "agents"
    },
    {
      "type": "fuzzy_match",
      "text": "methemoglobinemia",
      "matched_name": "Methemoglobinemia, acute",
      "confidence": 0.7208333333333333,
      "uuid": "473a44bd-cf11-4710-a769-e8e2b25ba317",
      "category": "diseases",
      "url": "https://haz-map.com/Diseases/210"
    }
  ],
  "all_links": [
    {
      "text": "Search PubMed",
      "url": "https://www.ncbi.nlm.nih.gov/pubmed?term=N%2cN-Bis(2-hydroxyethyl)-4-toluidine%20AND%20human%5Bmh%5D%20AND%20%28Occupational%20Diseases%20%5Bmh%5D%20OR%20Occupational%20Exposure%20%5Bmh%5D%29%20%20AND%20%28tox%5Bsb%5D%29&cmd=search"
    }
  ]
}