{
  "metadata": {
    "scraped_from": "https://haz-map.com/Agents/7362",
    "entity_name": "Tetrahydrophthalic anhydride",
    "category": "agents",
    "uuid": "7c74f97b-ee64-4dd2-8560-db82752a2f89",
    "scraped_at": "2025-07-23T20:11:59.837865"
  },
  "parsed_at": "2025-07-24T01:12:47.536902",
  "title": "Tetrahydrophthalic anhydride",
  "sections": {
    "general": {
      "agent_name": {
        "original_name": "Agent Name",
        "value": "Tetrahydrophthalic anhydride",
        "links": [],
        "cross_references": [
          {
            "type": "name_match",
            "text": "phthalic anhydride",
            "confidence": 1.0,
            "uuid": "1bda4d65-bf7f-4775-add4-a93906dcc2db",
            "name": "Phthalic anhydride",
            "url": "https://haz-map.com/Agents/599",
            "category": "agents"
          },
          {
            "type": "name_match",
            "text": "ht",
            "confidence": 1.0,
            "uuid": "764df367-8d53-4a11-81a2-31ccfe122a8d",
            "name": "HT",
            "url": "https://haz-map.com/Agents/2168",
            "category": "agents"
          },
          {
            "type": "name_match",
            "text": "tetrahydrophthalic anhydride",
            "confidence": 1.0,
            "uuid": "7c74f97b-ee64-4dd2-8560-db82752a2f89",
            "name": "Tetrahydrophthalic anhydride",
            "url": "https://haz-map.com/Agents/7362",
            "category": "agents"
          }
        ]
      },
      "cas_number": {
        "original_name": "CAS Number",
        "value": "85-43-8",
        "links": [],
        "cross_references": []
      },
      "formula": {
        "original_name": "Formula",
        "value": "C8-H8-O3",
        "links": [],
        "cross_references": []
      },
      "major_category": {
        "original_name": "Major Category",
        "value": "Plastics & Rubber",
        "links": [],
        "cross_references": []
      },
      "synonyms": {
        "original_name": "Synonyms",
        "value": "1,2,3,6-Tetrahydrophthalic acid anhydride; 1,2,3,6-Tetrahydrophthalic anhydride; 1,3-Isobenzofurandione, 3a,4,7,7a-tetrahydro-; 4-Cyclohexene-1,2-dicarboxylic acid anhydride; 4-Cyclohexene-1,2-dicarboxylic anhydride; Anhydrid kyseliny tetrahydroftalove [Czech]; Butadiene-maleic anhydride adduct; Maleic anhydride adduct of butadiene; Memtetrahydro phtalic anhydride; Phthalic anhydride, 1,2,3,6-tetrahydro-; Rikacid TH; THPA; Tetrahydroftalanhydrid [Czech]; Tetrahydrophthalic acid anhydride; delta(4)-Tetrahydrophthalic anhydride; delta(sup 4)-Tetrahydrophthalic anhydride; delta-(sup4)-Tetrahydrophthalic anhydride; [ChemIDplus] UN2698",
        "links": [],
        "cross_references": [
          {
            "type": "name_match",
            "text": "maleic anhydride",
            "confidence": 1.0,
            "uuid": "252743ac-07bf-4a59-b1a3-1b6c4481c20e",
            "name": "Maleic anhydride",
            "url": "https://haz-map.com/Agents/541",
            "category": "agents"
          },
          {
            "type": "name_match",
            "text": "phthalic anhydride",
            "confidence": 1.0,
            "uuid": "1bda4d65-bf7f-4775-add4-a93906dcc2db",
            "name": "Phthalic anhydride",
            "url": "https://haz-map.com/Agents/599",
            "category": "agents"
          },
          {
            "type": "name_match",
            "text": "tali",
            "confidence": 1.0,
            "uuid": "8c3a0f99-2143-4122-b539-ec5cc49596b0",
            "name": "Tali",
            "url": "https://haz-map.com/Agents/1128",
            "category": "agents"
          },
          {
            "type": "name_match",
            "text": "cyclohexene",
            "confidence": 1.0,
            "uuid": "899603b1-ebcd-41d9-a67b-1e8d7d4eee3f",
            "name": "Cyclohexene",
            "url": "https://haz-map.com/Agents/1173",
            "category": "agents"
          },
          {
            "type": "name_match",
            "text": "furan",
            "confidence": 1.0,
            "uuid": "96da3d2e-f46b-4100-9000-704d1a86985b",
            "name": "Furan",
            "url": "https://haz-map.com/Agents/1477",
            "category": "agents"
          },
          {
            "type": "name_match",
            "text": "ht",
            "confidence": 1.0,
            "uuid": "764df367-8d53-4a11-81a2-31ccfe122a8d",
            "name": "HT",
            "url": "https://haz-map.com/Agents/2168",
            "category": "agents"
          },
          {
            "type": "name_match",
            "text": "benzofuran",
            "confidence": 1.0,
            "uuid": "433f9324-e799-4045-b9dc-d8468b9b9b05",
            "name": "Benzofuran",
            "url": "https://haz-map.com/Agents/3855",
            "category": "agents"
          },
          {
            "type": "name_match",
            "text": "hexene",
            "confidence": 1.0,
            "uuid": "592a6801-2d0b-441f-b3f6-6d67971256b7",
            "name": "Hexene",
            "url": "https://haz-map.com/Agents/5534",
            "category": "agents"
          },
          {
            "type": "name_match",
            "text": "phthalic acid",
            "confidence": 1.0,
            "uuid": "f19ac6b5-df06-48aa-81e6-825cdcfe8f9c",
            "name": "Phthalic acid",
            "url": "https://haz-map.com/Agents/6702",
            "category": "agents"
          },
          {
            "type": "name_match",
            "text": "tetrahydrophthalic anhydride",
            "confidence": 1.0,
            "uuid": "7c74f97b-ee64-4dd2-8560-db82752a2f89",
            "name": "Tetrahydrophthalic anhydride",
            "url": "https://haz-map.com/Agents/7362",
            "category": "agents"
          },
          {
            "type": "name_match",
            "text": "butadiene",
            "confidence": 1.0,
            "uuid": "f4fdb4ce-e062-4db5-8e5d-eba44b8a05be",
            "name": "Butadiene",
            "url": "https://haz-map.com/Agents/12505",
            "category": "agents"
          },
          {
            "type": "fuzzy_match",
            "text": "6-tetrahydrophthalic anhydride",
            "matched_name": "cis-1,2,3,6-Tetrahydrophthalic anhydride",
            "confidence": 0.7559523809523809,
            "uuid": "633b7496-91f8-48d0-ad5a-16d3f1e1f065",
            "category": "agents",
            "url": "https://haz-map.com/Agents/20441"
          },
          {
            "type": "fuzzy_match",
            "text": "2-dicarboxylic anhydride",
            "matched_name": "cis-Cyclohexane-1,2-dicarboxylic anhydride",
            "confidence": 0.706766917293233,
            "uuid": "be455187-7b4e-46ac-bb1c-c6e41a5379d4",
            "category": "agents",
            "url": "https://haz-map.com/Agents/20446"
          }
        ]
      },
      "category": {
        "original_name": "Category",
        "value": "Acid Anhydrides, Cyclic",
        "links": [],
        "cross_references": [
          {
            "type": "name_match",
            "text": "acid anhydrides",
            "confidence": 1.0,
            "uuid": "541f6a39-e623-4b95-8854-3d5fe27fdeca",
            "name": "ACID ANHYDRIDES",
            "url": "https://haz-map.com/Agents/744",
            "category": "agents"
          }
        ]
      },
      "description": {
        "original_name": "Description",
        "value": "White solid; [ICSC]; [CHEMINFO] Clear colorless to light yellow liquid; [CAMEO]",
        "links": [],
        "cross_references": [
          {
            "type": "name_match",
            "text": "ht",
            "confidence": 1.0,
            "uuid": "764df367-8d53-4a11-81a2-31ccfe122a8d",
            "name": "HT",
            "url": "https://haz-map.com/Agents/2168",
            "category": "agents"
          }
        ]
      },
      "sourcesuses": {
        "original_name": "Sources/Uses",
        "value": "Used as an intermediate for light-colored alkyds, polyesters, plasticizers, adhesives, and pesticides; Also used as a hardener for resins, an anti-scorching agent in the rubber industry, and to make paints, lacquers, and varnishes; [HSDB]",
        "links": [],
        "cross_references": [
          {
            "type": "name_match",
            "text": "ht",
            "confidence": 1.0,
            "uuid": "764df367-8d53-4a11-81a2-31ccfe122a8d",
            "name": "HT",
            "url": "https://haz-map.com/Agents/2168",
            "category": "agents"
          }
        ]
      },
      "comments": {
        "original_name": "Comments",
        "value": "Decomposed by hot surfaces or flames forming corrosive vapors; Reacts with water evolving heat and tetrahydrophthalic acid; A skin, eye, and respiratory tract irritant; May cause skin sensitization and asthma after prolonged contact; [ICSC] Corrosive to skin, eye, and respiratory tract; [HSDB] Reacts exothermically with water producing tetrahydrophthalic acid; A strong skin, eye, and mucous membrane irritant; Corrosive to skin; [CAMEO] May be irritating or corrosive to eyes, based on animal studies; [CHEMINFO] Corrosive to eyes; May cause skin and respiratory sensitization after prolonged contact; [eChemPortal: ERMA; ESIS] A corrosive substance that can cause injury to the skin, eyes, and respiratory tract; Inhalation may cause chemical pneumonitis and pulmonary edema; [MSDSonline]",
        "links": [],
        "cross_references": [
          {
            "type": "name_match",
            "text": "pulmonary edema",
            "confidence": 1.0,
            "uuid": "ee39114e-c922-40fd-9588-a532de404962",
            "name": "pulmonary edema",
            "url": "https://haz-map.com/Findings/186",
            "category": "findings"
          },
          {
            "type": "name_match",
            "text": "mica",
            "confidence": 1.0,
            "uuid": "433f26f1-c399-4596-b179-ce3843cfd465",
            "name": "Mica",
            "url": "https://haz-map.com/Agents/621",
            "category": "agents"
          },
          {
            "type": "name_match",
            "text": "ht",
            "confidence": 1.0,
            "uuid": "764df367-8d53-4a11-81a2-31ccfe122a8d",
            "name": "HT",
            "url": "https://haz-map.com/Agents/2168",
            "category": "agents"
          },
          {
            "type": "name_match",
            "text": "phthalic acid",
            "confidence": 1.0,
            "uuid": "f19ac6b5-df06-48aa-81e6-825cdcfe8f9c",
            "name": "Phthalic acid",
            "url": "https://haz-map.com/Agents/6702",
            "category": "agents"
          },
          {
            "type": "name_match",
            "text": "water",
            "confidence": 1.0,
            "uuid": "6f2a7557-dfd2-49bc-9b4b-a93cd8e225d4",
            "name": "Water",
            "url": "https://haz-map.com/Agents/18668",
            "category": "agents"
          }
        ]
      },
      "biomedical_references": {
        "original_name": "Biomedical References",
        "value": "Search PubMed",
        "links": [
          {
            "text": "Search PubMed",
            "url": "https://www.ncbi.nlm.nih.gov/pubmed?term=Tetrahydrophthalic+anhydride%20AND%20human%5Bmh%5D%20AND%20%28Occupational%20Diseases%20%5Bmh%5D%20OR%20Occupational%20Exposure%20%5Bmh%5D%29%20%20AND%20%28tox%5Bsb%5D%29&cmd=search"
          }
        ],
        "cross_references": []
      }
    },
    "exposure_assessment": {
      "vapor_pressure": {
        "original_name": "Vapor Pressure",
        "value": "0.057 mm Hg",
        "links": [],
        "cross_references": []
      },
      "lethal_concentration": {
        "original_name": "Lethal Concentration",
        "value": "LC (rat) > 294 mg/m3",
        "links": [],
        "cross_references": []
      }
    },
    "adverse_effects": {
      "asthma": {
        "original_name": "Asthma",
        "value": "Yes",
        "links": [],
        "cross_references": []
      },
      "toxic_pneumonitis": {
        "original_name": "Toxic Pneumonitis",
        "value": "Yes",
        "links": [],
        "cross_references": []
      },
      "dermatotoxin": {
        "original_name": "Dermatotoxin",
        "value": "Skin burns",
        "links": [],
        "cross_references": [
          {
            "type": "name_match",
            "text": "burn",
            "confidence": 1.0,
            "uuid": "63665de5-6376-4918-8dbf-4c10c4d63837",
            "name": "burn",
            "url": "https://haz-map.com/Findings/204",
            "category": "findings"
          }
        ]
      }
    },
    "diseases_processes_and_activities_linked_to_this_agent": {
      "diseases": {
        "original_name": "Diseases",
        "value": "Occupational diseases associated with exposure to this agent: Asthma, occupational Contact urticaria",
        "links": [
          {
            "text": "Asthma, occupational",
            "url": "https://haz-map.com/Diseases/23"
          },
          {
            "text": "Contact urticaria",
            "url": "https://haz-map.com/Diseases/266"
          }
        ],
        "cross_references": [
          {
            "type": "url_match",
            "text": "Asthma, occupational",
            "url": "https://haz-map.com/Diseases/23",
            "confidence": 1.0,
            "uuid": "29c464cb-36b2-43d8-b6fc-e19a0ea695cb",
            "name": "Asthma, occupational",
            "category": "diseases"
          },
          {
            "type": "url_match",
            "text": "Contact urticaria",
            "url": "https://haz-map.com/Diseases/266",
            "confidence": 1.0,
            "uuid": "465e908f-02ad-4f45-a29b-fd09224d5874",
            "name": "Contact urticaria",
            "category": "diseases"
          },
          {
            "type": "name_match",
            "text": "urticaria",
            "confidence": 1.0,
            "uuid": "077e5bcd-975f-45ad-a136-d3c876b10a30",
            "name": "urticaria",
            "url": "https://haz-map.com/Findings/113",
            "category": "findings"
          }
        ]
      },
      "processes": {
        "original_name": "Processes",
        "value": "Industrial Processes with risk of exposure: Painting (Pigments, Binders, and Biocides) Plastic Composites Manufacturing",
        "links": [
          {
            "text": "Painting (Pigments, Binders, and Biocides)",
            "url": "https://haz-map.com/Processes/145"
          },
          {
            "text": "Plastic Composites Manufacturing",
            "url": "https://haz-map.com/Processes/222"
          }
        ],
        "cross_references": [
          {
            "type": "url_match",
            "text": "Painting (Pigments, Binders, and Biocides)",
            "url": "https://haz-map.com/Processes/145",
            "confidence": 1.0,
            "uuid": "25867878-e178-4c21-906f-d392d86b76de",
            "name": "Painting (Pigments, Binders, and Biocides)",
            "category": "processes"
          },
          {
            "type": "url_match",
            "text": "Plastic Composites Manufacturing",
            "url": "https://haz-map.com/Processes/222",
            "confidence": 1.0,
            "uuid": "d4461b82-dc77-4172-8e3d-0a5e3b213911",
            "name": "Plastic Composites Manufacturing",
            "category": "processes"
          },
          {
            "type": "name_match",
            "text": "painting",
            "confidence": 1.0,
            "uuid": "19816ce9-9edf-4a86-8e64-b0cbf7dcf520",
            "name": "Painting",
            "url": "https://haz-map.com/Activities/9",
            "category": "activities"
          }
        ]
      }
    }
  },
  "cross_references": [
    {
      "type": "url_match",
      "text": "Asthma, occupational",
      "url": "https://haz-map.com/Diseases/23",
      "confidence": 1.0,
      "uuid": "29c464cb-36b2-43d8-b6fc-e19a0ea695cb",
      "name": "Asthma, occupational",
      "category": "diseases"
    },
    {
      "type": "url_match",
      "text": "Contact urticaria",
      "url": "https://haz-map.com/Diseases/266",
      "confidence": 1.0,
      "uuid": "465e908f-02ad-4f45-a29b-fd09224d5874",
      "name": "Contact urticaria",
      "category": "diseases"
    },
    {
      "type": "url_match",
      "text": "Painting (Pigments, Binders, and Biocides)",
      "url": "https://haz-map.com/Processes/145",
      "confidence": 1.0,
      "uuid": "25867878-e178-4c21-906f-d392d86b76de",
      "name": "Painting (Pigments, Binders, and Biocides)",
      "category": "processes"
    },
    {
      "type": "url_match",
      "text": "Plastic Composites Manufacturing",
      "url": "https://haz-map.com/Processes/222",
      "confidence": 1.0,
      "uuid": "d4461b82-dc77-4172-8e3d-0a5e3b213911",
      "name": "Plastic Composites Manufacturing",
      "category": "processes"
    },
    {
      "type": "name_match",
      "text": "painting",
      "confidence": 1.0,
      "uuid": "19816ce9-9edf-4a86-8e64-b0cbf7dcf520",
      "name": "Painting",
      "url": "https://haz-map.com/Activities/9",
      "category": "activities"
    },
    {
      "type": "name_match",
      "text": "urticaria",
      "confidence": 1.0,
      "uuid": "077e5bcd-975f-45ad-a136-d3c876b10a30",
      "name": "urticaria",
      "url": "https://haz-map.com/Findings/113",
      "category": "findings"
    },
    {
      "type": "name_match",
      "text": "pulmonary edema",
      "confidence": 1.0,
      "uuid": "ee39114e-c922-40fd-9588-a532de404962",
      "name": "pulmonary edema",
      "url": "https://haz-map.com/Findings/186",
      "category": "findings"
    },
    {
      "type": "name_match",
      "text": "burn",
      "confidence": 1.0,
      "uuid": "63665de5-6376-4918-8dbf-4c10c4d63837",
      "name": "burn",
      "url": "https://haz-map.com/Findings/204",
      "category": "findings"
    },
    {
      "type": "name_match",
      "text": "maleic anhydride",
      "confidence": 1.0,
      "uuid": "252743ac-07bf-4a59-b1a3-1b6c4481c20e",
      "name": "Maleic anhydride",
      "url": "https://haz-map.com/Agents/541",
      "category": "agents"
    },
    {
      "type": "name_match",
      "text": "phthalic anhydride",
      "confidence": 1.0,
      "uuid": "1bda4d65-bf7f-4775-add4-a93906dcc2db",
      "name": "Phthalic anhydride",
      "url": "https://haz-map.com/Agents/599",
      "category": "agents"
    },
    {
      "type": "name_match",
      "text": "mica",
      "confidence": 1.0,
      "uuid": "433f26f1-c399-4596-b179-ce3843cfd465",
      "name": "Mica",
      "url": "https://haz-map.com/Agents/621",
      "category": "agents"
    },
    {
      "type": "name_match",
      "text": "acid anhydrides",
      "confidence": 1.0,
      "uuid": "541f6a39-e623-4b95-8854-3d5fe27fdeca",
      "name": "ACID ANHYDRIDES",
      "url": "https://haz-map.com/Agents/744",
      "category": "agents"
    },
    {
      "type": "name_match",
      "text": "tali",
      "confidence": 1.0,
      "uuid": "8c3a0f99-2143-4122-b539-ec5cc49596b0",
      "name": "Tali",
      "url": "https://haz-map.com/Agents/1128",
      "category": "agents"
    },
    {
      "type": "name_match",
      "text": "cyclohexene",
      "confidence": 1.0,
      "uuid": "899603b1-ebcd-41d9-a67b-1e8d7d4eee3f",
      "name": "Cyclohexene",
      "url": "https://haz-map.com/Agents/1173",
      "category": "agents"
    },
    {
      "type": "name_match",
      "text": "furan",
      "confidence": 1.0,
      "uuid": "96da3d2e-f46b-4100-9000-704d1a86985b",
      "name": "Furan",
      "url": "https://haz-map.com/Agents/1477",
      "category": "agents"
    },
    {
      "type": "name_match",
      "text": "ht",
      "confidence": 1.0,
      "uuid": "764df367-8d53-4a11-81a2-31ccfe122a8d",
      "name": "HT",
      "url": "https://haz-map.com/Agents/2168",
      "category": "agents"
    },
    {
      "type": "name_match",
      "text": "benzofuran",
      "confidence": 1.0,
      "uuid": "433f9324-e799-4045-b9dc-d8468b9b9b05",
      "name": "Benzofuran",
      "url": "https://haz-map.com/Agents/3855",
      "category": "agents"
    },
    {
      "type": "name_match",
      "text": "hexene",
      "confidence": 1.0,
      "uuid": "592a6801-2d0b-441f-b3f6-6d67971256b7",
      "name": "Hexene",
      "url": "https://haz-map.com/Agents/5534",
      "category": "agents"
    },
    {
      "type": "name_match",
      "text": "phthalic acid",
      "confidence": 1.0,
      "uuid": "f19ac6b5-df06-48aa-81e6-825cdcfe8f9c",
      "name": "Phthalic acid",
      "url": "https://haz-map.com/Agents/6702",
      "category": "agents"
    },
    {
      "type": "name_match",
      "text": "tetrahydrophthalic anhydride",
      "confidence": 1.0,
      "uuid": "7c74f97b-ee64-4dd2-8560-db82752a2f89",
      "name": "Tetrahydrophthalic anhydride",
      "url": "https://haz-map.com/Agents/7362",
      "category": "agents"
    },
    {
      "type": "name_match",
      "text": "butadiene",
      "confidence": 1.0,
      "uuid": "f4fdb4ce-e062-4db5-8e5d-eba44b8a05be",
      "name": "Butadiene",
      "url": "https://haz-map.com/Agents/12505",
      "category": "agents"
    },
    {
      "type": "name_match",
      "text": "water",
      "confidence": 1.0,
      "uuid": "6f2a7557-dfd2-49bc-9b4b-a93cd8e225d4",
      "name": "Water",
      "url": "https://haz-map.com/Agents/18668",
      "category": "agents"
    },
    {
      "type": "fuzzy_match",
      "text": "6-tetrahydrophthalic anhydride",
      "matched_name": "cis-1,2,3,6-Tetrahydrophthalic anhydride",
      "confidence": 0.7559523809523809,
      "uuid": "633b7496-91f8-48d0-ad5a-16d3f1e1f065",
      "category": "agents",
      "url": "https://haz-map.com/Agents/20441"
    },
    {
      "type": "fuzzy_match",
      "text": "2-dicarboxylic anhydride",
      "matched_name": "cis-Cyclohexane-1,2-dicarboxylic anhydride",
      "confidence": 0.706766917293233,
      "uuid": "be455187-7b4e-46ac-bb1c-c6e41a5379d4",
      "category": "agents",
      "url": "https://haz-map.com/Agents/20446"
    }
  ],
  "all_links": [
    {
      "text": "Search PubMed",
      "url": "https://www.ncbi.nlm.nih.gov/pubmed?term=Tetrahydrophthalic+anhydride%20AND%20human%5Bmh%5D%20AND%20%28Occupational%20Diseases%20%5Bmh%5D%20OR%20Occupational%20Exposure%20%5Bmh%5D%29%20%20AND%20%28tox%5Bsb%5D%29&cmd=search"
    },
    {
      "text": "Asthma, occupational",
      "url": "https://haz-map.com/Diseases/23"
    },
    {
      "text": "Contact urticaria",
      "url": "https://haz-map.com/Diseases/266"
    },
    {
      "text": "Painting (Pigments, Binders, and Biocides)",
      "url": "https://haz-map.com/Processes/145"
    },
    {
      "text": "Plastic Composites Manufacturing",
      "url": "https://haz-map.com/Processes/222"
    }
  ]
}