{
  "metadata": {
    "scraped_from": "https://haz-map.com/Agents/3179",
    "entity_name": "3,3',5,5'-Tetramethylbenzidine",
    "category": "agents",
    "uuid": "7cc84f19-bd3f-4dd4-b536-d8370195c944",
    "scraped_at": "2025-07-23T19:25:17.835966"
  },
  "parsed_at": "2025-07-24T01:11:31.172671",
  "title": "3,3',5,5'-Tetramethylbenzidine",
  "sections": {
    "general": {
      "agent_name": {
        "original_name": "Agent Name",
        "value": "3,3',5,5'-Tetramethylbenzidine",
        "links": [],
        "cross_references": [
          {
            "type": "name_match",
            "text": "benzidine",
            "confidence": 1.0,
            "uuid": "c00ca5d5-2820-4d3a-9dc6-5d1d2b33ccbd",
            "name": "Benzidine",
            "url": "https://haz-map.com/Agents/87",
            "category": "agents"
          },
          {
            "type": "name_match",
            "text": "3,3',5,5'-tetramethylbenzidine",
            "confidence": 1.0,
            "uuid": "7cc84f19-bd3f-4dd4-b536-d8370195c944",
            "name": "3,3',5,5'-Tetramethylbenzidine",
            "url": "https://haz-map.com/Agents/3179",
            "category": "agents"
          }
        ]
      },
      "cas_number": {
        "original_name": "CAS Number",
        "value": "54827-17-7",
        "links": [],
        "cross_references": []
      },
      "formula": {
        "original_name": "Formula",
        "value": "C16-H20-N2",
        "links": [],
        "cross_references": []
      },
      "major_category": {
        "original_name": "Major Category",
        "value": "Nitrogen Compounds",
        "links": [],
        "cross_references": [
          {
            "type": "name_match",
            "text": "nitrogen",
            "confidence": 1.0,
            "uuid": "db5e90a9-06d2-45b9-8b81-f345a89b0bc0",
            "name": "Nitrogen",
            "url": "https://haz-map.com/Agents/1072",
            "category": "agents"
          }
        ]
      },
      "synonyms": {
        "original_name": "Synonyms",
        "value": "(1,1'-Biphenyl)-4,4'-diamine, 3,3',5,5'-tetramethyl-; 3,3',5,5'-Tetramethyl-(1,1'-biphenyl)-4,4'-diamine; 3,5,3',5'-Tetramethylbenzidine; [ChemIDplus]",
        "links": [],
        "cross_references": [
          {
            "type": "name_match",
            "text": "benzidine",
            "confidence": 1.0,
            "uuid": "c00ca5d5-2820-4d3a-9dc6-5d1d2b33ccbd",
            "name": "Benzidine",
            "url": "https://haz-map.com/Agents/87",
            "category": "agents"
          },
          {
            "type": "name_match",
            "text": "biphenyl",
            "confidence": 1.0,
            "uuid": "740f90cb-888a-4a3b-b9ae-30768927fec2",
            "name": "Biphenyl",
            "url": "https://haz-map.com/Agents/306",
            "category": "agents"
          },
          {
            "type": "fuzzy_match",
            "text": "5'-tetramethylbenzidine",
            "matched_name": "3,3',5,5'-Tetramethylbenzidine",
            "confidence": 0.8277777777777777,
            "uuid": "7cc84f19-bd3f-4dd4-b536-d8370195c944",
            "category": "agents",
            "url": "https://haz-map.com/Agents/3179"
          }
        ]
      },
      "category": {
        "original_name": "Category",
        "value": "Benzidine and Derivatives",
        "links": [],
        "cross_references": [
          {
            "type": "name_match",
            "text": "benzidine",
            "confidence": 1.0,
            "uuid": "c00ca5d5-2820-4d3a-9dc6-5d1d2b33ccbd",
            "name": "Benzidine",
            "url": "https://haz-map.com/Agents/87",
            "category": "agents"
          }
        ]
      },
      "description": {
        "original_name": "Description",
        "value": "Pale yellow or off-white solid; [CAMEO] White or light yellow solid; [MSDSonline]",
        "links": [],
        "cross_references": [
          {
            "type": "name_match",
            "text": "ht",
            "confidence": 1.0,
            "uuid": "764df367-8d53-4a11-81a2-31ccfe122a8d",
            "name": "HT",
            "url": "https://haz-map.com/Agents/2168",
            "category": "agents"
          }
        ]
      },
      "sourcesuses": {
        "original_name": "Sources/Uses",
        "value": "Used as a clinical reagent for testing blood; [HSDB]",
        "links": [],
        "cross_references": []
      },
      "comments": {
        "original_name": "Comments",
        "value": "An irritant; Harmful if swallowed; May induce methemoglobinemia if absorbed; [Alfa Aesar MSDS] See \"Benzidine.\"",
        "links": [],
        "cross_references": [
          {
            "type": "name_match",
            "text": "benzidine",
            "confidence": 1.0,
            "uuid": "c00ca5d5-2820-4d3a-9dc6-5d1d2b33ccbd",
            "name": "Benzidine",
            "url": "https://haz-map.com/Agents/87",
            "category": "agents"
          },
          {
            "type": "name_match",
            "text": "methemoglobin",
            "confidence": 1.0,
            "uuid": "afb7ebf5-d2a3-4e60-8d2e-3a19456344ee",
            "name": "Methemoglobin",
            "url": "https://haz-map.com/Agents/15467",
            "category": "agents"
          },
          {
            "type": "fuzzy_match",
            "text": "methemoglobinemia",
            "matched_name": "Methemoglobinemia, acute",
            "confidence": 0.7208333333333333,
            "uuid": "473a44bd-cf11-4710-a769-e8e2b25ba317",
            "category": "diseases",
            "url": "https://haz-map.com/Diseases/210"
          }
        ]
      },
      "biomedical_references": {
        "original_name": "Biomedical References",
        "value": "Search PubMed",
        "links": [
          {
            "text": "Search PubMed",
            "url": "https://www.ncbi.nlm.nih.gov/pubmed?term=3%2c3%26%2339%3b%2c5%2c5%26%2339%3b-Tetramethylbenzidine%20AND%20human%5Bmh%5D%20AND%20%28Occupational%20Diseases%20%5Bmh%5D%20OR%20Occupational%20Exposure%20%5Bmh%5D%29%20%20AND%20%28tox%5Bsb%5D%29&cmd=search"
          }
        ],
        "cross_references": []
      }
    },
    "exposure_assessment": {
      "vapor_pressure": {
        "original_name": "Vapor Pressure",
        "value": "5E-07 mm Hg",
        "links": [],
        "cross_references": []
      }
    },
    "adverse_effects": {
      "methemoglobinemia": {
        "original_name": "Methemoglobinemia",
        "value": "MetHgb is secondary toxic effect",
        "links": [],
        "cross_references": []
      }
    },
    "diseases_processes_and_activities_linked_to_this_agent": {
      "other_information": {
        "original_name": "Other Information",
        "value": "No other related information on this agent was found.",
        "links": [],
        "cross_references": []
      }
    }
  },
  "cross_references": [
    {
      "type": "name_match",
      "text": "benzidine",
      "confidence": 1.0,
      "uuid": "c00ca5d5-2820-4d3a-9dc6-5d1d2b33ccbd",
      "name": "Benzidine",
      "url": "https://haz-map.com/Agents/87",
      "category": "agents"
    },
    {
      "type": "name_match",
      "text": "biphenyl",
      "confidence": 1.0,
      "uuid": "740f90cb-888a-4a3b-b9ae-30768927fec2",
      "name": "Biphenyl",
      "url": "https://haz-map.com/Agents/306",
      "category": "agents"
    },
    {
      "type": "name_match",
      "text": "nitrogen",
      "confidence": 1.0,
      "uuid": "db5e90a9-06d2-45b9-8b81-f345a89b0bc0",
      "name": "Nitrogen",
      "url": "https://haz-map.com/Agents/1072",
      "category": "agents"
    },
    {
      "type": "name_match",
      "text": "ht",
      "confidence": 1.0,
      "uuid": "764df367-8d53-4a11-81a2-31ccfe122a8d",
      "name": "HT",
      "url": "https://haz-map.com/Agents/2168",
      "category": "agents"
    },
    {
      "type": "name_match",
      "text": "3,3',5,5'-tetramethylbenzidine",
      "confidence": 1.0,
      "uuid": "7cc84f19-bd3f-4dd4-b536-d8370195c944",
      "name": "3,3',5,5'-Tetramethylbenzidine",
      "url": "https://haz-map.com/Agents/3179",
      "category": "agents"
    },
    {
      "type": "name_match",
      "text": "methemoglobin",
      "confidence": 1.0,
      "uuid": "afb7ebf5-d2a3-4e60-8d2e-3a19456344ee",
      "name": "Methemoglobin",
      "url": "https://haz-map.com/Agents/15467",
      "category": "agents"
    },
    {
      "type": "fuzzy_match",
      "text": "methemoglobinemia",
      "matched_name": "Methemoglobinemia, acute",
      "confidence": 0.7208333333333333,
      "uuid": "473a44bd-cf11-4710-a769-e8e2b25ba317",
      "category": "diseases",
      "url": "https://haz-map.com/Diseases/210"
    }
  ],
  "all_links": [
    {
      "text": "Search PubMed",
      "url": "https://www.ncbi.nlm.nih.gov/pubmed?term=3%2c3%26%2339%3b%2c5%2c5%26%2339%3b-Tetramethylbenzidine%20AND%20human%5Bmh%5D%20AND%20%28Occupational%20Diseases%20%5Bmh%5D%20OR%20Occupational%20Exposure%20%5Bmh%5D%29%20%20AND%20%28tox%5Bsb%5D%29&cmd=search"
    }
  ]
}