{
  "metadata": {
    "scraped_from": "https://haz-map.com/Agents/18229",
    "entity_name": "Triethylindium",
    "category": "agents",
    "uuid": "7dd66a56-1a7d-411b-9c3c-e7488073b4fa",
    "scraped_at": "2025-07-23T21:54:11.025913"
  },
  "parsed_at": "2025-07-24T00:57:09.797748",
  "title": "Triethylindium",
  "sections": {
    "general": {
      "agent_name": {
        "original_name": "Agent Name",
        "value": "Triethylindium",
        "links": [],
        "cross_references": [
          {
            "type": "name_match",
            "text": "indium",
            "confidence": 1.0,
            "uuid": "0c4a4460-702e-4da9-9cb6-b3d8183631a5",
            "name": "Indium",
            "url": "https://haz-map.com/Agents/521",
            "category": "agents"
          },
          {
            "type": "name_match",
            "text": "triethylindium",
            "confidence": 1.0,
            "uuid": "7dd66a56-1a7d-411b-9c3c-e7488073b4fa",
            "name": "Triethylindium",
            "url": "https://haz-map.com/Agents/18229",
            "category": "agents"
          }
        ]
      },
      "cas_number": {
        "original_name": "CAS Number",
        "value": "923-34-2",
        "links": [],
        "cross_references": []
      },
      "formula": {
        "original_name": "Formula",
        "value": "C6-H15-In",
        "links": [],
        "cross_references": []
      },
      "major_category": {
        "original_name": "Major Category",
        "value": "Metals",
        "links": [],
        "cross_references": []
      },
      "synonyms": {
        "original_name": "Synonyms",
        "value": "Indium, triethyl-; [ChemIDplus] TEI SSG (TRIETHYLINDIUM); TEI Select Semiconductor Grade; [Akzo Nobel MSDS] UN2003",
        "links": [],
        "cross_references": [
          {
            "type": "name_match",
            "text": "indium",
            "confidence": 1.0,
            "uuid": "0c4a4460-702e-4da9-9cb6-b3d8183631a5",
            "name": "Indium",
            "url": "https://haz-map.com/Agents/521",
            "category": "agents"
          },
          {
            "type": "name_match",
            "text": "triethylindium",
            "confidence": 1.0,
            "uuid": "7dd66a56-1a7d-411b-9c3c-e7488073b4fa",
            "name": "Triethylindium",
            "url": "https://haz-map.com/Agents/18229",
            "category": "agents"
          }
        ]
      },
      "category": {
        "original_name": "Category",
        "value": "Metals, Organic Compounds",
        "links": [],
        "cross_references": [
          {
            "type": "fuzzy_match",
            "text": "organic compounds",
            "matched_name": "Tin, organic compounds",
            "confidence": 0.8196969696969697,
            "uuid": "e027d413-8869-4308-9eb2-27d768b011ea",
            "category": "agents",
            "url": "https://haz-map.com/Agents/656"
          }
        ]
      },
      "description": {
        "original_name": "Description",
        "value": "Clear colorless liquid; [Akzo Nobel MSDS]",
        "links": [],
        "cross_references": []
      },
      "sourcesuses": {
        "original_name": "Sources/Uses",
        "value": "Used in semiconductors; [Akzo Nobel MSDS]",
        "links": [],
        "cross_references": []
      },
      "comments": {
        "original_name": "Comments",
        "value": "Pyrophoric; Reacts violently with water; Causes burns; Harmful by ingestion and inhalation; [Akzo Nobel MSDS] See \"Indium.\" See \"Trimethylindium.\"",
        "links": [],
        "cross_references": [
          {
            "type": "name_match",
            "text": "burn",
            "confidence": 1.0,
            "uuid": "63665de5-6376-4918-8dbf-4c10c4d63837",
            "name": "burn",
            "url": "https://haz-map.com/Findings/204",
            "category": "findings"
          },
          {
            "type": "name_match",
            "text": "indium",
            "confidence": 1.0,
            "uuid": "0c4a4460-702e-4da9-9cb6-b3d8183631a5",
            "name": "Indium",
            "url": "https://haz-map.com/Agents/521",
            "category": "agents"
          },
          {
            "type": "name_match",
            "text": "water",
            "confidence": 1.0,
            "uuid": "6f2a7557-dfd2-49bc-9b4b-a93cd8e225d4",
            "name": "Water",
            "url": "https://haz-map.com/Agents/18668",
            "category": "agents"
          }
        ]
      },
      "biomedical_references": {
        "original_name": "Biomedical References",
        "value": "Search PubMed",
        "links": [
          {
            "text": "Search PubMed",
            "url": "https://www.ncbi.nlm.nih.gov/pubmed?term=Triethylindium%20AND%20human%5Bmh%5D%20AND%20%28Occupational%20Diseases%20%5Bmh%5D%20OR%20Occupational%20Exposure%20%5Bmh%5D%29%20%20AND%20%28tox%5Bsb%5D%29&cmd=search"
          }
        ],
        "cross_references": []
      }
    },
    "exposure_assessment": {
      "tlv_acgih": {
        "original_name": "TLV (ACGIH)",
        "value": "0.1 mg/m3, as In",
        "links": [],
        "cross_references": []
      },
      "explanatory_notes": {
        "original_name": "Explanatory Notes",
        "value": "Vapor pressure = 4 mm Hg at 60 deg C; [Akzo Nobel MSDS] The Guide in the Emergency Response Guidebook is for \"Metal alkyls, water-reactive, n.o.s.\"",
        "links": [],
        "cross_references": [
          {
            "type": "name_match",
            "text": "water",
            "confidence": 1.0,
            "uuid": "6f2a7557-dfd2-49bc-9b4b-a93cd8e225d4",
            "name": "Water",
            "url": "https://haz-map.com/Agents/18668",
            "category": "agents"
          }
        ]
      }
    },
    "adverse_effects": {
      "toxic_pneumonitis": {
        "original_name": "Toxic Pneumonitis",
        "value": "Yes",
        "links": [],
        "cross_references": []
      },
      "dermatotoxin": {
        "original_name": "Dermatotoxin",
        "value": "Skin burns",
        "links": [],
        "cross_references": [
          {
            "type": "name_match",
            "text": "burn",
            "confidence": 1.0,
            "uuid": "63665de5-6376-4918-8dbf-4c10c4d63837",
            "name": "burn",
            "url": "https://haz-map.com/Findings/204",
            "category": "findings"
          }
        ]
      }
    },
    "diseases_processes_and_activities_linked_to_this_agent": {
      "processes": {
        "original_name": "Processes",
        "value": "Industrial Processes with risk of exposure: Semiconductor Manufacturing",
        "links": [
          {
            "text": "Semiconductor Manufacturing",
            "url": "https://haz-map.com/Processes/97"
          }
        ],
        "cross_references": [
          {
            "type": "url_match",
            "text": "Semiconductor Manufacturing",
            "url": "https://haz-map.com/Processes/97",
            "confidence": 1.0,
            "uuid": "a1adedb7-a724-4539-9aff-c43b42706b89",
            "name": "Semiconductor Manufacturing",
            "category": "processes"
          }
        ]
      }
    }
  },
  "cross_references": [
    {
      "type": "url_match",
      "text": "Semiconductor Manufacturing",
      "url": "https://haz-map.com/Processes/97",
      "confidence": 1.0,
      "uuid": "a1adedb7-a724-4539-9aff-c43b42706b89",
      "name": "Semiconductor Manufacturing",
      "category": "processes"
    },
    {
      "type": "name_match",
      "text": "burn",
      "confidence": 1.0,
      "uuid": "63665de5-6376-4918-8dbf-4c10c4d63837",
      "name": "burn",
      "url": "https://haz-map.com/Findings/204",
      "category": "findings"
    },
    {
      "type": "name_match",
      "text": "indium",
      "confidence": 1.0,
      "uuid": "0c4a4460-702e-4da9-9cb6-b3d8183631a5",
      "name": "Indium",
      "url": "https://haz-map.com/Agents/521",
      "category": "agents"
    },
    {
      "type": "name_match",
      "text": "triethylindium",
      "confidence": 1.0,
      "uuid": "7dd66a56-1a7d-411b-9c3c-e7488073b4fa",
      "name": "Triethylindium",
      "url": "https://haz-map.com/Agents/18229",
      "category": "agents"
    },
    {
      "type": "name_match",
      "text": "water",
      "confidence": 1.0,
      "uuid": "6f2a7557-dfd2-49bc-9b4b-a93cd8e225d4",
      "name": "Water",
      "url": "https://haz-map.com/Agents/18668",
      "category": "agents"
    },
    {
      "type": "fuzzy_match",
      "text": "organic compounds",
      "matched_name": "Tin, organic compounds",
      "confidence": 0.8196969696969697,
      "uuid": "e027d413-8869-4308-9eb2-27d768b011ea",
      "category": "agents",
      "url": "https://haz-map.com/Agents/656"
    }
  ],
  "all_links": [
    {
      "text": "Search PubMed",
      "url": "https://www.ncbi.nlm.nih.gov/pubmed?term=Triethylindium%20AND%20human%5Bmh%5D%20AND%20%28Occupational%20Diseases%20%5Bmh%5D%20OR%20Occupational%20Exposure%20%5Bmh%5D%29%20%20AND%20%28tox%5Bsb%5D%29&cmd=search"
    },
    {
      "text": "Semiconductor Manufacturing",
      "url": "https://haz-map.com/Processes/97"
    }
  ]
}