{
  "metadata": {
    "scraped_from": "https://haz-map.com/Agents/19923",
    "entity_name": "3-Methyl-2-buten-1-ol",
    "category": "agents",
    "uuid": "7ddfd221-ae45-485c-a5b7-735b3da66969",
    "scraped_at": "2025-07-23T22:15:26.864169"
  },
  "parsed_at": "2025-07-24T01:19:14.217065",
  "title": "3-Methyl-2-buten-1-ol",
  "sections": {
    "general": {
      "agent_name": {
        "original_name": "Agent Name",
        "value": "3-Methyl-2-buten-1-ol",
        "links": [],
        "cross_references": [
          {
            "type": "name_match",
            "text": "3-methyl-2-buten-1-ol",
            "confidence": 1.0,
            "uuid": "7ddfd221-ae45-485c-a5b7-735b3da66969",
            "name": "3-Methyl-2-buten-1-ol",
            "url": "https://haz-map.com/Agents/19923",
            "category": "agents"
          }
        ]
      },
      "cas_number": {
        "original_name": "CAS Number",
        "value": "556-82-1",
        "links": [],
        "cross_references": []
      },
      "formula": {
        "original_name": "Formula",
        "value": "C5-H10-O",
        "links": [],
        "cross_references": []
      },
      "major_category": {
        "original_name": "Major Category",
        "value": "Other Classes",
        "links": [],
        "cross_references": []
      },
      "synonyms": {
        "original_name": "Synonyms",
        "value": "2-Buten-1-ol, 3-methyl-; 3,3-Dimethylallyl alcohol; 3-Methyl-2-butenol; 3-Methyl-2-butenyl alcohol; 3-Methylcrotyl alcohol; Dimethylallyl alcohol; Prenol; Prenyl alcohol; 3-Methylbut-2-en-1-ol; [ChemIDplus] gamma,gamma-Dimethylallyl alcohol; 2-Methyl-2-buten-4-ol; [JECFA] 3-Methyl-buten-2-ol-1; [OECD SIDS: IUCLID Data Set] UN1987",
        "links": [],
        "cross_references": [
          {
            "type": "name_match",
            "text": "allyl alcohol",
            "confidence": 1.0,
            "uuid": "c235e99a-777b-43d1-94df-f6ede137022d",
            "name": "Allyl alcohol",
            "url": "https://haz-map.com/Agents/242",
            "category": "agents"
          },
          {
            "type": "name_match",
            "text": "methylal",
            "confidence": 1.0,
            "uuid": "27aa92c4-7ed1-4f60-8903-41e72d99556f",
            "name": "Methylal",
            "url": "https://haz-map.com/Agents/555",
            "category": "agents"
          },
          {
            "type": "name_match",
            "text": "crotyl alcohol",
            "confidence": 1.0,
            "uuid": "f50c4288-d196-42e8-91ee-d8e84664e9a9",
            "name": "Crotyl alcohol",
            "url": "https://haz-map.com/Agents/20490",
            "category": "agents"
          },
          {
            "type": "fuzzy_match",
            "text": "2-buten-1-ol,",
            "matched_name": "2-Buten-1-ol, (2Z)-",
            "confidence": 0.7087719298245614,
            "uuid": "933b0592-ee36-4a74-b51e-277b78183686",
            "category": "agents",
            "url": "https://haz-map.com/Agents/10565"
          }
        ]
      },
      "category": {
        "original_name": "Category",
        "value": "Alcohols and Polyols, Other",
        "links": [],
        "cross_references": []
      },
      "description": {
        "original_name": "Description",
        "value": "Colorless liquid with an alcoholic odor; [OECD SIDS: IUCLID Data Set]",
        "links": [],
        "cross_references": []
      },
      "sourcesuses": {
        "original_name": "Sources/Uses",
        "value": "Used as a flavoring agent; [FDA] Used as an intermediate for citral and in cosmetics; [OECD SIDS: IUCLID Data Set]",
        "links": [],
        "cross_references": [
          {
            "type": "name_match",
            "text": "citral",
            "confidence": 1.0,
            "uuid": "46e9ba94-d0de-4e2a-ac14-a563f81ccb88",
            "name": "Citral",
            "url": "https://haz-map.com/Agents/4442",
            "category": "agents"
          }
        ]
      },
      "comments": {
        "original_name": "Comments",
        "value": "A moderate skin irritant; [RTECS] A severe skin and eye irritant; [ICSC] Safe when used as a flavoring agent in food; [JECFA] Causes burns; Harmful by ingestion; [ECHA REACH Registrations] A skin and strong eye irritant; Toxic by ingestion; [Alfa Aesar MSDS]",
        "links": [],
        "cross_references": [
          {
            "type": "name_match",
            "text": "burn",
            "confidence": 1.0,
            "uuid": "63665de5-6376-4918-8dbf-4c10c4d63837",
            "name": "burn",
            "url": "https://haz-map.com/Findings/204",
            "category": "findings"
          }
        ]
      },
      "biomedical_references": {
        "original_name": "Biomedical References",
        "value": "Search PubMed",
        "links": [
          {
            "text": "Search PubMed",
            "url": "https://www.ncbi.nlm.nih.gov/pubmed?term=3-Methyl-2-buten-1-ol%20AND%20human%5Bmh%5D%20AND%20%28Occupational%20Diseases%20%5Bmh%5D%20OR%20Occupational%20Exposure%20%5Bmh%5D%29%20%20AND%20%28tox%5Bsb%5D%29&cmd=search"
          }
        ],
        "cross_references": []
      }
    },
    "exposure_assessment": {
      "vapor_pressure": {
        "original_name": "Vapor Pressure",
        "value": "1.05 mm Hg",
        "links": [],
        "cross_references": []
      },
      "explanatory_notes": {
        "original_name": "Explanatory Notes",
        "value": "The Guide in the Emergency Response Guidebook is for \"Alcohols, n.o.s.\"",
        "links": [],
        "cross_references": []
      }
    },
    "adverse_effects": {
      "dermatotoxin": {
        "original_name": "Dermatotoxin",
        "value": "Skin burns",
        "links": [],
        "cross_references": [
          {
            "type": "name_match",
            "text": "burn",
            "confidence": 1.0,
            "uuid": "63665de5-6376-4918-8dbf-4c10c4d63837",
            "name": "burn",
            "url": "https://haz-map.com/Findings/204",
            "category": "findings"
          }
        ]
      }
    },
    "diseases_processes_and_activities_linked_to_this_agent": {
      "other_information": {
        "original_name": "Other Information",
        "value": "No other related information on this agent was found.",
        "links": [],
        "cross_references": []
      }
    }
  },
  "cross_references": [
    {
      "type": "name_match",
      "text": "burn",
      "confidence": 1.0,
      "uuid": "63665de5-6376-4918-8dbf-4c10c4d63837",
      "name": "burn",
      "url": "https://haz-map.com/Findings/204",
      "category": "findings"
    },
    {
      "type": "name_match",
      "text": "allyl alcohol",
      "confidence": 1.0,
      "uuid": "c235e99a-777b-43d1-94df-f6ede137022d",
      "name": "Allyl alcohol",
      "url": "https://haz-map.com/Agents/242",
      "category": "agents"
    },
    {
      "type": "name_match",
      "text": "methylal",
      "confidence": 1.0,
      "uuid": "27aa92c4-7ed1-4f60-8903-41e72d99556f",
      "name": "Methylal",
      "url": "https://haz-map.com/Agents/555",
      "category": "agents"
    },
    {
      "type": "name_match",
      "text": "citral",
      "confidence": 1.0,
      "uuid": "46e9ba94-d0de-4e2a-ac14-a563f81ccb88",
      "name": "Citral",
      "url": "https://haz-map.com/Agents/4442",
      "category": "agents"
    },
    {
      "type": "name_match",
      "text": "3-methyl-2-buten-1-ol",
      "confidence": 1.0,
      "uuid": "7ddfd221-ae45-485c-a5b7-735b3da66969",
      "name": "3-Methyl-2-buten-1-ol",
      "url": "https://haz-map.com/Agents/19923",
      "category": "agents"
    },
    {
      "type": "name_match",
      "text": "crotyl alcohol",
      "confidence": 1.0,
      "uuid": "f50c4288-d196-42e8-91ee-d8e84664e9a9",
      "name": "Crotyl alcohol",
      "url": "https://haz-map.com/Agents/20490",
      "category": "agents"
    },
    {
      "type": "fuzzy_match",
      "text": "2-buten-1-ol,",
      "matched_name": "2-Buten-1-ol, (2Z)-",
      "confidence": 0.7087719298245614,
      "uuid": "933b0592-ee36-4a74-b51e-277b78183686",
      "category": "agents",
      "url": "https://haz-map.com/Agents/10565"
    }
  ],
  "all_links": [
    {
      "text": "Search PubMed",
      "url": "https://www.ncbi.nlm.nih.gov/pubmed?term=3-Methyl-2-buten-1-ol%20AND%20human%5Bmh%5D%20AND%20%28Occupational%20Diseases%20%5Bmh%5D%20OR%20Occupational%20Exposure%20%5Bmh%5D%29%20%20AND%20%28tox%5Bsb%5D%29&cmd=search"
    }
  ]
}