{
  "metadata": {
    "scraped_from": "https://haz-map.com/Agents/19144",
    "entity_name": "Trimethylsilylacetylene",
    "category": "agents",
    "uuid": "7de26e35-7041-42d4-b392-5bcb95ed537a",
    "scraped_at": "2025-07-23T22:00:17.049313"
  },
  "parsed_at": "2025-07-24T00:51:52.956438",
  "title": "Trimethylsilylacetylene",
  "sections": {
    "general": {
      "agent_name": {
        "original_name": "Agent Name",
        "value": "Trimethylsilylacetylene",
        "links": [],
        "cross_references": [
          {
            "type": "name_match",
            "text": "acetylene",
            "confidence": 1.0,
            "uuid": "97b59022-d2fe-4fa2-a06d-8bb8f566165b",
            "name": "Acetylene",
            "url": "https://haz-map.com/Agents/19",
            "category": "agents"
          },
          {
            "type": "name_match",
            "text": "trimethylsilylacetylene",
            "confidence": 1.0,
            "uuid": "7de26e35-7041-42d4-b392-5bcb95ed537a",
            "name": "Trimethylsilylacetylene",
            "url": "https://haz-map.com/Agents/19144",
            "category": "agents"
          }
        ]
      },
      "cas_number": {
        "original_name": "CAS Number",
        "value": "1066-54-2",
        "links": [],
        "cross_references": []
      },
      "formula": {
        "original_name": "Formula",
        "value": "C5-H10-Si",
        "links": [],
        "cross_references": []
      },
      "major_category": {
        "original_name": "Major Category",
        "value": "Metals",
        "links": [],
        "cross_references": []
      },
      "synonyms": {
        "original_name": "Synonyms",
        "value": "Silane, ethynyltrimethyl-; [ChemIDplus] (Trimethylsilyl)acetylene; [Alfa Aesar MSDS] UN1993",
        "links": [],
        "cross_references": [
          {
            "type": "name_match",
            "text": "acetylene",
            "confidence": 1.0,
            "uuid": "97b59022-d2fe-4fa2-a06d-8bb8f566165b",
            "name": "Acetylene",
            "url": "https://haz-map.com/Agents/19",
            "category": "agents"
          }
        ]
      },
      "category": {
        "original_name": "Category",
        "value": "Metalloid Compounds (Silicon)",
        "links": [],
        "cross_references": [
          {
            "type": "name_match",
            "text": "silicon",
            "confidence": 1.0,
            "uuid": "443f4405-7a1f-47db-bf43-809557f77483",
            "name": "Silicon",
            "url": "https://haz-map.com/Agents/623",
            "category": "agents"
          }
        ]
      },
      "description": {
        "original_name": "Description",
        "value": "Colorless liquid; [Alfa Aesar MSDS]",
        "links": [],
        "cross_references": []
      },
      "comments": {
        "original_name": "Comments",
        "value": "May cause irritation; [Alfa Aesar MSDS] See \"1-Phenyl-2-(trimethylsilyl)acetylene\" and \"Phenylacetylene.\"",
        "links": [],
        "cross_references": [
          {
            "type": "name_match",
            "text": "acetylene",
            "confidence": 1.0,
            "uuid": "97b59022-d2fe-4fa2-a06d-8bb8f566165b",
            "name": "Acetylene",
            "url": "https://haz-map.com/Agents/19",
            "category": "agents"
          },
          {
            "type": "name_match",
            "text": "phenylacetylene",
            "confidence": 1.0,
            "uuid": "7a73055a-03ef-4b59-a584-ef9682316681",
            "name": "Phenylacetylene",
            "url": "https://haz-map.com/Agents/16560",
            "category": "agents"
          },
          {
            "type": "name_match",
            "text": "1-phenyl-2-(trimethylsilyl)acetylene",
            "confidence": 1.0,
            "uuid": "2ea64e63-4854-430e-9b1a-df14f9961e47",
            "name": "1-Phenyl-2-(trimethylsilyl)acetylene",
            "url": "https://haz-map.com/Agents/19401",
            "category": "agents"
          }
        ]
      },
      "biomedical_references": {
        "original_name": "Biomedical References",
        "value": "Search PubMed",
        "links": [
          {
            "text": "Search PubMed",
            "url": "https://www.ncbi.nlm.nih.gov/pubmed?term=Trimethylsilylacetylene%20AND%20human%5Bmh%5D%20AND%20%28Occupational%20Diseases%20%5Bmh%5D%20OR%20Occupational%20Exposure%20%5Bmh%5D%29%20%20AND%20%28tox%5Bsb%5D%29&cmd=search"
          }
        ],
        "cross_references": []
      }
    },
    "exposure_assessment": {
      "vapor_pressure": {
        "original_name": "Vapor Pressure",
        "value": "224 mm Hg",
        "links": [],
        "cross_references": []
      },
      "explanatory_notes": {
        "original_name": "Explanatory Notes",
        "value": "The Guide in the Emergency Response Guidebook is for \"Flammable liquid, n.o.s.\"",
        "links": [],
        "cross_references": []
      }
    },
    "diseases_processes_and_activities_linked_to_this_agent": {
      "other_information": {
        "original_name": "Other Information",
        "value": "No other related information on this agent was found.",
        "links": [],
        "cross_references": []
      }
    }
  },
  "cross_references": [
    {
      "type": "name_match",
      "text": "acetylene",
      "confidence": 1.0,
      "uuid": "97b59022-d2fe-4fa2-a06d-8bb8f566165b",
      "name": "Acetylene",
      "url": "https://haz-map.com/Agents/19",
      "category": "agents"
    },
    {
      "type": "name_match",
      "text": "silicon",
      "confidence": 1.0,
      "uuid": "443f4405-7a1f-47db-bf43-809557f77483",
      "name": "Silicon",
      "url": "https://haz-map.com/Agents/623",
      "category": "agents"
    },
    {
      "type": "name_match",
      "text": "phenylacetylene",
      "confidence": 1.0,
      "uuid": "7a73055a-03ef-4b59-a584-ef9682316681",
      "name": "Phenylacetylene",
      "url": "https://haz-map.com/Agents/16560",
      "category": "agents"
    },
    {
      "type": "name_match",
      "text": "trimethylsilylacetylene",
      "confidence": 1.0,
      "uuid": "7de26e35-7041-42d4-b392-5bcb95ed537a",
      "name": "Trimethylsilylacetylene",
      "url": "https://haz-map.com/Agents/19144",
      "category": "agents"
    },
    {
      "type": "name_match",
      "text": "1-phenyl-2-(trimethylsilyl)acetylene",
      "confidence": 1.0,
      "uuid": "2ea64e63-4854-430e-9b1a-df14f9961e47",
      "name": "1-Phenyl-2-(trimethylsilyl)acetylene",
      "url": "https://haz-map.com/Agents/19401",
      "category": "agents"
    }
  ],
  "all_links": [
    {
      "text": "Search PubMed",
      "url": "https://www.ncbi.nlm.nih.gov/pubmed?term=Trimethylsilylacetylene%20AND%20human%5Bmh%5D%20AND%20%28Occupational%20Diseases%20%5Bmh%5D%20OR%20Occupational%20Exposure%20%5Bmh%5D%29%20%20AND%20%28tox%5Bsb%5D%29&cmd=search"
    }
  ]
}