{
  "metadata": {
    "scraped_from": "https://haz-map.com/Agents/10233",
    "entity_name": "1-Nitroso-2-naphthol",
    "category": "agents",
    "uuid": "7de8a772-c684-41ba-ac04-23fd73f28779",
    "scraped_at": "2025-07-23T20:45:38.395792"
  },
  "parsed_at": "2025-07-24T00:51:32.632502",
  "title": "1-Nitroso-2-naphthol",
  "sections": {
    "general": {
      "agent_name": {
        "original_name": "Agent Name",
        "value": "1-Nitroso-2-naphthol",
        "links": [],
        "cross_references": [
          {
            "type": "name_match",
            "text": "ht",
            "confidence": 1.0,
            "uuid": "764df367-8d53-4a11-81a2-31ccfe122a8d",
            "name": "HT",
            "url": "https://haz-map.com/Agents/2168",
            "category": "agents"
          },
          {
            "type": "name_match",
            "text": "2-naphthol",
            "confidence": 1.0,
            "uuid": "152d75dd-ac6f-405f-bd70-2861b7454612",
            "name": "2-Naphthol",
            "url": "https://haz-map.com/Agents/3143",
            "category": "agents"
          },
          {
            "type": "name_match",
            "text": "1-nitroso-2-naphthol",
            "confidence": 1.0,
            "uuid": "7de8a772-c684-41ba-ac04-23fd73f28779",
            "name": "1-Nitroso-2-naphthol",
            "url": "https://haz-map.com/Agents/10233",
            "category": "agents"
          }
        ]
      },
      "cas_number": {
        "original_name": "CAS Number",
        "value": "131-91-9",
        "links": [],
        "cross_references": []
      },
      "formula": {
        "original_name": "Formula",
        "value": "C10-H7-N-O2",
        "links": [],
        "cross_references": []
      },
      "major_category": {
        "original_name": "Major Category",
        "value": "Nitrogen Compounds",
        "links": [],
        "cross_references": [
          {
            "type": "name_match",
            "text": "nitrogen",
            "confidence": 1.0,
            "uuid": "db5e90a9-06d2-45b9-8b81-f345a89b0bc0",
            "name": "Nitrogen",
            "url": "https://haz-map.com/Agents/1072",
            "category": "agents"
          }
        ]
      },
      "synonyms": {
        "original_name": "Synonyms",
        "value": "1-Nitroso-2-naftol [Czech]; C.I. 10000; Nitroso-beta-naphthol; Zelen moridlova 4 [Czech]; alpha-Nitroso-beta-naftol [Czech]; 2-Naphthalenol, 1-nitroso-; 2-Naphthol, 1-nitroso-; [ChemIDplus]",
        "links": [],
        "cross_references": [
          {
            "type": "name_match",
            "text": "ht",
            "confidence": 1.0,
            "uuid": "764df367-8d53-4a11-81a2-31ccfe122a8d",
            "name": "HT",
            "url": "https://haz-map.com/Agents/2168",
            "category": "agents"
          },
          {
            "type": "name_match",
            "text": "2-naphthol",
            "confidence": 1.0,
            "uuid": "152d75dd-ac6f-405f-bd70-2861b7454612",
            "name": "2-Naphthol",
            "url": "https://haz-map.com/Agents/3143",
            "category": "agents"
          }
        ]
      },
      "category": {
        "original_name": "Category",
        "value": "Other Aromatics (Nitrogen)",
        "links": [],
        "cross_references": [
          {
            "type": "name_match",
            "text": "nitrogen",
            "confidence": 1.0,
            "uuid": "db5e90a9-06d2-45b9-8b81-f345a89b0bc0",
            "name": "Nitrogen",
            "url": "https://haz-map.com/Agents/1072",
            "category": "agents"
          }
        ]
      },
      "description": {
        "original_name": "Description",
        "value": "Yellowish-brown solid; [Merck Index] Brown powder; [Alfa Aesar MSDS]",
        "links": [],
        "cross_references": []
      },
      "sourcesuses": {
        "original_name": "Sources/Uses",
        "value": "Used to prevent gum formation in gasoline and for determination of cobalt; [Merck Index]",
        "links": [],
        "cross_references": [
          {
            "type": "name_match",
            "text": "cobalt",
            "confidence": 1.0,
            "uuid": "a4fbb4f1-add0-4f74-b979-12bd4131c80e",
            "name": "Cobalt",
            "url": "https://haz-map.com/Agents/37",
            "category": "agents"
          },
          {
            "type": "name_match",
            "text": "gasoline",
            "confidence": 1.0,
            "uuid": "af15c833-3eae-46c5-9af4-2214858d7282",
            "name": "Gasoline",
            "url": "https://haz-map.com/Agents/410",
            "category": "agents"
          }
        ]
      },
      "comments": {
        "original_name": "Comments",
        "value": "A skin and strong eye irritant; Harmful by ingestion; [Alfa Aesar MSDS] See \"2-Nitroso-1-naphthol.\"",
        "links": [],
        "cross_references": [
          {
            "type": "name_match",
            "text": "ht",
            "confidence": 1.0,
            "uuid": "764df367-8d53-4a11-81a2-31ccfe122a8d",
            "name": "HT",
            "url": "https://haz-map.com/Agents/2168",
            "category": "agents"
          },
          {
            "type": "name_match",
            "text": "1-naphthol",
            "confidence": 1.0,
            "uuid": "7095657c-d0c3-4b7c-ab72-7af1a2e6c0fc",
            "name": "1-Naphthol",
            "url": "https://haz-map.com/Agents/2904",
            "category": "agents"
          },
          {
            "type": "name_match",
            "text": "2-nitroso-1-naphthol",
            "confidence": 1.0,
            "uuid": "b804cdde-2dc0-4401-92e3-842b09d301ee",
            "name": "2-Nitroso-1-naphthol",
            "url": "https://haz-map.com/Agents/3152",
            "category": "agents"
          }
        ]
      },
      "biomedical_references": {
        "original_name": "Biomedical References",
        "value": "Search PubMed",
        "links": [
          {
            "text": "Search PubMed",
            "url": "https://www.ncbi.nlm.nih.gov/pubmed?term=1-Nitroso-2-naphthol%20AND%20human%5Bmh%5D%20AND%20%28Occupational%20Diseases%20%5Bmh%5D%20OR%20Occupational%20Exposure%20%5Bmh%5D%29%20%20AND%20%28tox%5Bsb%5D%29&cmd=search"
          }
        ],
        "cross_references": []
      }
    },
    "exposure_assessment": {
      "vapor_pressure": {
        "original_name": "Vapor Pressure",
        "value": "9.11E-05 mm Hg",
        "links": [],
        "cross_references": []
      }
    },
    "diseases_processes_and_activities_linked_to_this_agent": {
      "other_information": {
        "original_name": "Other Information",
        "value": "No other related information on this agent was found.",
        "links": [],
        "cross_references": []
      }
    }
  },
  "cross_references": [
    {
      "type": "name_match",
      "text": "cobalt",
      "confidence": 1.0,
      "uuid": "a4fbb4f1-add0-4f74-b979-12bd4131c80e",
      "name": "Cobalt",
      "url": "https://haz-map.com/Agents/37",
      "category": "agents"
    },
    {
      "type": "name_match",
      "text": "gasoline",
      "confidence": 1.0,
      "uuid": "af15c833-3eae-46c5-9af4-2214858d7282",
      "name": "Gasoline",
      "url": "https://haz-map.com/Agents/410",
      "category": "agents"
    },
    {
      "type": "name_match",
      "text": "nitrogen",
      "confidence": 1.0,
      "uuid": "db5e90a9-06d2-45b9-8b81-f345a89b0bc0",
      "name": "Nitrogen",
      "url": "https://haz-map.com/Agents/1072",
      "category": "agents"
    },
    {
      "type": "name_match",
      "text": "ht",
      "confidence": 1.0,
      "uuid": "764df367-8d53-4a11-81a2-31ccfe122a8d",
      "name": "HT",
      "url": "https://haz-map.com/Agents/2168",
      "category": "agents"
    },
    {
      "type": "name_match",
      "text": "1-naphthol",
      "confidence": 1.0,
      "uuid": "7095657c-d0c3-4b7c-ab72-7af1a2e6c0fc",
      "name": "1-Naphthol",
      "url": "https://haz-map.com/Agents/2904",
      "category": "agents"
    },
    {
      "type": "name_match",
      "text": "2-naphthol",
      "confidence": 1.0,
      "uuid": "152d75dd-ac6f-405f-bd70-2861b7454612",
      "name": "2-Naphthol",
      "url": "https://haz-map.com/Agents/3143",
      "category": "agents"
    },
    {
      "type": "name_match",
      "text": "2-nitroso-1-naphthol",
      "confidence": 1.0,
      "uuid": "b804cdde-2dc0-4401-92e3-842b09d301ee",
      "name": "2-Nitroso-1-naphthol",
      "url": "https://haz-map.com/Agents/3152",
      "category": "agents"
    },
    {
      "type": "name_match",
      "text": "1-nitroso-2-naphthol",
      "confidence": 1.0,
      "uuid": "7de8a772-c684-41ba-ac04-23fd73f28779",
      "name": "1-Nitroso-2-naphthol",
      "url": "https://haz-map.com/Agents/10233",
      "category": "agents"
    }
  ],
  "all_links": [
    {
      "text": "Search PubMed",
      "url": "https://www.ncbi.nlm.nih.gov/pubmed?term=1-Nitroso-2-naphthol%20AND%20human%5Bmh%5D%20AND%20%28Occupational%20Diseases%20%5Bmh%5D%20OR%20Occupational%20Exposure%20%5Bmh%5D%29%20%20AND%20%28tox%5Bsb%5D%29&cmd=search"
    }
  ]
}