{
  "metadata": {
    "scraped_from": "https://haz-map.com/Agents/19030",
    "entity_name": "Polyethylene glycol dimethyl ether",
    "category": "agents",
    "uuid": "7de97be1-f446-417c-9f36-ed3173f5aa9f",
    "scraped_at": "2025-07-23T21:58:28.166806"
  },
  "parsed_at": "2025-07-24T01:07:08.370220",
  "title": "Polyethylene glycol dimethyl ether",
  "sections": {
    "general": {
      "agent_name": {
        "original_name": "Agent Name",
        "value": "Polyethylene glycol dimethyl ether",
        "links": [],
        "cross_references": [
          {
            "type": "name_match",
            "text": "ethyl ether",
            "confidence": 1.0,
            "uuid": "c95edddc-9ad3-44f8-bafa-78e0bd19db3a",
            "name": "Ethyl ether",
            "url": "https://haz-map.com/Agents/455",
            "category": "agents"
          },
          {
            "type": "name_match",
            "text": "ethylene glycol",
            "confidence": 1.0,
            "uuid": "99589035-d71c-415a-914c-81c7a166be11",
            "name": "Ethylene glycol",
            "url": "https://haz-map.com/Agents/488",
            "category": "agents"
          },
          {
            "type": "name_match",
            "text": "polyethylene",
            "confidence": 1.0,
            "uuid": "49cd0ad9-abe0-4650-bb5b-a2e2e68f0cae",
            "name": "Polyethylene",
            "url": "https://haz-map.com/Agents/850",
            "category": "agents"
          },
          {
            "type": "name_match",
            "text": "ethylene",
            "confidence": 1.0,
            "uuid": "958eacc0-5135-4b62-bb93-6df972bf552f",
            "name": "Ethylene",
            "url": "https://haz-map.com/Agents/1076",
            "category": "agents"
          },
          {
            "type": "name_match",
            "text": "dimethyl ether",
            "confidence": 1.0,
            "uuid": "a12a0b82-a115-4243-98a7-3e9a2c4700ed",
            "name": "Dimethyl ether",
            "url": "https://haz-map.com/Agents/1483",
            "category": "agents"
          },
          {
            "type": "name_match",
            "text": "polyethylene glycol",
            "confidence": 1.0,
            "uuid": "f5b55322-38d4-428d-93e6-34611f9fedce",
            "name": "Polyethylene glycol",
            "url": "https://haz-map.com/Agents/6752",
            "category": "agents"
          },
          {
            "type": "name_match",
            "text": "polyethylene glycol dimethyl ether",
            "confidence": 1.0,
            "uuid": "7de97be1-f446-417c-9f36-ed3173f5aa9f",
            "name": "Polyethylene glycol dimethyl ether",
            "url": "https://haz-map.com/Agents/19030",
            "category": "agents"
          }
        ]
      },
      "alternative_name": {
        "original_name": "Alternative Name",
        "value": "Polyglyme",
        "links": [],
        "cross_references": []
      },
      "cas_number": {
        "original_name": "CAS Number",
        "value": "24991-55-7",
        "links": [],
        "cross_references": []
      },
      "formula": {
        "original_name": "Formula",
        "value": "(C2-H4-O)mult-C2-H6-O",
        "links": [],
        "cross_references": []
      },
      "major_category": {
        "original_name": "Major Category",
        "value": "Other Classes",
        "links": [],
        "cross_references": []
      },
      "synonyms": {
        "original_name": "Synonyms",
        "value": "Polyglyme; [www.actio.net] Carpol CLE 1000; Dimethoxy polyethylene glycol; Genosorb 175; Genosorb 300; Glyme-23; Nissan Unisafe MM 1000; Nissan Unisafe MM 400; PEG-DME 2000; Polyoxyethylene dimethyl ether; Sanfine DM 1000; Sanfine DM 200; Sanfine DM 400; Selexol; U-Nox DM 1000; U-Nox DM 200; Varonic DM 55; alpha,omega-Methoxypoly(ethylene oxide); alpha-Methyl-omega-methoxypoly(oxy-1,2-ethanediyl); Glycols, polyethylene, dimethyl ether; Poly(oxy-1,2-ethanediyl), alpha-methyl-omega-methoxy-; [ChemIDplus] CLE 400; PEGDME; [RTECS] SELEXOL SOLVENT; [Univar MSDS]",
        "links": [],
        "cross_references": [
          {
            "type": "name_match",
            "text": "ethylene oxide",
            "confidence": 1.0,
            "uuid": "df29ee36-6345-4c09-b2c3-e3501b1449ec",
            "name": "Ethylene oxide",
            "url": "https://haz-map.com/Agents/21",
            "category": "agents"
          },
          {
            "type": "name_match",
            "text": "ethyl ether",
            "confidence": 1.0,
            "uuid": "c95edddc-9ad3-44f8-bafa-78e0bd19db3a",
            "name": "Ethyl ether",
            "url": "https://haz-map.com/Agents/455",
            "category": "agents"
          },
          {
            "type": "name_match",
            "text": "ethylene glycol",
            "confidence": 1.0,
            "uuid": "99589035-d71c-415a-914c-81c7a166be11",
            "name": "Ethylene glycol",
            "url": "https://haz-map.com/Agents/488",
            "category": "agents"
          },
          {
            "type": "name_match",
            "text": "polyethylene",
            "confidence": 1.0,
            "uuid": "49cd0ad9-abe0-4650-bb5b-a2e2e68f0cae",
            "name": "Polyethylene",
            "url": "https://haz-map.com/Agents/850",
            "category": "agents"
          },
          {
            "type": "name_match",
            "text": "ethane",
            "confidence": 1.0,
            "uuid": "5162cc8c-dfb9-4060-81ac-38a8cec7f9dd",
            "name": "Ethane",
            "url": "https://haz-map.com/Agents/1075",
            "category": "agents"
          },
          {
            "type": "name_match",
            "text": "ethylene",
            "confidence": 1.0,
            "uuid": "958eacc0-5135-4b62-bb93-6df972bf552f",
            "name": "Ethylene",
            "url": "https://haz-map.com/Agents/1076",
            "category": "agents"
          },
          {
            "type": "name_match",
            "text": "dimethyl ether",
            "confidence": 1.0,
            "uuid": "a12a0b82-a115-4243-98a7-3e9a2c4700ed",
            "name": "Dimethyl ether",
            "url": "https://haz-map.com/Agents/1483",
            "category": "agents"
          },
          {
            "type": "name_match",
            "text": "polyethylene glycol",
            "confidence": 1.0,
            "uuid": "f5b55322-38d4-428d-93e6-34611f9fedce",
            "name": "Polyethylene glycol",
            "url": "https://haz-map.com/Agents/6752",
            "category": "agents"
          }
        ]
      },
      "category": {
        "original_name": "Category",
        "value": "Polyoxyethylenes",
        "links": [],
        "cross_references": [
          {
            "type": "name_match",
            "text": "ethylene",
            "confidence": 1.0,
            "uuid": "958eacc0-5135-4b62-bb93-6df972bf552f",
            "name": "Ethylene",
            "url": "https://haz-map.com/Agents/1076",
            "category": "agents"
          }
        ]
      },
      "description": {
        "original_name": "Description",
        "value": "Transparent yellow liquid with a mild odor; [Univar MSDS]",
        "links": [],
        "cross_references": []
      },
      "sourcesuses": {
        "original_name": "Sources/Uses",
        "value": "Used in gas treatment; [Univar MSDS]",
        "links": [],
        "cross_references": []
      },
      "comments": {
        "original_name": "Comments",
        "value": "A mild skin irritant; Cause weight loss and changes in testicular weight in 2-week constant oral studies of rats; [RTECS] May cause eye irritation; Animal studies have shown testicular injury from repeated oral exposure and delayed offspring development following dermal application during gestation; [Univar MSDS] See \"Monoglyme.\"",
        "links": [],
        "cross_references": [
          {
            "type": "name_match",
            "text": "weight loss",
            "confidence": 1.0,
            "uuid": "9b7baca4-cf1b-4e78-99d2-2377fbac8f8b",
            "name": "weight loss",
            "url": "https://haz-map.com/Findings/3",
            "category": "findings"
          },
          {
            "type": "name_match",
            "text": "ht",
            "confidence": 1.0,
            "uuid": "764df367-8d53-4a11-81a2-31ccfe122a8d",
            "name": "HT",
            "url": "https://haz-map.com/Agents/2168",
            "category": "agents"
          }
        ]
      },
      "biomedical_references": {
        "original_name": "Biomedical References",
        "value": "Search PubMed",
        "links": [
          {
            "text": "Search PubMed",
            "url": "https://www.ncbi.nlm.nih.gov/pubmed?term=Polyethylene+glycol+dimethyl+ether%20AND%20human%5Bmh%5D%20AND%20%28Occupational%20Diseases%20%5Bmh%5D%20OR%20Occupational%20Exposure%20%5Bmh%5D%29%20%20AND%20%28tox%5Bsb%5D%29&cmd=search"
          }
        ],
        "cross_references": []
      }
    },
    "exposure_assessment": {
      "vapor_pressure": {
        "original_name": "Vapor Pressure",
        "value": "0.6 mm Hg",
        "links": [],
        "cross_references": []
      }
    },
    "diseases_processes_and_activities_linked_to_this_agent": {
      "other_information": {
        "original_name": "Other Information",
        "value": "No other related information on this agent was found.",
        "links": [],
        "cross_references": []
      }
    }
  },
  "cross_references": [
    {
      "type": "name_match",
      "text": "weight loss",
      "confidence": 1.0,
      "uuid": "9b7baca4-cf1b-4e78-99d2-2377fbac8f8b",
      "name": "weight loss",
      "url": "https://haz-map.com/Findings/3",
      "category": "findings"
    },
    {
      "type": "name_match",
      "text": "ethylene oxide",
      "confidence": 1.0,
      "uuid": "df29ee36-6345-4c09-b2c3-e3501b1449ec",
      "name": "Ethylene oxide",
      "url": "https://haz-map.com/Agents/21",
      "category": "agents"
    },
    {
      "type": "name_match",
      "text": "ethyl ether",
      "confidence": 1.0,
      "uuid": "c95edddc-9ad3-44f8-bafa-78e0bd19db3a",
      "name": "Ethyl ether",
      "url": "https://haz-map.com/Agents/455",
      "category": "agents"
    },
    {
      "type": "name_match",
      "text": "ethylene glycol",
      "confidence": 1.0,
      "uuid": "99589035-d71c-415a-914c-81c7a166be11",
      "name": "Ethylene glycol",
      "url": "https://haz-map.com/Agents/488",
      "category": "agents"
    },
    {
      "type": "name_match",
      "text": "polyethylene",
      "confidence": 1.0,
      "uuid": "49cd0ad9-abe0-4650-bb5b-a2e2e68f0cae",
      "name": "Polyethylene",
      "url": "https://haz-map.com/Agents/850",
      "category": "agents"
    },
    {
      "type": "name_match",
      "text": "ethane",
      "confidence": 1.0,
      "uuid": "5162cc8c-dfb9-4060-81ac-38a8cec7f9dd",
      "name": "Ethane",
      "url": "https://haz-map.com/Agents/1075",
      "category": "agents"
    },
    {
      "type": "name_match",
      "text": "ethylene",
      "confidence": 1.0,
      "uuid": "958eacc0-5135-4b62-bb93-6df972bf552f",
      "name": "Ethylene",
      "url": "https://haz-map.com/Agents/1076",
      "category": "agents"
    },
    {
      "type": "name_match",
      "text": "dimethyl ether",
      "confidence": 1.0,
      "uuid": "a12a0b82-a115-4243-98a7-3e9a2c4700ed",
      "name": "Dimethyl ether",
      "url": "https://haz-map.com/Agents/1483",
      "category": "agents"
    },
    {
      "type": "name_match",
      "text": "ht",
      "confidence": 1.0,
      "uuid": "764df367-8d53-4a11-81a2-31ccfe122a8d",
      "name": "HT",
      "url": "https://haz-map.com/Agents/2168",
      "category": "agents"
    },
    {
      "type": "name_match",
      "text": "polyethylene glycol",
      "confidence": 1.0,
      "uuid": "f5b55322-38d4-428d-93e6-34611f9fedce",
      "name": "Polyethylene glycol",
      "url": "https://haz-map.com/Agents/6752",
      "category": "agents"
    },
    {
      "type": "name_match",
      "text": "polyethylene glycol dimethyl ether",
      "confidence": 1.0,
      "uuid": "7de97be1-f446-417c-9f36-ed3173f5aa9f",
      "name": "Polyethylene glycol dimethyl ether",
      "url": "https://haz-map.com/Agents/19030",
      "category": "agents"
    }
  ],
  "all_links": [
    {
      "text": "Search PubMed",
      "url": "https://www.ncbi.nlm.nih.gov/pubmed?term=Polyethylene+glycol+dimethyl+ether%20AND%20human%5Bmh%5D%20AND%20%28Occupational%20Diseases%20%5Bmh%5D%20OR%20Occupational%20Exposure%20%5Bmh%5D%29%20%20AND%20%28tox%5Bsb%5D%29&cmd=search"
    }
  ]
}