{
  "metadata": {
    "scraped_from": "https://haz-map.com/Agents/18343",
    "entity_name": "Trimethoxypropylsilane",
    "category": "agents",
    "uuid": "7e793c65-96bc-4d3a-a45d-ca7c8d7428b3",
    "scraped_at": "2025-07-23T21:54:38.133101"
  },
  "parsed_at": "2025-07-24T00:56:52.452581",
  "title": "Trimethoxypropylsilane",
  "sections": {
    "general": {
      "agent_name": {
        "original_name": "Agent Name",
        "value": "Trimethoxypropylsilane",
        "links": [],
        "cross_references": [
          {
            "type": "name_match",
            "text": "trimethoxypropylsilane",
            "confidence": 1.0,
            "uuid": "7e793c65-96bc-4d3a-a45d-ca7c8d7428b3",
            "name": "Trimethoxypropylsilane",
            "url": "https://haz-map.com/Agents/18343",
            "category": "agents"
          }
        ]
      },
      "cas_number": {
        "original_name": "CAS Number",
        "value": "1067-25-0",
        "links": [],
        "cross_references": []
      },
      "formula": {
        "original_name": "Formula",
        "value": "C6-H16-O3-Si",
        "links": [],
        "cross_references": []
      },
      "major_category": {
        "original_name": "Major Category",
        "value": "Metals",
        "links": [],
        "cross_references": []
      },
      "synonyms": {
        "original_name": "Synonyms",
        "value": "Silane, trimethoxypropyl-; [ChemIDplus] Trimethoxy(propyl)silane; Propyltrimethoxysilane; [Sigma-Aldrich MSDS] n-Propyltrimethoxysilane; [Alfa Aesar MSDS] UN1993",
        "links": [],
        "cross_references": [
          {
            "type": "name_match",
            "text": "trimethoxysilane",
            "confidence": 1.0,
            "uuid": "09efed73-854d-4617-a020-7db222d4a5d6",
            "name": "Trimethoxysilane",
            "url": "https://haz-map.com/Agents/7604",
            "category": "agents"
          }
        ]
      },
      "category": {
        "original_name": "Category",
        "value": "Metalloid Compounds (Silicon)",
        "links": [],
        "cross_references": [
          {
            "type": "name_match",
            "text": "silicon",
            "confidence": 1.0,
            "uuid": "443f4405-7a1f-47db-bf43-809557f77483",
            "name": "Silicon",
            "url": "https://haz-map.com/Agents/623",
            "category": "agents"
          }
        ]
      },
      "description": {
        "original_name": "Description",
        "value": "Clear colorless liquid; [Sigma-Aldrich MSDS]",
        "links": [],
        "cross_references": []
      },
      "sourcesuses": {
        "original_name": "Sources/Uses",
        "value": "Permitted for use as an inert ingredient in non-food pesticide products; [EPA]",
        "links": [],
        "cross_references": []
      },
      "comments": {
        "original_name": "Comments",
        "value": "Evolves methanol on contact with water or moisture; A skin and strong eye irritant; [Sigma-Aldrich MSDS] See \"Methyl silicate.\"",
        "links": [],
        "cross_references": [
          {
            "type": "name_match",
            "text": "ethyl silicate",
            "confidence": 1.0,
            "uuid": "a1443c36-39c2-438b-8c33-b1ada85234cd",
            "name": "Ethyl silicate",
            "url": "https://haz-map.com/Agents/486",
            "category": "agents"
          },
          {
            "type": "name_match",
            "text": "methyl silicate",
            "confidence": 1.0,
            "uuid": "dad1085d-da69-4b5f-a22f-83c07c7fd4b7",
            "name": "Methyl silicate",
            "url": "https://haz-map.com/Agents/553",
            "category": "agents"
          },
          {
            "type": "name_match",
            "text": "water",
            "confidence": 1.0,
            "uuid": "6f2a7557-dfd2-49bc-9b4b-a93cd8e225d4",
            "name": "Water",
            "url": "https://haz-map.com/Agents/18668",
            "category": "agents"
          }
        ]
      },
      "biomedical_references": {
        "original_name": "Biomedical References",
        "value": "Search PubMed",
        "links": [
          {
            "text": "Search PubMed",
            "url": "https://www.ncbi.nlm.nih.gov/pubmed?term=Trimethoxypropylsilane%20AND%20human%5Bmh%5D%20AND%20%28Occupational%20Diseases%20%5Bmh%5D%20OR%20Occupational%20Exposure%20%5Bmh%5D%29%20%20AND%20%28tox%5Bsb%5D%29&cmd=search"
          }
        ],
        "cross_references": []
      }
    },
    "exposure_assessment": {
      "vapor_pressure": {
        "original_name": "Vapor Pressure",
        "value": "7.8 mm Hg",
        "links": [],
        "cross_references": []
      },
      "explanatory_notes": {
        "original_name": "Explanatory Notes",
        "value": "The Guide in the Emergency Response Guidebook is for \"Flammable liquid, n.o.s.\"",
        "links": [],
        "cross_references": []
      }
    },
    "diseases_processes_and_activities_linked_to_this_agent": {
      "other_information": {
        "original_name": "Other Information",
        "value": "No other related information on this agent was found.",
        "links": [],
        "cross_references": []
      }
    }
  },
  "cross_references": [
    {
      "type": "name_match",
      "text": "ethyl silicate",
      "confidence": 1.0,
      "uuid": "a1443c36-39c2-438b-8c33-b1ada85234cd",
      "name": "Ethyl silicate",
      "url": "https://haz-map.com/Agents/486",
      "category": "agents"
    },
    {
      "type": "name_match",
      "text": "methyl silicate",
      "confidence": 1.0,
      "uuid": "dad1085d-da69-4b5f-a22f-83c07c7fd4b7",
      "name": "Methyl silicate",
      "url": "https://haz-map.com/Agents/553",
      "category": "agents"
    },
    {
      "type": "name_match",
      "text": "silicon",
      "confidence": 1.0,
      "uuid": "443f4405-7a1f-47db-bf43-809557f77483",
      "name": "Silicon",
      "url": "https://haz-map.com/Agents/623",
      "category": "agents"
    },
    {
      "type": "name_match",
      "text": "trimethoxysilane",
      "confidence": 1.0,
      "uuid": "09efed73-854d-4617-a020-7db222d4a5d6",
      "name": "Trimethoxysilane",
      "url": "https://haz-map.com/Agents/7604",
      "category": "agents"
    },
    {
      "type": "name_match",
      "text": "trimethoxypropylsilane",
      "confidence": 1.0,
      "uuid": "7e793c65-96bc-4d3a-a45d-ca7c8d7428b3",
      "name": "Trimethoxypropylsilane",
      "url": "https://haz-map.com/Agents/18343",
      "category": "agents"
    },
    {
      "type": "name_match",
      "text": "water",
      "confidence": 1.0,
      "uuid": "6f2a7557-dfd2-49bc-9b4b-a93cd8e225d4",
      "name": "Water",
      "url": "https://haz-map.com/Agents/18668",
      "category": "agents"
    }
  ],
  "all_links": [
    {
      "text": "Search PubMed",
      "url": "https://www.ncbi.nlm.nih.gov/pubmed?term=Trimethoxypropylsilane%20AND%20human%5Bmh%5D%20AND%20%28Occupational%20Diseases%20%5Bmh%5D%20OR%20Occupational%20Exposure%20%5Bmh%5D%29%20%20AND%20%28tox%5Bsb%5D%29&cmd=search"
    }
  ]
}