{
  "metadata": {
    "scraped_from": "https://haz-map.com/Agents/3015",
    "entity_name": "2,4-Dinonylphenol",
    "category": "agents",
    "uuid": "7e8803a1-6c9e-498d-874c-44ab6a495173",
    "scraped_at": "2025-07-23T19:22:40.443546"
  },
  "parsed_at": "2025-07-24T01:03:57.175260",
  "title": "2,4-Dinonylphenol",
  "sections": {
    "general": {
      "agent_name": {
        "original_name": "Agent Name",
        "value": "2,4-Dinonylphenol",
        "links": [],
        "cross_references": [
          {
            "type": "name_match",
            "text": "phenol",
            "confidence": 1.0,
            "uuid": "03141a03-a7df-4f51-9a37-adde1a7c4b31",
            "name": "Phenol",
            "url": "https://haz-map.com/Agents/84",
            "category": "agents"
          },
          {
            "type": "name_match",
            "text": "2,4-d",
            "confidence": 1.0,
            "uuid": "bed35f54-2d93-4ffd-a3ee-723ab365faf1",
            "name": "2,4-D",
            "url": "https://haz-map.com/Agents/389",
            "category": "agents"
          },
          {
            "type": "name_match",
            "text": "nonylphenol",
            "confidence": 1.0,
            "uuid": "637daa63-eb51-451f-bd7f-f2ed96ad4d0e",
            "name": "Nonylphenol",
            "url": "https://haz-map.com/Agents/1422",
            "category": "agents"
          },
          {
            "type": "name_match",
            "text": "2,4-dinonylphenol",
            "confidence": 1.0,
            "uuid": "7e8803a1-6c9e-498d-874c-44ab6a495173",
            "name": "2,4-Dinonylphenol",
            "url": "https://haz-map.com/Agents/3015",
            "category": "agents"
          },
          {
            "type": "name_match",
            "text": "dinonylphenol",
            "confidence": 1.0,
            "uuid": "88b5e19a-6521-4bcb-a4e1-a47141c57723",
            "name": "Dinonylphenol",
            "url": "https://haz-map.com/Agents/20633",
            "category": "agents"
          }
        ]
      },
      "cas_number": {
        "original_name": "CAS Number",
        "value": "137-99-5",
        "links": [],
        "cross_references": []
      },
      "formula": {
        "original_name": "Formula",
        "value": "C24-H42-O",
        "links": [],
        "cross_references": []
      },
      "major_category": {
        "original_name": "Major Category",
        "value": "Other Classes",
        "links": [],
        "cross_references": []
      },
      "synonyms": {
        "original_name": "Synonyms",
        "value": "Phenol, 2,4-dinonyl-; [ChemIDplus]",
        "links": [],
        "cross_references": [
          {
            "type": "name_match",
            "text": "phenol",
            "confidence": 1.0,
            "uuid": "03141a03-a7df-4f51-9a37-adde1a7c4b31",
            "name": "Phenol",
            "url": "https://haz-map.com/Agents/84",
            "category": "agents"
          },
          {
            "type": "name_match",
            "text": "2,4-d",
            "confidence": 1.0,
            "uuid": "bed35f54-2d93-4ffd-a3ee-723ab365faf1",
            "name": "2,4-D",
            "url": "https://haz-map.com/Agents/389",
            "category": "agents"
          }
        ]
      },
      "category": {
        "original_name": "Category",
        "value": "Phenols",
        "links": [],
        "cross_references": [
          {
            "type": "name_match",
            "text": "phenol",
            "confidence": 1.0,
            "uuid": "03141a03-a7df-4f51-9a37-adde1a7c4b31",
            "name": "Phenol",
            "url": "https://haz-map.com/Agents/84",
            "category": "agents"
          }
        ]
      },
      "description": {
        "original_name": "Description",
        "value": "Colorless to pale yellow liquid; [HSDB]",
        "links": [],
        "cross_references": []
      },
      "sourcesuses": {
        "original_name": "Sources/Uses",
        "value": "Used in the production of lubricating oil additives, resins, plasticizers, and surfactants; Also used as a solvent and a comonomer with formaldehyde for polymers; [HSDB]",
        "links": [],
        "cross_references": [
          {
            "type": "name_match",
            "text": "formaldehyde",
            "confidence": 1.0,
            "uuid": "272252b9-c18e-43df-b652-787210f00a3e",
            "name": "Formaldehyde",
            "url": "https://haz-map.com/Agents/271",
            "category": "agents"
          }
        ]
      },
      "comments": {
        "original_name": "Comments",
        "value": "A severe skin and eye irritant; Irritating to the respiratory tract; Harmful if ingested; [HSDB] See \"Dinonylphenol.\" See \"Phenol.\"",
        "links": [],
        "cross_references": [
          {
            "type": "name_match",
            "text": "phenol",
            "confidence": 1.0,
            "uuid": "03141a03-a7df-4f51-9a37-adde1a7c4b31",
            "name": "Phenol",
            "url": "https://haz-map.com/Agents/84",
            "category": "agents"
          },
          {
            "type": "name_match",
            "text": "nonylphenol",
            "confidence": 1.0,
            "uuid": "637daa63-eb51-451f-bd7f-f2ed96ad4d0e",
            "name": "Nonylphenol",
            "url": "https://haz-map.com/Agents/1422",
            "category": "agents"
          },
          {
            "type": "name_match",
            "text": "dinonylphenol",
            "confidence": 1.0,
            "uuid": "88b5e19a-6521-4bcb-a4e1-a47141c57723",
            "name": "Dinonylphenol",
            "url": "https://haz-map.com/Agents/20633",
            "category": "agents"
          }
        ]
      },
      "biomedical_references": {
        "original_name": "Biomedical References",
        "value": "Search PubMed",
        "links": [
          {
            "text": "Search PubMed",
            "url": "https://www.ncbi.nlm.nih.gov/pubmed?term=2%2c4-Dinonylphenol%20AND%20human%5Bmh%5D%20AND%20%28Occupational%20Diseases%20%5Bmh%5D%20OR%20Occupational%20Exposure%20%5Bmh%5D%29%20%20AND%20%28tox%5Bsb%5D%29&cmd=search"
          }
        ],
        "cross_references": []
      }
    },
    "exposure_assessment": {
      "vapor_pressure": {
        "original_name": "Vapor Pressure",
        "value": "9E-10 mm Hg",
        "links": [],
        "cross_references": []
      },
      "explanatory_notes": {
        "original_name": "Explanatory Notes",
        "value": "Flash point = 127 deg C; [HSDB]",
        "links": [],
        "cross_references": [
          {
            "type": "name_match",
            "text": "ash",
            "confidence": 1.0,
            "uuid": "68b360f1-5ad0-4337-bea0-d7adca2961b5",
            "name": "Ash",
            "url": "https://haz-map.com/Agents/965",
            "category": "agents"
          }
        ]
      },
      "nfpa": {
        "original_name": "NFPA",
        "value": "must be preheated",
        "links": [],
        "cross_references": []
      }
    },
    "diseases_processes_and_activities_linked_to_this_agent": {
      "other_information": {
        "original_name": "Other Information",
        "value": "No other related information on this agent was found.",
        "links": [],
        "cross_references": []
      }
    }
  },
  "cross_references": [
    {
      "type": "name_match",
      "text": "phenol",
      "confidence": 1.0,
      "uuid": "03141a03-a7df-4f51-9a37-adde1a7c4b31",
      "name": "Phenol",
      "url": "https://haz-map.com/Agents/84",
      "category": "agents"
    },
    {
      "type": "name_match",
      "text": "formaldehyde",
      "confidence": 1.0,
      "uuid": "272252b9-c18e-43df-b652-787210f00a3e",
      "name": "Formaldehyde",
      "url": "https://haz-map.com/Agents/271",
      "category": "agents"
    },
    {
      "type": "name_match",
      "text": "2,4-d",
      "confidence": 1.0,
      "uuid": "bed35f54-2d93-4ffd-a3ee-723ab365faf1",
      "name": "2,4-D",
      "url": "https://haz-map.com/Agents/389",
      "category": "agents"
    },
    {
      "type": "name_match",
      "text": "ash",
      "confidence": 1.0,
      "uuid": "68b360f1-5ad0-4337-bea0-d7adca2961b5",
      "name": "Ash",
      "url": "https://haz-map.com/Agents/965",
      "category": "agents"
    },
    {
      "type": "name_match",
      "text": "nonylphenol",
      "confidence": 1.0,
      "uuid": "637daa63-eb51-451f-bd7f-f2ed96ad4d0e",
      "name": "Nonylphenol",
      "url": "https://haz-map.com/Agents/1422",
      "category": "agents"
    },
    {
      "type": "name_match",
      "text": "2,4-dinonylphenol",
      "confidence": 1.0,
      "uuid": "7e8803a1-6c9e-498d-874c-44ab6a495173",
      "name": "2,4-Dinonylphenol",
      "url": "https://haz-map.com/Agents/3015",
      "category": "agents"
    },
    {
      "type": "name_match",
      "text": "dinonylphenol",
      "confidence": 1.0,
      "uuid": "88b5e19a-6521-4bcb-a4e1-a47141c57723",
      "name": "Dinonylphenol",
      "url": "https://haz-map.com/Agents/20633",
      "category": "agents"
    }
  ],
  "all_links": [
    {
      "text": "Search PubMed",
      "url": "https://www.ncbi.nlm.nih.gov/pubmed?term=2%2c4-Dinonylphenol%20AND%20human%5Bmh%5D%20AND%20%28Occupational%20Diseases%20%5Bmh%5D%20OR%20Occupational%20Exposure%20%5Bmh%5D%29%20%20AND%20%28tox%5Bsb%5D%29&cmd=search"
    }
  ]
}