{
  "metadata": {
    "scraped_from": "https://haz-map.com/Agents/10882",
    "entity_name": "2-Iodoacetamide",
    "category": "agents",
    "uuid": "7ea3faf4-f092-494d-908a-f33bb25a6c95",
    "scraped_at": "2025-07-23T20:53:54.717980"
  },
  "parsed_at": "2025-07-24T00:56:40.988173",
  "title": "2-Iodoacetamide",
  "sections": {
    "general": {
      "agent_name": {
        "original_name": "Agent Name",
        "value": "2-Iodoacetamide",
        "links": [],
        "cross_references": [
          {
            "type": "name_match",
            "text": "acetamide",
            "confidence": 1.0,
            "uuid": "dd8ffc77-2f5f-4c87-8995-3206d6c9affc",
            "name": "Acetamide",
            "url": "https://haz-map.com/Agents/3385",
            "category": "agents"
          },
          {
            "type": "name_match",
            "text": "2-iodoacetamide",
            "confidence": 1.0,
            "uuid": "7ea3faf4-f092-494d-908a-f33bb25a6c95",
            "name": "2-Iodoacetamide",
            "url": "https://haz-map.com/Agents/10882",
            "category": "agents"
          }
        ]
      },
      "cas_number": {
        "original_name": "CAS Number",
        "value": "144-48-9",
        "links": [],
        "cross_references": []
      },
      "formula": {
        "original_name": "Formula",
        "value": "C2-H4-I-N-O",
        "links": [],
        "cross_references": []
      },
      "major_category": {
        "original_name": "Major Category",
        "value": "Nitrogen Compounds",
        "links": [],
        "cross_references": [
          {
            "type": "name_match",
            "text": "nitrogen",
            "confidence": 1.0,
            "uuid": "db5e90a9-06d2-45b9-8b81-f345a89b0bc0",
            "name": "Nitrogen",
            "url": "https://haz-map.com/Agents/1072",
            "category": "agents"
          }
        ]
      },
      "synonyms": {
        "original_name": "Synonyms",
        "value": "Iodoacetamide; Monoiodoacetamide; Surauto; Acetamide, 2-iodo-; [ChemIDplus]",
        "links": [],
        "cross_references": [
          {
            "type": "name_match",
            "text": "acetamide",
            "confidence": 1.0,
            "uuid": "dd8ffc77-2f5f-4c87-8995-3206d6c9affc",
            "name": "Acetamide",
            "url": "https://haz-map.com/Agents/3385",
            "category": "agents"
          }
        ]
      },
      "category": {
        "original_name": "Category",
        "value": "Other Nitrogen Compounds",
        "links": [],
        "cross_references": [
          {
            "type": "name_match",
            "text": "nitrogen",
            "confidence": 1.0,
            "uuid": "db5e90a9-06d2-45b9-8b81-f345a89b0bc0",
            "name": "Nitrogen",
            "url": "https://haz-map.com/Agents/1072",
            "category": "agents"
          }
        ]
      },
      "description": {
        "original_name": "Description",
        "value": "Crystalline solid; [Sigma-Aldrich MSDS]",
        "links": [],
        "cross_references": [
          {
            "type": "fuzzy_match",
            "text": "crystalline",
            "matched_name": "Silica, crystalline",
            "confidence": 0.7061403508771931,
            "uuid": "f920e8a2-46df-41b7-af8d-0368a777251e",
            "category": "agents",
            "url": "https://haz-map.com/Agents/427"
          }
        ]
      },
      "sourcesuses": {
        "original_name": "Sources/Uses",
        "value": "An alkylating sulfhydryl reagent with action similar to iodoacetate; [ChemIDplus]",
        "links": [],
        "cross_references": []
      },
      "comments": {
        "original_name": "Comments",
        "value": "Causes ulceration or bleeding from the stomach and other GI changes in 74-week intermittent oral studies of rats; [RTECS] May cause irritation; May cause skin and respiratory sensitization; Toxic by ingestion; [Sigma-Aldrich MSDS] See \"Chloroacetamide.\"",
        "links": [],
        "cross_references": [
          {
            "type": "name_match",
            "text": "chloroacetamide",
            "confidence": 1.0,
            "uuid": "b2b0b04d-4e53-4d86-abb9-a32942431f4a",
            "name": "Chloroacetamide",
            "url": "https://haz-map.com/Agents/1270",
            "category": "agents"
          },
          {
            "type": "name_match",
            "text": "acetamide",
            "confidence": 1.0,
            "uuid": "dd8ffc77-2f5f-4c87-8995-3206d6c9affc",
            "name": "Acetamide",
            "url": "https://haz-map.com/Agents/3385",
            "category": "agents"
          }
        ]
      },
      "reference_link_1": {
        "original_name": "Reference Link #1",
        "value": "Biochemist's occupational allergic contact dermatitis from iodoacetamide and acrylamide.",
        "links": [
          {
            "text": "Biochemist's occupational allergic contact dermatitis from iodoacetamide and acrylamide.",
            "url": "http://www.ncbi.nlm.nih.gov/pubmed/12581285"
          }
        ],
        "cross_references": [
          {
            "type": "name_match",
            "text": "dermatitis",
            "confidence": 1.0,
            "uuid": "fe9c05f2-b19f-4ceb-ac7a-ffb7d7a0cae0",
            "name": "dermatitis",
            "url": "https://haz-map.com/Findings/59",
            "category": "findings"
          },
          {
            "type": "name_match",
            "text": "acrylamide",
            "confidence": 1.0,
            "uuid": "d3df7c05-3ce6-4db9-98d8-978d9ceacf02",
            "name": "Acrylamide",
            "url": "https://haz-map.com/Agents/57",
            "category": "agents"
          },
          {
            "type": "name_match",
            "text": "acetamide",
            "confidence": 1.0,
            "uuid": "dd8ffc77-2f5f-4c87-8995-3206d6c9affc",
            "name": "Acetamide",
            "url": "https://haz-map.com/Agents/3385",
            "category": "agents"
          },
          {
            "type": "fuzzy_match",
            "text": "contact dermatitis",
            "matched_name": "Contact dermatitis, allergic",
            "confidence": 0.7214285714285715,
            "uuid": "c9499de0-9aa1-41bf-8753-cd5b28a63e29",
            "category": "diseases",
            "url": "https://haz-map.com/Diseases/18"
          }
        ]
      },
      "biomedical_references": {
        "original_name": "Biomedical References",
        "value": "Search PubMed",
        "links": [
          {
            "text": "Search PubMed",
            "url": "https://www.ncbi.nlm.nih.gov/pubmed?term=2-Iodoacetamide%20AND%20human%5Bmh%5D%20AND%20%28Occupational%20Diseases%20%5Bmh%5D%20OR%20Occupational%20Exposure%20%5Bmh%5D%29%20%20AND%20%28tox%5Bsb%5D%29&cmd=search"
          }
        ],
        "cross_references": []
      }
    },
    "exposure_assessment": {
      "vapor_pressure": {
        "original_name": "Vapor Pressure",
        "value": "0.00506 mm Hg",
        "links": [],
        "cross_references": []
      }
    },
    "adverse_effects": {
      "skin_sensitizer": {
        "original_name": "Skin Sensitizer",
        "value": "Yes",
        "links": [],
        "cross_references": []
      }
    },
    "diseases_processes_and_activities_linked_to_this_agent": {
      "diseases": {
        "original_name": "Diseases",
        "value": "Occupational diseases associated with exposure to this agent: Contact dermatitis, allergic",
        "links": [
          {
            "text": "Contact dermatitis, allergic",
            "url": "https://haz-map.com/Diseases/18"
          }
        ],
        "cross_references": [
          {
            "type": "url_match",
            "text": "Contact dermatitis, allergic",
            "url": "https://haz-map.com/Diseases/18",
            "confidence": 1.0,
            "uuid": "c9499de0-9aa1-41bf-8753-cd5b28a63e29",
            "name": "Contact dermatitis, allergic",
            "category": "diseases"
          },
          {
            "type": "name_match",
            "text": "dermatitis",
            "confidence": 1.0,
            "uuid": "fe9c05f2-b19f-4ceb-ac7a-ffb7d7a0cae0",
            "name": "dermatitis",
            "url": "https://haz-map.com/Findings/59",
            "category": "findings"
          }
        ]
      }
    }
  },
  "cross_references": [
    {
      "type": "url_match",
      "text": "Contact dermatitis, allergic",
      "url": "https://haz-map.com/Diseases/18",
      "confidence": 1.0,
      "uuid": "c9499de0-9aa1-41bf-8753-cd5b28a63e29",
      "name": "Contact dermatitis, allergic",
      "category": "diseases"
    },
    {
      "type": "name_match",
      "text": "dermatitis",
      "confidence": 1.0,
      "uuid": "fe9c05f2-b19f-4ceb-ac7a-ffb7d7a0cae0",
      "name": "dermatitis",
      "url": "https://haz-map.com/Findings/59",
      "category": "findings"
    },
    {
      "type": "name_match",
      "text": "acrylamide",
      "confidence": 1.0,
      "uuid": "d3df7c05-3ce6-4db9-98d8-978d9ceacf02",
      "name": "Acrylamide",
      "url": "https://haz-map.com/Agents/57",
      "category": "agents"
    },
    {
      "type": "name_match",
      "text": "nitrogen",
      "confidence": 1.0,
      "uuid": "db5e90a9-06d2-45b9-8b81-f345a89b0bc0",
      "name": "Nitrogen",
      "url": "https://haz-map.com/Agents/1072",
      "category": "agents"
    },
    {
      "type": "name_match",
      "text": "chloroacetamide",
      "confidence": 1.0,
      "uuid": "b2b0b04d-4e53-4d86-abb9-a32942431f4a",
      "name": "Chloroacetamide",
      "url": "https://haz-map.com/Agents/1270",
      "category": "agents"
    },
    {
      "type": "name_match",
      "text": "acetamide",
      "confidence": 1.0,
      "uuid": "dd8ffc77-2f5f-4c87-8995-3206d6c9affc",
      "name": "Acetamide",
      "url": "https://haz-map.com/Agents/3385",
      "category": "agents"
    },
    {
      "type": "name_match",
      "text": "2-iodoacetamide",
      "confidence": 1.0,
      "uuid": "7ea3faf4-f092-494d-908a-f33bb25a6c95",
      "name": "2-Iodoacetamide",
      "url": "https://haz-map.com/Agents/10882",
      "category": "agents"
    },
    {
      "type": "fuzzy_match",
      "text": "crystalline",
      "matched_name": "Silica, crystalline",
      "confidence": 0.7061403508771931,
      "uuid": "f920e8a2-46df-41b7-af8d-0368a777251e",
      "category": "agents",
      "url": "https://haz-map.com/Agents/427"
    }
  ],
  "all_links": [
    {
      "text": "Biochemist's occupational allergic contact dermatitis from iodoacetamide and acrylamide.",
      "url": "http://www.ncbi.nlm.nih.gov/pubmed/12581285"
    },
    {
      "text": "Search PubMed",
      "url": "https://www.ncbi.nlm.nih.gov/pubmed?term=2-Iodoacetamide%20AND%20human%5Bmh%5D%20AND%20%28Occupational%20Diseases%20%5Bmh%5D%20OR%20Occupational%20Exposure%20%5Bmh%5D%29%20%20AND%20%28tox%5Bsb%5D%29&cmd=search"
    },
    {
      "text": "Contact dermatitis, allergic",
      "url": "https://haz-map.com/Diseases/18"
    }
  ]
}