{
  "metadata": {
    "scraped_from": "https://haz-map.com/Agents/7001",
    "entity_name": "Schradan",
    "category": "agents",
    "uuid": "7eeba0e3-66cd-426e-8055-216dbbb3c7af",
    "scraped_at": "2025-07-23T20:07:32.335813"
  },
  "parsed_at": "2025-07-24T00:51:35.755546",
  "title": "Schradan",
  "sections": {
    "general": {
      "agent_name": {
        "original_name": "Agent Name",
        "value": "Schradan",
        "links": [],
        "cross_references": [
          {
            "type": "name_match",
            "text": "schradan",
            "confidence": 1.0,
            "uuid": "7eeba0e3-66cd-426e-8055-216dbbb3c7af",
            "name": "Schradan",
            "url": "https://haz-map.com/Agents/7001",
            "category": "agents"
          }
        ]
      },
      "cas_number": {
        "original_name": "CAS Number",
        "value": "152-16-9",
        "links": [],
        "cross_references": []
      },
      "formula": {
        "original_name": "Formula",
        "value": "C8-H24-N4-O3-P2",
        "links": [],
        "cross_references": []
      },
      "major_category": {
        "original_name": "Major Category",
        "value": "Pesticides",
        "links": [],
        "cross_references": []
      },
      "synonyms": {
        "original_name": "Synonyms",
        "value": "Octamethyl pyrophosphoramide; Bis(bisdimethylaminophosphonous) anhydride; Bis(bisdimethylaminophosphonous)anhydride; Bis(dimethylamino)phosphonous anhydride; Bis(dimethylamino)phosphoric anhydride; Bis-N,N,N',N'-tetramethylphosphorodiamidic anhydride; Diphosphoramide, octamethyl-; ENT 17,291; Lethalaire G-59; OMPA; Octamethyl; Octamethyl pyrophosphortetramide; Octamethyl tetramido pyrophosphate; Octamethyl-difosforzuur-tetramide [Dutch]; Octamethyl-diphosphorsaeure-tetramid [German]; Octamethyldiphosphoramide; Octamethylpyrophosphoramide; Octamethylpyrophosphoric acid amide; Octamethylpyrophosphoric acid tetramide; Octamidophos; Oktamethyl [Czech]; Oktamidofos [Czech]; Ompacide; Ompatox; Ompax; Ottometil-pirofosforammide [Italian]; Pestox; Pestox 3; Pestox 66; Pestox III; Pyrophosphoramide, octamethyl-; Pyrophosphoric acid octamethyltetraamide; Pyrophosphoryltetrakisdimethylamide; Schradan [ISO]; Schradane [French]; Systam; Systophos; Sytam; Tetrakisdimethylaminophosphonous anhydride; [ChemIDplus] UN3018",
        "links": [],
        "cross_references": [
          {
            "type": "name_match",
            "text": "phosphoric acid",
            "confidence": 1.0,
            "uuid": "9049e74c-22b3-4fb1-8e7f-53f17c0ec74a",
            "name": "Phosphoric acid",
            "url": "https://haz-map.com/Agents/595",
            "category": "agents"
          },
          {
            "type": "name_match",
            "text": "tali",
            "confidence": 1.0,
            "uuid": "8c3a0f99-2143-4122-b539-ec5cc49596b0",
            "name": "Tali",
            "url": "https://haz-map.com/Agents/1128",
            "category": "agents"
          },
          {
            "type": "name_match",
            "text": "schradan",
            "confidence": 1.0,
            "uuid": "7eeba0e3-66cd-426e-8055-216dbbb3c7af",
            "name": "Schradan",
            "url": "https://haz-map.com/Agents/7001",
            "category": "agents"
          },
          {
            "type": "name_match",
            "text": "pyrophosphoric acid",
            "confidence": 1.0,
            "uuid": "aeecf00b-7bc1-4080-8b40-eb9d7868dfa2",
            "name": "Pyrophosphoric acid",
            "url": "https://haz-map.com/Agents/17053",
            "category": "agents"
          }
        ]
      },
      "category": {
        "original_name": "Category",
        "value": "Organophosphate Insecticides",
        "links": [],
        "cross_references": []
      },
      "description": {
        "original_name": "Description",
        "value": "Liquid; mp = 14-20 deg C; [Merck Index] Dark brown liquid; mp = 14-20 deg C; [CAMEO]",
        "links": [],
        "cross_references": []
      },
      "sourcesuses": {
        "original_name": "Sources/Uses",
        "value": "Used as acaricide, systemic insecticide, and soil drench for transplanted trees; Absorbed by plants for long term insect and arachnid protection; No known current use; [HSDB]",
        "links": [],
        "cross_references": []
      },
      "comments": {
        "original_name": "Comments",
        "value": "Decrease in growth and whole blood cholinesterase activity were observed in one year feeding study with rats; No adverse histopathology or effects to brain activity were observed; Inhibits brain cholinesterase in animals far less than that in the blood; [HSDB] Highly toxic cholinesterase inhibitor; [CAMEO] “The average of two baseline respective cholinesterase activity determinations three days apart, with no exposures to enzyme inhibiting pesticides for at least 30 days, is recommended for each worker prior to exposure to cholinesterase inhibitors because of large inter-individual differences in published baseline values. To be established at least once a year. Removal from workplace exposures is recommended until the cholinesterase activity returns to within 20% of baseline.” [TLVs and BEIs]",
        "links": [],
        "cross_references": [
          {
            "type": "name_match",
            "text": "choline",
            "confidence": 1.0,
            "uuid": "a21a71e9-9d67-4563-9da2-98c4dcb1b766",
            "name": "Choline",
            "url": "https://haz-map.com/Agents/12978",
            "category": "agents"
          }
        ]
      },
      "restricted": {
        "original_name": "Restricted",
        "value": "Not registered with the EPA for use as pesticide in the US; [CAMEO]",
        "links": [],
        "cross_references": []
      },
      "biomedical_references": {
        "original_name": "Biomedical References",
        "value": "Search PubMed",
        "links": [
          {
            "text": "Search PubMed",
            "url": "https://www.ncbi.nlm.nih.gov/pubmed?term=Schradan%20AND%20human%5Bmh%5D%20AND%20%28Occupational%20Diseases%20%5Bmh%5D%20OR%20Occupational%20Exposure%20%5Bmh%5D%29%20%20AND%20%28tox%5Bsb%5D%29&cmd=search"
          }
        ],
        "cross_references": []
      }
    },
    "exposure_assessment": {
      "bei": {
        "original_name": "BEI",
        "value": "Acetylcholinesterase activity in red blood cells = 70% of individual's baseline; Butylcholinesterase activity in serum or plasma = 60% of individual's baseline; Sample at end of shift; [TLVs and BEIs]",
        "links": [],
        "cross_references": [
          {
            "type": "name_match",
            "text": "choline",
            "confidence": 1.0,
            "uuid": "a21a71e9-9d67-4563-9da2-98c4dcb1b766",
            "name": "Choline",
            "url": "https://haz-map.com/Agents/12978",
            "category": "agents"
          }
        ]
      },
      "vapor_pressure": {
        "original_name": "Vapor Pressure",
        "value": "0.001 mm Hg",
        "links": [],
        "cross_references": []
      },
      "lethal_concentration": {
        "original_name": "Lethal Concentration",
        "value": "LCLo (rat) = 8 mg/m3/4h",
        "links": [],
        "cross_references": []
      },
      "explanatory_notes": {
        "original_name": "Explanatory Notes",
        "value": "The Guide in the Emergency Response Guidebook is for \"Organophosphorus pesticide, liquid, toxic.\"",
        "links": [],
        "cross_references": []
      }
    },
    "adverse_effects": {
      "other_poison": {
        "original_name": "Other Poison",
        "value": "Organophosphate",
        "links": [],
        "cross_references": []
      }
    },
    "diseases_processes_and_activities_linked_to_this_agent": {
      "diseases": {
        "original_name": "Diseases",
        "value": "Occupational diseases associated with exposure to this agent: Organophosphates & carbamates, acute poisoning",
        "links": [
          {
            "text": "Organophosphates & carbamates, acute poisoning",
            "url": "https://haz-map.com/Diseases/66"
          }
        ],
        "cross_references": [
          {
            "type": "url_match",
            "text": "Organophosphates & carbamates, acute poisoning",
            "url": "https://haz-map.com/Diseases/66",
            "confidence": 1.0,
            "uuid": "aea2cba9-fb36-463f-84d8-b819551bb327",
            "name": "Organophosphates & carbamates, acute poisoning",
            "category": "diseases"
          },
          {
            "type": "name_match",
            "text": "organophosphates",
            "confidence": 1.0,
            "uuid": "8d2d239c-20f9-4f02-9916-5e7667b9990c",
            "name": "ORGANOPHOSPHATES",
            "url": "https://haz-map.com/Agents/702",
            "category": "agents"
          }
        ]
      },
      "processes": {
        "original_name": "Processes",
        "value": "Industrial Processes with risk of exposure: Farming (Pesticides)",
        "links": [
          {
            "text": "Farming (Pesticides)",
            "url": "https://haz-map.com/Processes/218"
          }
        ],
        "cross_references": [
          {
            "type": "url_match",
            "text": "Farming (Pesticides)",
            "url": "https://haz-map.com/Processes/218",
            "confidence": 1.0,
            "uuid": "cf1e5815-c9bb-4917-82a5-391848170b7e",
            "name": "Farming (Pesticides)",
            "category": "processes"
          }
        ]
      }
    }
  },
  "cross_references": [
    {
      "type": "url_match",
      "text": "Organophosphates & carbamates, acute poisoning",
      "url": "https://haz-map.com/Diseases/66",
      "confidence": 1.0,
      "uuid": "aea2cba9-fb36-463f-84d8-b819551bb327",
      "name": "Organophosphates & carbamates, acute poisoning",
      "category": "diseases"
    },
    {
      "type": "url_match",
      "text": "Farming (Pesticides)",
      "url": "https://haz-map.com/Processes/218",
      "confidence": 1.0,
      "uuid": "cf1e5815-c9bb-4917-82a5-391848170b7e",
      "name": "Farming (Pesticides)",
      "category": "processes"
    },
    {
      "type": "name_match",
      "text": "phosphoric acid",
      "confidence": 1.0,
      "uuid": "9049e74c-22b3-4fb1-8e7f-53f17c0ec74a",
      "name": "Phosphoric acid",
      "url": "https://haz-map.com/Agents/595",
      "category": "agents"
    },
    {
      "type": "name_match",
      "text": "organophosphates",
      "confidence": 1.0,
      "uuid": "8d2d239c-20f9-4f02-9916-5e7667b9990c",
      "name": "ORGANOPHOSPHATES",
      "url": "https://haz-map.com/Agents/702",
      "category": "agents"
    },
    {
      "type": "name_match",
      "text": "tali",
      "confidence": 1.0,
      "uuid": "8c3a0f99-2143-4122-b539-ec5cc49596b0",
      "name": "Tali",
      "url": "https://haz-map.com/Agents/1128",
      "category": "agents"
    },
    {
      "type": "name_match",
      "text": "schradan",
      "confidence": 1.0,
      "uuid": "7eeba0e3-66cd-426e-8055-216dbbb3c7af",
      "name": "Schradan",
      "url": "https://haz-map.com/Agents/7001",
      "category": "agents"
    },
    {
      "type": "name_match",
      "text": "choline",
      "confidence": 1.0,
      "uuid": "a21a71e9-9d67-4563-9da2-98c4dcb1b766",
      "name": "Choline",
      "url": "https://haz-map.com/Agents/12978",
      "category": "agents"
    },
    {
      "type": "name_match",
      "text": "pyrophosphoric acid",
      "confidence": 1.0,
      "uuid": "aeecf00b-7bc1-4080-8b40-eb9d7868dfa2",
      "name": "Pyrophosphoric acid",
      "url": "https://haz-map.com/Agents/17053",
      "category": "agents"
    }
  ],
  "all_links": [
    {
      "text": "Search PubMed",
      "url": "https://www.ncbi.nlm.nih.gov/pubmed?term=Schradan%20AND%20human%5Bmh%5D%20AND%20%28Occupational%20Diseases%20%5Bmh%5D%20OR%20Occupational%20Exposure%20%5Bmh%5D%29%20%20AND%20%28tox%5Bsb%5D%29&cmd=search"
    },
    {
      "text": "Organophosphates & carbamates, acute poisoning",
      "url": "https://haz-map.com/Diseases/66"
    },
    {
      "text": "Farming (Pesticides)",
      "url": "https://haz-map.com/Processes/218"
    }
  ]
}