{
  "metadata": {
    "scraped_from": "https://haz-map.com/Agents/4196",
    "entity_name": "Caprylyl peroxide",
    "category": "agents",
    "uuid": "7f2adb0e-5394-46f7-a9aa-9d16d44d928e",
    "scraped_at": "2025-07-23T19:38:40.542549"
  },
  "parsed_at": "2025-07-24T01:15:08.645700",
  "title": "Caprylyl peroxide",
  "sections": {
    "general": {
      "agent_name": {
        "original_name": "Agent Name",
        "value": "Caprylyl peroxide",
        "links": [],
        "cross_references": [
          {
            "type": "name_match",
            "text": "caprylyl peroxide",
            "confidence": 1.0,
            "uuid": "7f2adb0e-5394-46f7-a9aa-9d16d44d928e",
            "name": "Caprylyl peroxide",
            "url": "https://haz-map.com/Agents/4196",
            "category": "agents"
          }
        ]
      },
      "cas_number": {
        "original_name": "CAS Number",
        "value": "762-16-3",
        "links": [],
        "cross_references": []
      },
      "formula": {
        "original_name": "Formula",
        "value": "C16-H30-O4",
        "links": [],
        "cross_references": []
      },
      "major_category": {
        "original_name": "Major Category",
        "value": "Other Classes",
        "links": [],
        "cross_references": []
      },
      "synonyms": {
        "original_name": "Synonyms",
        "value": "Octyl peroxide; [Hawley] Dicaprylyl peroxide; Dioctanoyl peroxide; Octanoyl peroxide; Peroxide, bis(1-oxooctyl); [ChemIDplus]",
        "links": [],
        "cross_references": [
          {
            "type": "name_match",
            "text": "caprylyl peroxide",
            "confidence": 1.0,
            "uuid": "7f2adb0e-5394-46f7-a9aa-9d16d44d928e",
            "name": "Caprylyl peroxide",
            "url": "https://haz-map.com/Agents/4196",
            "category": "agents"
          }
        ]
      },
      "category": {
        "original_name": "Category",
        "value": "Peroxides, Organic",
        "links": [],
        "cross_references": []
      },
      "description": {
        "original_name": "Description",
        "value": "Straw-colored liquid with a sharp odor; Immiscible with water; [Hawley]",
        "links": [],
        "cross_references": [
          {
            "type": "name_match",
            "text": "water",
            "confidence": 1.0,
            "uuid": "6f2a7557-dfd2-49bc-9b4b-a93cd8e225d4",
            "name": "Water",
            "url": "https://haz-map.com/Agents/18668",
            "category": "agents"
          }
        ]
      },
      "sourcesuses": {
        "original_name": "Sources/Uses",
        "value": "Used as an initiator for suspension or mass polymerization of vinyl chloride monomers; [HSDB]",
        "links": [],
        "cross_references": [
          {
            "type": "name_match",
            "text": "vinyl chloride",
            "confidence": 1.0,
            "uuid": "7b74b11d-1ba5-4dde-8d86-ed88645b5ce1",
            "name": "Vinyl chloride",
            "url": "https://haz-map.com/Agents/15",
            "category": "agents"
          }
        ]
      },
      "comments": {
        "original_name": "Comments",
        "value": "May cause burns to skin and eyes; Highly flammable; May spontaneously ignite on exposure to air; [CAMEO]",
        "links": [],
        "cross_references": [
          {
            "type": "name_match",
            "text": "burn",
            "confidence": 1.0,
            "uuid": "63665de5-6376-4918-8dbf-4c10c4d63837",
            "name": "burn",
            "url": "https://haz-map.com/Findings/204",
            "category": "findings"
          }
        ]
      },
      "biomedical_references": {
        "original_name": "Biomedical References",
        "value": "Search PubMed",
        "links": [
          {
            "text": "Search PubMed",
            "url": "https://www.ncbi.nlm.nih.gov/pubmed?term=Caprylyl+peroxide%20AND%20human%5Bmh%5D%20AND%20%28Occupational%20Diseases%20%5Bmh%5D%20OR%20Occupational%20Exposure%20%5Bmh%5D%29%20%20AND%20%28tox%5Bsb%5D%29&cmd=search"
          }
        ],
        "cross_references": []
      }
    },
    "exposure_assessment": {
      "vapor_pressure": {
        "original_name": "Vapor Pressure",
        "value": "0.000602 mm Hg",
        "links": [],
        "cross_references": []
      }
    },
    "adverse_effects": {
      "dermatotoxin": {
        "original_name": "Dermatotoxin",
        "value": "Skin burns",
        "links": [],
        "cross_references": [
          {
            "type": "name_match",
            "text": "burn",
            "confidence": 1.0,
            "uuid": "63665de5-6376-4918-8dbf-4c10c4d63837",
            "name": "burn",
            "url": "https://haz-map.com/Findings/204",
            "category": "findings"
          }
        ]
      }
    },
    "diseases_processes_and_activities_linked_to_this_agent": {
      "other_information": {
        "original_name": "Other Information",
        "value": "No other related information on this agent was found.",
        "links": [],
        "cross_references": []
      }
    }
  },
  "cross_references": [
    {
      "type": "name_match",
      "text": "burn",
      "confidence": 1.0,
      "uuid": "63665de5-6376-4918-8dbf-4c10c4d63837",
      "name": "burn",
      "url": "https://haz-map.com/Findings/204",
      "category": "findings"
    },
    {
      "type": "name_match",
      "text": "vinyl chloride",
      "confidence": 1.0,
      "uuid": "7b74b11d-1ba5-4dde-8d86-ed88645b5ce1",
      "name": "Vinyl chloride",
      "url": "https://haz-map.com/Agents/15",
      "category": "agents"
    },
    {
      "type": "name_match",
      "text": "caprylyl peroxide",
      "confidence": 1.0,
      "uuid": "7f2adb0e-5394-46f7-a9aa-9d16d44d928e",
      "name": "Caprylyl peroxide",
      "url": "https://haz-map.com/Agents/4196",
      "category": "agents"
    },
    {
      "type": "name_match",
      "text": "water",
      "confidence": 1.0,
      "uuid": "6f2a7557-dfd2-49bc-9b4b-a93cd8e225d4",
      "name": "Water",
      "url": "https://haz-map.com/Agents/18668",
      "category": "agents"
    }
  ],
  "all_links": [
    {
      "text": "Search PubMed",
      "url": "https://www.ncbi.nlm.nih.gov/pubmed?term=Caprylyl+peroxide%20AND%20human%5Bmh%5D%20AND%20%28Occupational%20Diseases%20%5Bmh%5D%20OR%20Occupational%20Exposure%20%5Bmh%5D%29%20%20AND%20%28tox%5Bsb%5D%29&cmd=search"
    }
  ]
}