{
  "metadata": {
    "scraped_from": "https://haz-map.com/Agents/20747",
    "entity_name": "Sucralose",
    "category": "agents",
    "uuid": "7f39f2a7-78e4-4a81-8f6e-59bc37bcd5d9",
    "scraped_at": "2025-07-23T22:31:06.493487"
  },
  "parsed_at": "2025-07-24T00:55:57.003710",
  "title": "Sucralose",
  "sections": {
    "general": {
      "agent_name": {
        "original_name": "Agent Name",
        "value": "Sucralose",
        "links": [],
        "cross_references": [
          {
            "type": "name_match",
            "text": "sucralose",
            "confidence": 1.0,
            "uuid": "7f39f2a7-78e4-4a81-8f6e-59bc37bcd5d9",
            "name": "Sucralose",
            "url": "https://haz-map.com/Agents/20747",
            "category": "agents"
          }
        ]
      },
      "cas_number": {
        "original_name": "CAS Number",
        "value": "56038-13-2",
        "links": [],
        "cross_references": []
      },
      "formula": {
        "original_name": "Formula",
        "value": "C12-H19-Cl3-O8",
        "links": [],
        "cross_references": []
      },
      "major_category": {
        "original_name": "Major Category",
        "value": "Biological Agents",
        "links": [],
        "cross_references": []
      },
      "synonyms": {
        "original_name": "Synonyms",
        "value": "1',4,6'-Trichlorogalactosucrose; 1,6-Dichloro-1,6-dideoxy-beta-D-fructofuranosyl 4-chloro-4-deoxy-alpha-D-galactopyranoside; 1,6-Dichloro-1,6-dideoxy-beta-D-fructofuranosyl-4-chloro-4-deoxy-alpha-D-galactopyranoside; 4,1',6'-Trichloro-4,1',6'-trideoxy-galacto-sucrose; Splenda; Trichlorogalacto-sucrose; Trichlorogalactosucrose; 1,6-Dichloro-1,6-dideoxy-beta-D-fructofuranosyl 4-chloro-4-deoxy-alpha-D-galactose; alpha-D-Galactopyranoside, 1,6-dichloro-1,6-dideoxy-beta-D-fructofuranosyl 4-chloro-4-deoxy-; [ChemIDplus] TGS; [Merck Index]",
        "links": [],
        "cross_references": [
          {
            "type": "name_match",
            "text": "sucrose",
            "confidence": 1.0,
            "uuid": "a278842e-4415-48f2-b2fa-13333ad31146",
            "name": "Sucrose",
            "url": "https://haz-map.com/Agents/633",
            "category": "agents"
          },
          {
            "type": "name_match",
            "text": "furan",
            "confidence": 1.0,
            "uuid": "96da3d2e-f46b-4100-9000-704d1a86985b",
            "name": "Furan",
            "url": "https://haz-map.com/Agents/1477",
            "category": "agents"
          },
          {
            "type": "name_match",
            "text": "d-galactose",
            "confidence": 1.0,
            "uuid": "7c17831c-b514-4b2f-ad08-ce2a610baf28",
            "name": "D-Galactose",
            "url": "https://haz-map.com/Agents/13690",
            "category": "agents"
          },
          {
            "type": "name_match",
            "text": "lactose",
            "confidence": 1.0,
            "uuid": "a9f8c81c-bfa0-43e4-a9eb-6e39fa70ab2c",
            "name": "Lactose",
            "url": "https://haz-map.com/Agents/15057",
            "category": "agents"
          }
        ]
      },
      "category": {
        "original_name": "Category",
        "value": "Disaccharides",
        "links": [],
        "cross_references": []
      },
      "description": {
        "original_name": "Description",
        "value": "Syrup; Anhydrous form is solid; [Merck Index] White to off-white solid; [HSDB] White powder; [Sigma-Aldrich MSDS]",
        "links": [],
        "cross_references": []
      },
      "sourcesuses": {
        "original_name": "Sources/Uses",
        "value": "Chlorinated derivative of sucrose; Used as a non-nutritive sweetener; [Merck Index]",
        "links": [],
        "cross_references": [
          {
            "type": "name_match",
            "text": "sucrose",
            "confidence": 1.0,
            "uuid": "a278842e-4415-48f2-b2fa-13333ad31146",
            "name": "Sucrose",
            "url": "https://haz-map.com/Agents/633",
            "category": "agents"
          },
          {
            "type": "name_match",
            "text": "chlorin",
            "confidence": 1.0,
            "uuid": "4a566fec-ec7e-42b0-9f14-ec586335e694",
            "name": "Chlorin",
            "url": "https://haz-map.com/Agents/20422",
            "category": "agents"
          }
        ]
      },
      "comments": {
        "original_name": "Comments",
        "value": "No teratogenicity observed in rats or rabbits at high maternal doses; [REPROTOX] Acceptable daily intake (ADI) of 0-15 mg/kg; [JECFA] May cause irritation; [Sigma-Aldrich MSDS]",
        "links": [],
        "cross_references": []
      },
      "biomedical_references": {
        "original_name": "Biomedical References",
        "value": "Search PubMed",
        "links": [
          {
            "text": "Search PubMed",
            "url": "https://www.ncbi.nlm.nih.gov/pubmed?term=Sucralose%20AND%20human%5Bmh%5D%20AND%20%28Occupational%20Diseases%20%5Bmh%5D%20OR%20Occupational%20Exposure%20%5Bmh%5D%29%20%20AND%20%28tox%5Bsb%5D%29&cmd=search"
          }
        ],
        "cross_references": []
      }
    },
    "exposure_assessment": {
      "vapor_pressure": {
        "original_name": "Vapor Pressure",
        "value": "3.25E-14 mm Hg",
        "links": [],
        "cross_references": []
      }
    },
    "diseases_processes_and_activities_linked_to_this_agent": {
      "other_information": {
        "original_name": "Other Information",
        "value": "No other related information on this agent was found.",
        "links": [],
        "cross_references": []
      }
    }
  },
  "cross_references": [
    {
      "type": "name_match",
      "text": "sucrose",
      "confidence": 1.0,
      "uuid": "a278842e-4415-48f2-b2fa-13333ad31146",
      "name": "Sucrose",
      "url": "https://haz-map.com/Agents/633",
      "category": "agents"
    },
    {
      "type": "name_match",
      "text": "furan",
      "confidence": 1.0,
      "uuid": "96da3d2e-f46b-4100-9000-704d1a86985b",
      "name": "Furan",
      "url": "https://haz-map.com/Agents/1477",
      "category": "agents"
    },
    {
      "type": "name_match",
      "text": "d-galactose",
      "confidence": 1.0,
      "uuid": "7c17831c-b514-4b2f-ad08-ce2a610baf28",
      "name": "D-Galactose",
      "url": "https://haz-map.com/Agents/13690",
      "category": "agents"
    },
    {
      "type": "name_match",
      "text": "lactose",
      "confidence": 1.0,
      "uuid": "a9f8c81c-bfa0-43e4-a9eb-6e39fa70ab2c",
      "name": "Lactose",
      "url": "https://haz-map.com/Agents/15057",
      "category": "agents"
    },
    {
      "type": "name_match",
      "text": "chlorin",
      "confidence": 1.0,
      "uuid": "4a566fec-ec7e-42b0-9f14-ec586335e694",
      "name": "Chlorin",
      "url": "https://haz-map.com/Agents/20422",
      "category": "agents"
    },
    {
      "type": "name_match",
      "text": "sucralose",
      "confidence": 1.0,
      "uuid": "7f39f2a7-78e4-4a81-8f6e-59bc37bcd5d9",
      "name": "Sucralose",
      "url": "https://haz-map.com/Agents/20747",
      "category": "agents"
    }
  ],
  "all_links": [
    {
      "text": "Search PubMed",
      "url": "https://www.ncbi.nlm.nih.gov/pubmed?term=Sucralose%20AND%20human%5Bmh%5D%20AND%20%28Occupational%20Diseases%20%5Bmh%5D%20OR%20Occupational%20Exposure%20%5Bmh%5D%29%20%20AND%20%28tox%5Bsb%5D%29&cmd=search"
    }
  ]
}