{
  "metadata": {
    "scraped_from": "https://haz-map.com/Agents/21141",
    "entity_name": "Methyl phenyl sulfoxide",
    "category": "agents",
    "uuid": "7f47f6cb-7e9d-421b-97fd-baad4221efdf",
    "scraped_at": "2025-07-23T22:38:14.674407"
  },
  "parsed_at": "2025-07-24T01:07:20.427221",
  "title": "Methyl phenyl sulfoxide",
  "sections": {
    "general": {
      "agent_name": {
        "original_name": "Agent Name",
        "value": "Methyl phenyl sulfoxide",
        "links": [],
        "cross_references": [
          {
            "type": "name_match",
            "text": "methyl phenyl sulfoxide",
            "confidence": 1.0,
            "uuid": "7f47f6cb-7e9d-421b-97fd-baad4221efdf",
            "name": "Methyl phenyl sulfoxide",
            "url": "https://haz-map.com/Agents/21141",
            "category": "agents"
          }
        ]
      },
      "cas_number": {
        "original_name": "CAS Number",
        "value": "1193-82-4",
        "links": [],
        "cross_references": []
      },
      "formula": {
        "original_name": "Formula",
        "value": "C7-H8-O-S",
        "links": [],
        "cross_references": []
      },
      "major_category": {
        "original_name": "Major Category",
        "value": "Other Classes",
        "links": [],
        "cross_references": []
      },
      "synonyms": {
        "original_name": "Synonyms",
        "value": "(Methylsulfinyl)benzene; Phenyl methyl sulfoxide; Thioanisole S-oxide; (Methylsulphinyl)benzene; Benzene, (methylsulfinyl)- (9CI); Sulfoxide, methyl phenyl (8CI); [ChemIDplus]",
        "links": [],
        "cross_references": [
          {
            "type": "name_match",
            "text": "benzene",
            "confidence": 1.0,
            "uuid": "b05124de-5f34-4c14-8f04-ccb20c3780d9",
            "name": "Benzene",
            "url": "https://haz-map.com/Agents/5",
            "category": "agents"
          },
          {
            "type": "name_match",
            "text": "anisole",
            "confidence": 1.0,
            "uuid": "f122d940-2dba-441c-9dbf-c185355d4cb0",
            "name": "Anisole",
            "url": "https://haz-map.com/Agents/3708",
            "category": "agents"
          }
        ]
      },
      "category": {
        "original_name": "Category",
        "value": "Sulfur Compounds",
        "links": [],
        "cross_references": [
          {
            "type": "name_match",
            "text": "sulfur",
            "confidence": 1.0,
            "uuid": "5aabdef6-71c8-44c8-b762-feaabff50696",
            "name": "Sulfur",
            "url": "https://haz-map.com/Agents/1942",
            "category": "agents"
          }
        ]
      },
      "description": {
        "original_name": "Description",
        "value": "White hygroscopic crystals; mp = 34-36 deg C; [Acros Organics MSDS]",
        "links": [],
        "cross_references": []
      },
      "comments": {
        "original_name": "Comments",
        "value": "May cause irritation; [Acros Organics MSDS] See \"Dimethyl sulfoxide.\"",
        "links": [],
        "cross_references": [
          {
            "type": "name_match",
            "text": "dimethyl sulfoxide",
            "confidence": 1.0,
            "uuid": "c29c05b9-2a62-4c06-a205-f73b1ef4892d",
            "name": "Dimethyl sulfoxide",
            "url": "https://haz-map.com/Agents/1671",
            "category": "agents"
          }
        ]
      },
      "biomedical_references": {
        "original_name": "Biomedical References",
        "value": "Search PubMed",
        "links": [
          {
            "text": "Search PubMed",
            "url": "https://www.ncbi.nlm.nih.gov/pubmed?term=Methyl+phenyl+sulfoxide%20AND%20human%5Bmh%5D%20AND%20%28Occupational%20Diseases%20%5Bmh%5D%20OR%20Occupational%20Exposure%20%5Bmh%5D%29%20%20AND%20%28tox%5Bsb%5D%29&cmd=search"
          }
        ],
        "cross_references": []
      }
    },
    "exposure_assessment": {
      "vapor_pressure": {
        "original_name": "Vapor Pressure",
        "value": "0.02 mm Hg",
        "links": [],
        "cross_references": []
      }
    },
    "diseases_processes_and_activities_linked_to_this_agent": {
      "other_information": {
        "original_name": "Other Information",
        "value": "No other related information on this agent was found.",
        "links": [],
        "cross_references": []
      }
    }
  },
  "cross_references": [
    {
      "type": "name_match",
      "text": "benzene",
      "confidence": 1.0,
      "uuid": "b05124de-5f34-4c14-8f04-ccb20c3780d9",
      "name": "Benzene",
      "url": "https://haz-map.com/Agents/5",
      "category": "agents"
    },
    {
      "type": "name_match",
      "text": "dimethyl sulfoxide",
      "confidence": 1.0,
      "uuid": "c29c05b9-2a62-4c06-a205-f73b1ef4892d",
      "name": "Dimethyl sulfoxide",
      "url": "https://haz-map.com/Agents/1671",
      "category": "agents"
    },
    {
      "type": "name_match",
      "text": "sulfur",
      "confidence": 1.0,
      "uuid": "5aabdef6-71c8-44c8-b762-feaabff50696",
      "name": "Sulfur",
      "url": "https://haz-map.com/Agents/1942",
      "category": "agents"
    },
    {
      "type": "name_match",
      "text": "anisole",
      "confidence": 1.0,
      "uuid": "f122d940-2dba-441c-9dbf-c185355d4cb0",
      "name": "Anisole",
      "url": "https://haz-map.com/Agents/3708",
      "category": "agents"
    },
    {
      "type": "name_match",
      "text": "methyl phenyl sulfoxide",
      "confidence": 1.0,
      "uuid": "7f47f6cb-7e9d-421b-97fd-baad4221efdf",
      "name": "Methyl phenyl sulfoxide",
      "url": "https://haz-map.com/Agents/21141",
      "category": "agents"
    }
  ],
  "all_links": [
    {
      "text": "Search PubMed",
      "url": "https://www.ncbi.nlm.nih.gov/pubmed?term=Methyl+phenyl+sulfoxide%20AND%20human%5Bmh%5D%20AND%20%28Occupational%20Diseases%20%5Bmh%5D%20OR%20Occupational%20Exposure%20%5Bmh%5D%29%20%20AND%20%28tox%5Bsb%5D%29&cmd=search"
    }
  ]
}