{
  "metadata": {
    "scraped_from": "https://haz-map.com/Agents/4302",
    "entity_name": "4-Chlorophenylsulfonyl chloride",
    "category": "agents",
    "uuid": "7fa8a69d-f225-4e3b-a95b-89be86658cce",
    "scraped_at": "2025-07-23T19:39:43.783688"
  },
  "parsed_at": "2025-07-24T01:00:39.040461",
  "title": "4-Chlorophenylsulfonyl chloride",
  "sections": {
    "general": {
      "agent_name": {
        "original_name": "Agent Name",
        "value": "4-Chlorophenylsulfonyl chloride",
        "links": [],
        "cross_references": [
          {
            "type": "name_match",
            "text": "4-chlorophenylsulfonyl chloride",
            "confidence": 1.0,
            "uuid": "7fa8a69d-f225-4e3b-a95b-89be86658cce",
            "name": "4-Chlorophenylsulfonyl chloride",
            "url": "https://haz-map.com/Agents/4302",
            "category": "agents"
          }
        ]
      },
      "cas_number": {
        "original_name": "CAS Number",
        "value": "98-60-2",
        "links": [],
        "cross_references": []
      },
      "formula": {
        "original_name": "Formula",
        "value": "C6-H4-Cl2-O2-S",
        "links": [],
        "cross_references": []
      },
      "major_category": {
        "original_name": "Major Category",
        "value": "Toxic Gases & Vapors",
        "links": [],
        "cross_references": []
      },
      "synonyms": {
        "original_name": "Synonyms",
        "value": "4-Chlorobenzenesulfonyl chloride; Benzenesulfonic acid, 4-chloro-, chloride; Benzenesulfonyl chloride, 4-chloro-; Benzenesulfonyl chloride, p-chloro-; Chlorid kyseliny p-chlorbensulfonove [Czech]; p-Chlorbenzensulfochlorid [Czech]; p-Chlorobenzenesulfonyl chloride; p-Chlorophenylsulfonyl chloride; [ChemIDplus] UN3096",
        "links": [],
        "cross_references": [
          {
            "type": "name_match",
            "text": "benzene",
            "confidence": 1.0,
            "uuid": "b05124de-5f34-4c14-8f04-ccb20c3780d9",
            "name": "Benzene",
            "url": "https://haz-map.com/Agents/5",
            "category": "agents"
          },
          {
            "type": "name_match",
            "text": "chlorobenzene",
            "confidence": 1.0,
            "uuid": "7e598eca-f35d-493c-aa78-93bb67744c4c",
            "name": "Chlorobenzene",
            "url": "https://haz-map.com/Agents/85",
            "category": "agents"
          },
          {
            "type": "name_match",
            "text": "benzenesulfonyl chloride",
            "confidence": 1.0,
            "uuid": "98dce964-a8bc-4811-bbd2-ac816bb5a9da",
            "name": "Benzenesulfonyl chloride",
            "url": "https://haz-map.com/Agents/1377",
            "category": "agents"
          },
          {
            "type": "name_match",
            "text": "benzenesulfonic acid",
            "confidence": 1.0,
            "uuid": "39630619-7b3f-4266-b4e1-e41deb2f24e6",
            "name": "Benzenesulfonic acid",
            "url": "https://haz-map.com/Agents/3840",
            "category": "agents"
          }
        ]
      },
      "category": {
        "original_name": "Category",
        "value": "Acid Halides",
        "links": [],
        "cross_references": []
      },
      "description": {
        "original_name": "Description",
        "value": "White solid; [CHEMINFO]",
        "links": [],
        "cross_references": []
      },
      "comments": {
        "original_name": "Comments",
        "value": "Decomposes in water; A severe eye and moderate skin irritant based on animal studies; [CHEMINFO] Reacts violently with water; A corrosive substance that can cause injury to the skin, eyes, and respiratory tract; Inhalation may cause edema and chemical pneumonitis; [MSDSonline]",
        "links": [],
        "cross_references": [
          {
            "type": "name_match",
            "text": "mica",
            "confidence": 1.0,
            "uuid": "433f26f1-c399-4596-b179-ce3843cfd465",
            "name": "Mica",
            "url": "https://haz-map.com/Agents/621",
            "category": "agents"
          },
          {
            "type": "name_match",
            "text": "water",
            "confidence": 1.0,
            "uuid": "6f2a7557-dfd2-49bc-9b4b-a93cd8e225d4",
            "name": "Water",
            "url": "https://haz-map.com/Agents/18668",
            "category": "agents"
          }
        ]
      },
      "biomedical_references": {
        "original_name": "Biomedical References",
        "value": "Search PubMed",
        "links": [
          {
            "text": "Search PubMed",
            "url": "https://www.ncbi.nlm.nih.gov/pubmed?term=4-Chlorophenylsulfonyl+chloride%20AND%20human%5Bmh%5D%20AND%20%28Occupational%20Diseases%20%5Bmh%5D%20OR%20Occupational%20Exposure%20%5Bmh%5D%29%20%20AND%20%28tox%5Bsb%5D%29&cmd=search"
          }
        ],
        "cross_references": []
      }
    },
    "exposure_assessment": {
      "vapor_pressure": {
        "original_name": "Vapor Pressure",
        "value": "0.00117 mm Hg",
        "links": [],
        "cross_references": []
      },
      "explanatory_notes": {
        "original_name": "Explanatory Notes",
        "value": "The Guide in the Emergency Response Guidebook is for \"Corrosive solid, water reactive, n.o.s.\"",
        "links": [],
        "cross_references": [
          {
            "type": "name_match",
            "text": "water",
            "confidence": 1.0,
            "uuid": "6f2a7557-dfd2-49bc-9b4b-a93cd8e225d4",
            "name": "Water",
            "url": "https://haz-map.com/Agents/18668",
            "category": "agents"
          }
        ]
      }
    },
    "adverse_effects": {
      "toxic_pneumonitis": {
        "original_name": "Toxic Pneumonitis",
        "value": "Yes",
        "links": [],
        "cross_references": []
      },
      "dermatotoxin": {
        "original_name": "Dermatotoxin",
        "value": "Skin burns",
        "links": [],
        "cross_references": [
          {
            "type": "name_match",
            "text": "burn",
            "confidence": 1.0,
            "uuid": "63665de5-6376-4918-8dbf-4c10c4d63837",
            "name": "burn",
            "url": "https://haz-map.com/Findings/204",
            "category": "findings"
          }
        ]
      }
    },
    "diseases_processes_and_activities_linked_to_this_agent": {
      "other_information": {
        "original_name": "Other Information",
        "value": "No other related information on this agent was found.",
        "links": [],
        "cross_references": []
      }
    }
  },
  "cross_references": [
    {
      "type": "name_match",
      "text": "burn",
      "confidence": 1.0,
      "uuid": "63665de5-6376-4918-8dbf-4c10c4d63837",
      "name": "burn",
      "url": "https://haz-map.com/Findings/204",
      "category": "findings"
    },
    {
      "type": "name_match",
      "text": "benzene",
      "confidence": 1.0,
      "uuid": "b05124de-5f34-4c14-8f04-ccb20c3780d9",
      "name": "Benzene",
      "url": "https://haz-map.com/Agents/5",
      "category": "agents"
    },
    {
      "type": "name_match",
      "text": "chlorobenzene",
      "confidence": 1.0,
      "uuid": "7e598eca-f35d-493c-aa78-93bb67744c4c",
      "name": "Chlorobenzene",
      "url": "https://haz-map.com/Agents/85",
      "category": "agents"
    },
    {
      "type": "name_match",
      "text": "mica",
      "confidence": 1.0,
      "uuid": "433f26f1-c399-4596-b179-ce3843cfd465",
      "name": "Mica",
      "url": "https://haz-map.com/Agents/621",
      "category": "agents"
    },
    {
      "type": "name_match",
      "text": "benzenesulfonyl chloride",
      "confidence": 1.0,
      "uuid": "98dce964-a8bc-4811-bbd2-ac816bb5a9da",
      "name": "Benzenesulfonyl chloride",
      "url": "https://haz-map.com/Agents/1377",
      "category": "agents"
    },
    {
      "type": "name_match",
      "text": "benzenesulfonic acid",
      "confidence": 1.0,
      "uuid": "39630619-7b3f-4266-b4e1-e41deb2f24e6",
      "name": "Benzenesulfonic acid",
      "url": "https://haz-map.com/Agents/3840",
      "category": "agents"
    },
    {
      "type": "name_match",
      "text": "4-chlorophenylsulfonyl chloride",
      "confidence": 1.0,
      "uuid": "7fa8a69d-f225-4e3b-a95b-89be86658cce",
      "name": "4-Chlorophenylsulfonyl chloride",
      "url": "https://haz-map.com/Agents/4302",
      "category": "agents"
    },
    {
      "type": "name_match",
      "text": "water",
      "confidence": 1.0,
      "uuid": "6f2a7557-dfd2-49bc-9b4b-a93cd8e225d4",
      "name": "Water",
      "url": "https://haz-map.com/Agents/18668",
      "category": "agents"
    }
  ],
  "all_links": [
    {
      "text": "Search PubMed",
      "url": "https://www.ncbi.nlm.nih.gov/pubmed?term=4-Chlorophenylsulfonyl+chloride%20AND%20human%5Bmh%5D%20AND%20%28Occupational%20Diseases%20%5Bmh%5D%20OR%20Occupational%20Exposure%20%5Bmh%5D%29%20%20AND%20%28tox%5Bsb%5D%29&cmd=search"
    }
  ]
}