{
  "metadata": {
    "scraped_from": "https://haz-map.com/Agents/13564",
    "entity_name": "Cytidine",
    "category": "agents",
    "uuid": "7fc3c1df-8d24-44ef-a0fb-4e3d2b10f838",
    "scraped_at": "2025-07-23T21:15:58.108599"
  },
  "parsed_at": "2025-07-24T00:57:41.353877",
  "title": "Cytidine",
  "sections": {
    "general": {
      "agent_name": {
        "original_name": "Agent Name",
        "value": "Cytidine",
        "links": [],
        "cross_references": [
          {
            "type": "name_match",
            "text": "cytidine",
            "confidence": 1.0,
            "uuid": "7fc3c1df-8d24-44ef-a0fb-4e3d2b10f838",
            "name": "Cytidine",
            "url": "https://haz-map.com/Agents/13564",
            "category": "agents"
          }
        ]
      },
      "cas_number": {
        "original_name": "CAS Number",
        "value": "65-46-3",
        "links": [],
        "cross_references": []
      },
      "formula": {
        "original_name": "Formula",
        "value": "C9-H13-N3-O5",
        "links": [],
        "cross_references": []
      },
      "major_category": {
        "original_name": "Major Category",
        "value": "Biological Agents",
        "links": [],
        "cross_references": []
      },
      "synonyms": {
        "original_name": "Synonyms",
        "value": "1-beta-D-Ribofuranosylcytosine; 1-beta-Ribofuranosylcytosine; 1beta-2'-Ribofuranosylcytosine, d-; 1beta-Ribofuranosylcytosine; 2(1H)-Pyrimidinone, 4-amino-1-beta-D-ribofuranosyl-; 2(1H)-Pyrimidinone, 4-amino-1beta-D-ribofuranosyl-; 4-Amino-1-beta-D-ribofuranosyl-2(1H)-pyrimidinone; 4-Amino-1beta-D-ribofuranosyl-2(1H)-pyrimidinone; beta-D-Ribofuranoside, cytosine-1; Cyd; Cytosine riboside; Cytosine, 1-beta-D-ribofuranosyl-; [ChemIDplus]",
        "links": [],
        "cross_references": [
          {
            "type": "name_match",
            "text": "furan",
            "confidence": 1.0,
            "uuid": "96da3d2e-f46b-4100-9000-704d1a86985b",
            "name": "Furan",
            "url": "https://haz-map.com/Agents/1477",
            "category": "agents"
          },
          {
            "type": "name_match",
            "text": "cytosine",
            "confidence": 1.0,
            "uuid": "f72bad68-a746-453b-a774-7e2b6fffd2df",
            "name": "Cytosine",
            "url": "https://haz-map.com/Agents/13568",
            "category": "agents"
          }
        ]
      },
      "category": {
        "original_name": "Category",
        "value": "Nucleic Acids and Derivatives",
        "links": [],
        "cross_references": []
      },
      "description": {
        "original_name": "Description",
        "value": "Solid; [Merck Index] White hygroscopic solid; [CAMEO] White hygroscopic powder; [Acros Organics MSDS]",
        "links": [],
        "cross_references": []
      },
      "sourcesuses": {
        "original_name": "Sources/Uses",
        "value": "Component of nucleic acids; [Merck Index] \"A pyrimidine nucleoside that is composed of the base CYTOSINE linked to the five-carbon sugar D-RIBOSE.\" [ChemIDplus] Used in biochemical research; [NTP]",
        "links": [],
        "cross_references": [
          {
            "type": "name_match",
            "text": "mica",
            "confidence": 1.0,
            "uuid": "433f26f1-c399-4596-b179-ce3843cfd465",
            "name": "Mica",
            "url": "https://haz-map.com/Agents/621",
            "category": "agents"
          },
          {
            "type": "name_match",
            "text": "carbon",
            "confidence": 1.0,
            "uuid": "b53f8815-ee80-40ef-b4aa-3b000e17dab5",
            "name": "Carbon",
            "url": "https://haz-map.com/Agents/1891",
            "category": "agents"
          },
          {
            "type": "name_match",
            "text": "pyrimidine",
            "confidence": 1.0,
            "uuid": "8c810e75-fc30-4402-838c-43fcd0d46a84",
            "name": "Pyrimidine",
            "url": "https://haz-map.com/Agents/9521",
            "category": "agents"
          },
          {
            "type": "name_match",
            "text": "cytosine",
            "confidence": 1.0,
            "uuid": "f72bad68-a746-453b-a774-7e2b6fffd2df",
            "name": "Cytosine",
            "url": "https://haz-map.com/Agents/13568",
            "category": "agents"
          },
          {
            "type": "name_match",
            "text": "d-ribose",
            "confidence": 1.0,
            "uuid": "7aebfeb3-889f-4930-8a2e-6343a7550fe6",
            "name": "D-Ribose",
            "url": "https://haz-map.com/Agents/17115",
            "category": "agents"
          }
        ]
      },
      "comments": {
        "original_name": "Comments",
        "value": "Causes somnolence in intraperitoneal lethal-dose studies of mice; [RTECS] May cause irritation; [Acros Organics MSDS]",
        "links": [],
        "cross_references": []
      },
      "biomedical_references": {
        "original_name": "Biomedical References",
        "value": "Search PubMed",
        "links": [
          {
            "text": "Search PubMed",
            "url": "https://www.ncbi.nlm.nih.gov/pubmed?term=Cytidine%20AND%20human%5Bmh%5D%20AND%20%28Occupational%20Diseases%20%5Bmh%5D%20OR%20Occupational%20Exposure%20%5Bmh%5D%29%20%20AND%20%28tox%5Bsb%5D%29&cmd=search"
          }
        ],
        "cross_references": []
      }
    },
    "exposure_assessment": {
      "vapor_pressure": {
        "original_name": "Vapor Pressure",
        "value": "1.65E-11 mm Hg",
        "links": [],
        "cross_references": []
      }
    },
    "diseases_processes_and_activities_linked_to_this_agent": {
      "other_information": {
        "original_name": "Other Information",
        "value": "No other related information on this agent was found.",
        "links": [],
        "cross_references": []
      }
    }
  },
  "cross_references": [
    {
      "type": "name_match",
      "text": "mica",
      "confidence": 1.0,
      "uuid": "433f26f1-c399-4596-b179-ce3843cfd465",
      "name": "Mica",
      "url": "https://haz-map.com/Agents/621",
      "category": "agents"
    },
    {
      "type": "name_match",
      "text": "furan",
      "confidence": 1.0,
      "uuid": "96da3d2e-f46b-4100-9000-704d1a86985b",
      "name": "Furan",
      "url": "https://haz-map.com/Agents/1477",
      "category": "agents"
    },
    {
      "type": "name_match",
      "text": "carbon",
      "confidence": 1.0,
      "uuid": "b53f8815-ee80-40ef-b4aa-3b000e17dab5",
      "name": "Carbon",
      "url": "https://haz-map.com/Agents/1891",
      "category": "agents"
    },
    {
      "type": "name_match",
      "text": "pyrimidine",
      "confidence": 1.0,
      "uuid": "8c810e75-fc30-4402-838c-43fcd0d46a84",
      "name": "Pyrimidine",
      "url": "https://haz-map.com/Agents/9521",
      "category": "agents"
    },
    {
      "type": "name_match",
      "text": "cytidine",
      "confidence": 1.0,
      "uuid": "7fc3c1df-8d24-44ef-a0fb-4e3d2b10f838",
      "name": "Cytidine",
      "url": "https://haz-map.com/Agents/13564",
      "category": "agents"
    },
    {
      "type": "name_match",
      "text": "cytosine",
      "confidence": 1.0,
      "uuid": "f72bad68-a746-453b-a774-7e2b6fffd2df",
      "name": "Cytosine",
      "url": "https://haz-map.com/Agents/13568",
      "category": "agents"
    },
    {
      "type": "name_match",
      "text": "d-ribose",
      "confidence": 1.0,
      "uuid": "7aebfeb3-889f-4930-8a2e-6343a7550fe6",
      "name": "D-Ribose",
      "url": "https://haz-map.com/Agents/17115",
      "category": "agents"
    }
  ],
  "all_links": [
    {
      "text": "Search PubMed",
      "url": "https://www.ncbi.nlm.nih.gov/pubmed?term=Cytidine%20AND%20human%5Bmh%5D%20AND%20%28Occupational%20Diseases%20%5Bmh%5D%20OR%20Occupational%20Exposure%20%5Bmh%5D%29%20%20AND%20%28tox%5Bsb%5D%29&cmd=search"
    }
  ]
}