{
  "metadata": {
    "scraped_from": "https://haz-map.com/Agents/1755",
    "entity_name": "Uranyl nitrate",
    "category": "agents",
    "uuid": "7fe879cf-db1d-46d7-b196-f80ea233103b",
    "scraped_at": "2025-07-23T19:04:15.215768"
  },
  "parsed_at": "2025-07-24T01:15:41.148151",
  "title": "Uranyl nitrate",
  "sections": {
    "general": {
      "agent_name": {
        "original_name": "Agent Name",
        "value": "Uranyl nitrate",
        "links": [],
        "cross_references": [
          {
            "type": "name_match",
            "text": "uranyl nitrate",
            "confidence": 1.0,
            "uuid": "7fe879cf-db1d-46d7-b196-f80ea233103b",
            "name": "Uranyl nitrate",
            "url": "https://haz-map.com/Agents/1755",
            "category": "agents"
          }
        ]
      },
      "cas_number": {
        "original_name": "CAS Number",
        "value": "10102-06-4",
        "links": [],
        "cross_references": []
      },
      "formula": {
        "original_name": "Formula",
        "value": "N2-O8-U",
        "links": [],
        "cross_references": []
      },
      "major_category": {
        "original_name": "Major Category",
        "value": "Physical/Radiation",
        "links": [],
        "cross_references": []
      },
      "synonyms": {
        "original_name": "Synonyms",
        "value": "Bis(nitrato)dioxouranium; Dinitratodioxouranium; UNH; Uranium nitrate oxide (UO2(NO3)2); Uranium oxynitrate; Uranium, bis(nitrato-O)dioxo-; Uranium, bis(nitrato-O,O')dioxo- (solid); Uranium, dinitratodioxo-; Uranyl dinitrate; Uranyl nitrate (UO2(NO3)2); Yellow salt; UN2981; [ChemIDplus]",
        "links": [],
        "cross_references": [
          {
            "type": "name_match",
            "text": "uranium",
            "confidence": 1.0,
            "uuid": "6790b1d5-8068-41c3-ad2c-112a904fbba8",
            "name": "Uranium",
            "url": "https://haz-map.com/Agents/43",
            "category": "agents"
          },
          {
            "type": "name_match",
            "text": "uranyl nitrate",
            "confidence": 1.0,
            "uuid": "7fe879cf-db1d-46d7-b196-f80ea233103b",
            "name": "Uranyl nitrate",
            "url": "https://haz-map.com/Agents/1755",
            "category": "agents"
          },
          {
            "type": "name_match",
            "text": "uranium nitrate",
            "confidence": 1.0,
            "uuid": "c027aca3-7d9c-4cde-b10e-e53fcc3715b1",
            "name": "Uranium nitrate",
            "url": "https://haz-map.com/Agents/9352",
            "category": "agents"
          }
        ]
      },
      "category": {
        "original_name": "Category",
        "value": "Radioactive Compounds",
        "links": [],
        "cross_references": []
      },
      "description": {
        "original_name": "Description",
        "value": "Yellow crystals that are luminescent when crushed; [Merck Index]",
        "links": [],
        "cross_references": []
      },
      "sourcesuses": {
        "original_name": "Sources/Uses",
        "value": "Used in photography as an intensifier; Also used as a ceramic glaze and a chemical reagent; [Merck Index] Used as a source of uranium dioxide; [Hawley]",
        "links": [],
        "cross_references": [
          {
            "type": "name_match",
            "text": "uranium",
            "confidence": 1.0,
            "uuid": "6790b1d5-8068-41c3-ad2c-112a904fbba8",
            "name": "Uranium",
            "url": "https://haz-map.com/Agents/43",
            "category": "agents"
          },
          {
            "type": "name_match",
            "text": "mica",
            "confidence": 1.0,
            "uuid": "433f26f1-c399-4596-b179-ce3843cfd465",
            "name": "Mica",
            "url": "https://haz-map.com/Agents/621",
            "category": "agents"
          },
          {
            "type": "name_match",
            "text": "uranium dioxide",
            "confidence": 1.0,
            "uuid": "41bbf751-1dda-473d-8496-b7591dad46f0",
            "name": "Uranium dioxide",
            "url": "https://haz-map.com/Agents/1744",
            "category": "agents"
          }
        ]
      },
      "comments": {
        "original_name": "Comments",
        "value": "Melting point = 60 degrees C; Soluble in water, alcohol, and ether; May explode if exposed to sunlight; [Merck Index] In experiments performed on human volunteers IV injections of 70-100 ug/kg produced proteinuria. Uranium was eliminated mainly through the urine with 70-85% excreted in the first 24 hours. Nitrate compounds can cause methemoglobinemia. Emits toxic nitrogen oxides when heated to decomposition; [HSDB] \"Produces toxic oxides of nitrogen when involved in fires.\" [CAMEO] See Uranyl nitrate hexahydrate.\" See \"Uranium\" and linked occupational diseases.",
        "links": [],
        "cross_references": [
          {
            "type": "name_match",
            "text": "proteinuria",
            "confidence": 1.0,
            "uuid": "bb0ad01f-a677-491a-bcaa-73b9314b919a",
            "name": "proteinuria",
            "url": "https://haz-map.com/Findings/79",
            "category": "findings"
          },
          {
            "type": "name_match",
            "text": "uranium",
            "confidence": 1.0,
            "uuid": "6790b1d5-8068-41c3-ad2c-112a904fbba8",
            "name": "Uranium",
            "url": "https://haz-map.com/Agents/43",
            "category": "agents"
          },
          {
            "type": "name_match",
            "text": "nitrogen",
            "confidence": 1.0,
            "uuid": "db5e90a9-06d2-45b9-8b81-f345a89b0bc0",
            "name": "Nitrogen",
            "url": "https://haz-map.com/Agents/1072",
            "category": "agents"
          },
          {
            "type": "name_match",
            "text": "uranyl nitrate",
            "confidence": 1.0,
            "uuid": "7fe879cf-db1d-46d7-b196-f80ea233103b",
            "name": "Uranyl nitrate",
            "url": "https://haz-map.com/Agents/1755",
            "category": "agents"
          },
          {
            "type": "name_match",
            "text": "uranyl nitrate hexahydrate",
            "confidence": 1.0,
            "uuid": "ea5eee40-1f6f-4155-87a3-1ab722e97a16",
            "name": "Uranyl nitrate hexahydrate",
            "url": "https://haz-map.com/Agents/1756",
            "category": "agents"
          },
          {
            "type": "name_match",
            "text": "ht",
            "confidence": 1.0,
            "uuid": "764df367-8d53-4a11-81a2-31ccfe122a8d",
            "name": "HT",
            "url": "https://haz-map.com/Agents/2168",
            "category": "agents"
          },
          {
            "type": "name_match",
            "text": "methemoglobin",
            "confidence": 1.0,
            "uuid": "afb7ebf5-d2a3-4e60-8d2e-3a19456344ee",
            "name": "Methemoglobin",
            "url": "https://haz-map.com/Agents/15467",
            "category": "agents"
          },
          {
            "type": "name_match",
            "text": "water",
            "confidence": 1.0,
            "uuid": "6f2a7557-dfd2-49bc-9b4b-a93cd8e225d4",
            "name": "Water",
            "url": "https://haz-map.com/Agents/18668",
            "category": "agents"
          },
          {
            "type": "fuzzy_match",
            "text": "methemoglobinemia",
            "matched_name": "Methemoglobinemia, acute",
            "confidence": 0.7208333333333333,
            "uuid": "473a44bd-cf11-4710-a769-e8e2b25ba317",
            "category": "diseases",
            "url": "https://haz-map.com/Diseases/210"
          }
        ]
      },
      "biomedical_references": {
        "original_name": "Biomedical References",
        "value": "Search PubMed",
        "links": [
          {
            "text": "Search PubMed",
            "url": "https://www.ncbi.nlm.nih.gov/pubmed?term=Uranyl+nitrate%20AND%20human%5Bmh%5D%20AND%20%28Occupational%20Diseases%20%5Bmh%5D%20OR%20Occupational%20Exposure%20%5Bmh%5D%29%20%20AND%20%28tox%5Bsb%5D%29&cmd=search"
          }
        ],
        "cross_references": []
      }
    },
    "exposure_assessment": {
      "bei": {
        "original_name": "BEI",
        "value": "Uranium in urine = 200 ug/L at end of shift; [ACGIH]",
        "links": [],
        "cross_references": [
          {
            "type": "name_match",
            "text": "uranium",
            "confidence": 1.0,
            "uuid": "6790b1d5-8068-41c3-ad2c-112a904fbba8",
            "name": "Uranium",
            "url": "https://haz-map.com/Agents/43",
            "category": "agents"
          }
        ]
      },
      "tlv_acgih": {
        "original_name": "TLV (ACGIH)",
        "value": "0.2 mg/m3, as U",
        "links": [],
        "cross_references": []
      },
      "stel_acgih": {
        "original_name": "STEL (ACGIH)",
        "value": "0.6 mg/m3, as U",
        "links": [],
        "cross_references": []
      },
      "pel_osha": {
        "original_name": "PEL (OSHA)",
        "value": "0.05 mg/m3, as U (sol), 0.25 mg/m3, as U (insol)",
        "links": [],
        "cross_references": []
      },
      "idlh_niosh": {
        "original_name": "IDLH (NIOSH)",
        "value": "10 mg/m3, as U",
        "links": [],
        "cross_references": []
      }
    },
    "adverse_effects": {
      "methemoglobinemia": {
        "original_name": "Methemoglobinemia",
        "value": "MetHgb is secondary toxic effect",
        "links": [],
        "cross_references": []
      }
    },
    "diseases_processes_and_activities_linked_to_this_agent": {
      "processes": {
        "original_name": "Processes",
        "value": "Industrial Processes with risk of exposure: Photographic Processing",
        "links": [
          {
            "text": "Photographic Processing",
            "url": "https://haz-map.com/Processes/231"
          }
        ],
        "cross_references": []
      },
      "activities": {
        "original_name": "Activities",
        "value": "Activities with risk of exposure: Ceramics making",
        "links": [
          {
            "text": "Ceramics making",
            "url": "https://haz-map.com/Activities/3"
          }
        ],
        "cross_references": [
          {
            "type": "url_match",
            "text": "Ceramics making",
            "url": "https://haz-map.com/Activities/3",
            "confidence": 1.0,
            "uuid": "0b974fda-5600-4a2e-846b-07d43554a3dc",
            "name": "Ceramics making",
            "category": "activities"
          }
        ]
      }
    }
  },
  "cross_references": [
    {
      "type": "url_match",
      "text": "Ceramics making",
      "url": "https://haz-map.com/Activities/3",
      "confidence": 1.0,
      "uuid": "0b974fda-5600-4a2e-846b-07d43554a3dc",
      "name": "Ceramics making",
      "category": "activities"
    },
    {
      "type": "name_match",
      "text": "proteinuria",
      "confidence": 1.0,
      "uuid": "bb0ad01f-a677-491a-bcaa-73b9314b919a",
      "name": "proteinuria",
      "url": "https://haz-map.com/Findings/79",
      "category": "findings"
    },
    {
      "type": "name_match",
      "text": "uranium",
      "confidence": 1.0,
      "uuid": "6790b1d5-8068-41c3-ad2c-112a904fbba8",
      "name": "Uranium",
      "url": "https://haz-map.com/Agents/43",
      "category": "agents"
    },
    {
      "type": "name_match",
      "text": "mica",
      "confidence": 1.0,
      "uuid": "433f26f1-c399-4596-b179-ce3843cfd465",
      "name": "Mica",
      "url": "https://haz-map.com/Agents/621",
      "category": "agents"
    },
    {
      "type": "name_match",
      "text": "nitrogen",
      "confidence": 1.0,
      "uuid": "db5e90a9-06d2-45b9-8b81-f345a89b0bc0",
      "name": "Nitrogen",
      "url": "https://haz-map.com/Agents/1072",
      "category": "agents"
    },
    {
      "type": "name_match",
      "text": "uranium dioxide",
      "confidence": 1.0,
      "uuid": "41bbf751-1dda-473d-8496-b7591dad46f0",
      "name": "Uranium dioxide",
      "url": "https://haz-map.com/Agents/1744",
      "category": "agents"
    },
    {
      "type": "name_match",
      "text": "uranyl nitrate",
      "confidence": 1.0,
      "uuid": "7fe879cf-db1d-46d7-b196-f80ea233103b",
      "name": "Uranyl nitrate",
      "url": "https://haz-map.com/Agents/1755",
      "category": "agents"
    },
    {
      "type": "name_match",
      "text": "uranyl nitrate hexahydrate",
      "confidence": 1.0,
      "uuid": "ea5eee40-1f6f-4155-87a3-1ab722e97a16",
      "name": "Uranyl nitrate hexahydrate",
      "url": "https://haz-map.com/Agents/1756",
      "category": "agents"
    },
    {
      "type": "name_match",
      "text": "ht",
      "confidence": 1.0,
      "uuid": "764df367-8d53-4a11-81a2-31ccfe122a8d",
      "name": "HT",
      "url": "https://haz-map.com/Agents/2168",
      "category": "agents"
    },
    {
      "type": "name_match",
      "text": "uranium nitrate",
      "confidence": 1.0,
      "uuid": "c027aca3-7d9c-4cde-b10e-e53fcc3715b1",
      "name": "Uranium nitrate",
      "url": "https://haz-map.com/Agents/9352",
      "category": "agents"
    },
    {
      "type": "name_match",
      "text": "methemoglobin",
      "confidence": 1.0,
      "uuid": "afb7ebf5-d2a3-4e60-8d2e-3a19456344ee",
      "name": "Methemoglobin",
      "url": "https://haz-map.com/Agents/15467",
      "category": "agents"
    },
    {
      "type": "name_match",
      "text": "water",
      "confidence": 1.0,
      "uuid": "6f2a7557-dfd2-49bc-9b4b-a93cd8e225d4",
      "name": "Water",
      "url": "https://haz-map.com/Agents/18668",
      "category": "agents"
    },
    {
      "type": "fuzzy_match",
      "text": "methemoglobinemia",
      "matched_name": "Methemoglobinemia, acute",
      "confidence": 0.7208333333333333,
      "uuid": "473a44bd-cf11-4710-a769-e8e2b25ba317",
      "category": "diseases",
      "url": "https://haz-map.com/Diseases/210"
    }
  ],
  "all_links": [
    {
      "text": "Search PubMed",
      "url": "https://www.ncbi.nlm.nih.gov/pubmed?term=Uranyl+nitrate%20AND%20human%5Bmh%5D%20AND%20%28Occupational%20Diseases%20%5Bmh%5D%20OR%20Occupational%20Exposure%20%5Bmh%5D%29%20%20AND%20%28tox%5Bsb%5D%29&cmd=search"
    },
    {
      "text": "Photographic Processing",
      "url": "https://haz-map.com/Processes/231"
    },
    {
      "text": "Ceramics making",
      "url": "https://haz-map.com/Activities/3"
    }
  ]
}