{
  "metadata": {
    "scraped_from": "https://haz-map.com/Agents/8313",
    "entity_name": "Benzidine dihydrochloride",
    "category": "agents",
    "uuid": "809532f5-5952-4619-b6cf-82b871328419",
    "scraped_at": "2025-07-23T20:25:09.212134"
  },
  "parsed_at": "2025-07-24T01:18:46.250409",
  "title": "Benzidine dihydrochloride",
  "sections": {
    "general": {
      "agent_name": {
        "original_name": "Agent Name",
        "value": "Benzidine dihydrochloride",
        "links": [],
        "cross_references": [
          {
            "type": "name_match",
            "text": "benzidine",
            "confidence": 1.0,
            "uuid": "c00ca5d5-2820-4d3a-9dc6-5d1d2b33ccbd",
            "name": "Benzidine",
            "url": "https://haz-map.com/Agents/87",
            "category": "agents"
          },
          {
            "type": "name_match",
            "text": "benzidine dihydrochloride",
            "confidence": 1.0,
            "uuid": "809532f5-5952-4619-b6cf-82b871328419",
            "name": "Benzidine dihydrochloride",
            "url": "https://haz-map.com/Agents/8313",
            "category": "agents"
          }
        ]
      },
      "cas_number": {
        "original_name": "CAS Number",
        "value": "531-85-1",
        "links": [],
        "cross_references": []
      },
      "formula": {
        "original_name": "Formula",
        "value": "C12-H12-N2.2Cl-H",
        "links": [],
        "cross_references": []
      },
      "major_category": {
        "original_name": "Major Category",
        "value": "Nitrogen Compounds",
        "links": [],
        "cross_references": [
          {
            "type": "name_match",
            "text": "nitrogen",
            "confidence": 1.0,
            "uuid": "db5e90a9-06d2-45b9-8b81-f345a89b0bc0",
            "name": "Nitrogen",
            "url": "https://haz-map.com/Agents/1072",
            "category": "agents"
          }
        ]
      },
      "synonyms": {
        "original_name": "Synonyms",
        "value": "(1,1'-Biphenyl)-4,4'-diamine, dihydrochloride; Benzidine HCl; Benzidine hydrochloride; Dihidrocloruro de benzidina [Spanish]; [ChemIDplus]",
        "links": [],
        "cross_references": [
          {
            "type": "name_match",
            "text": "benzidine",
            "confidence": 1.0,
            "uuid": "c00ca5d5-2820-4d3a-9dc6-5d1d2b33ccbd",
            "name": "Benzidine",
            "url": "https://haz-map.com/Agents/87",
            "category": "agents"
          },
          {
            "type": "name_match",
            "text": "biphenyl",
            "confidence": 1.0,
            "uuid": "740f90cb-888a-4a3b-b9ae-30768927fec2",
            "name": "Biphenyl",
            "url": "https://haz-map.com/Agents/306",
            "category": "agents"
          }
        ]
      },
      "category": {
        "original_name": "Category",
        "value": "Benzidine and Derivatives",
        "links": [],
        "cross_references": [
          {
            "type": "name_match",
            "text": "benzidine",
            "confidence": 1.0,
            "uuid": "c00ca5d5-2820-4d3a-9dc6-5d1d2b33ccbd",
            "name": "Benzidine",
            "url": "https://haz-map.com/Agents/87",
            "category": "agents"
          }
        ]
      },
      "description": {
        "original_name": "Description",
        "value": "White solid; [CAMEO] Colorless crystalline solid; [MSDSonline]",
        "links": [],
        "cross_references": [
          {
            "type": "fuzzy_match",
            "text": "crystalline",
            "matched_name": "Silica, crystalline",
            "confidence": 0.7061403508771931,
            "uuid": "f920e8a2-46df-41b7-af8d-0368a777251e",
            "category": "agents",
            "url": "https://haz-map.com/Agents/427"
          }
        ]
      },
      "sourcesuses": {
        "original_name": "Sources/Uses",
        "value": "In the presence of acids, benzidine forms salts such as benzidine dihydrochloride. The dihydrochloride form hydrolyzes into the monohydrochloride salt and hydrochloric acid. [Ullmann]",
        "links": [],
        "cross_references": [
          {
            "type": "name_match",
            "text": "benzidine",
            "confidence": 1.0,
            "uuid": "c00ca5d5-2820-4d3a-9dc6-5d1d2b33ccbd",
            "name": "Benzidine",
            "url": "https://haz-map.com/Agents/87",
            "category": "agents"
          },
          {
            "type": "name_match",
            "text": "benzidine dihydrochloride",
            "confidence": 1.0,
            "uuid": "809532f5-5952-4619-b6cf-82b871328419",
            "name": "Benzidine dihydrochloride",
            "url": "https://haz-map.com/Agents/8313",
            "category": "agents"
          },
          {
            "type": "name_match",
            "text": "chloric acid",
            "confidence": 1.0,
            "uuid": "b21bc556-162c-4249-8afc-fb6303f2b8f9",
            "name": "Chloric acid",
            "url": "https://haz-map.com/Agents/8326",
            "category": "agents"
          }
        ]
      },
      "comments": {
        "original_name": "Comments",
        "value": "Readily absorbed through skin; \"Symptoms of exposure to this compound include nausea, vomiting, liver damage and kidney damage.\" [CAMEO] May cause irritation; Targets the liver, kidneys, and bladder; [MSDSonline] See \"Benzidine.\"",
        "links": [],
        "cross_references": [
          {
            "type": "name_match",
            "text": "nausea, vomiting",
            "confidence": 1.0,
            "uuid": "05a86649-6de9-4497-b905-fed87695c637",
            "name": "nausea, vomiting",
            "url": "https://haz-map.com/Findings/10",
            "category": "findings"
          },
          {
            "type": "name_match",
            "text": "benzidine",
            "confidence": 1.0,
            "uuid": "c00ca5d5-2820-4d3a-9dc6-5d1d2b33ccbd",
            "name": "Benzidine",
            "url": "https://haz-map.com/Agents/87",
            "category": "agents"
          },
          {
            "type": "name_match",
            "text": "dde",
            "confidence": 1.0,
            "uuid": "88506fb4-e7b1-4bde-a283-917057f67fc2",
            "name": "DDE",
            "url": "https://haz-map.com/Agents/4656",
            "category": "agents"
          }
        ]
      },
      "biomedical_references": {
        "original_name": "Biomedical References",
        "value": "Search PubMed",
        "links": [
          {
            "text": "Search PubMed",
            "url": "https://www.ncbi.nlm.nih.gov/pubmed?term=Benzidine+dihydrochloride%20AND%20human%5Bmh%5D%20AND%20%28Occupational%20Diseases%20%5Bmh%5D%20OR%20Occupational%20Exposure%20%5Bmh%5D%29%20%20AND%20%28tox%5Bsb%5D%29&cmd=search"
          }
        ],
        "cross_references": []
      }
    },
    "exposure_assessment": {
      "vapor_pressure": {
        "original_name": "Vapor Pressure",
        "value": "4.38E-06 mm Hg",
        "links": [],
        "cross_references": []
      }
    },
    "adverse_effects": {
      "hepatotoxin": {
        "original_name": "Hepatotoxin",
        "value": "Hepatoxic (a) from occupational exposure (secondary effect) or (b) in animal studies or in humans after ingestion",
        "links": [],
        "cross_references": []
      }
    },
    "diseases_processes_and_activities_linked_to_this_agent": {
      "other_information": {
        "original_name": "Other Information",
        "value": "No other related information on this agent was found.",
        "links": [],
        "cross_references": []
      }
    }
  },
  "cross_references": [
    {
      "type": "name_match",
      "text": "nausea, vomiting",
      "confidence": 1.0,
      "uuid": "05a86649-6de9-4497-b905-fed87695c637",
      "name": "nausea, vomiting",
      "url": "https://haz-map.com/Findings/10",
      "category": "findings"
    },
    {
      "type": "name_match",
      "text": "benzidine",
      "confidence": 1.0,
      "uuid": "c00ca5d5-2820-4d3a-9dc6-5d1d2b33ccbd",
      "name": "Benzidine",
      "url": "https://haz-map.com/Agents/87",
      "category": "agents"
    },
    {
      "type": "name_match",
      "text": "biphenyl",
      "confidence": 1.0,
      "uuid": "740f90cb-888a-4a3b-b9ae-30768927fec2",
      "name": "Biphenyl",
      "url": "https://haz-map.com/Agents/306",
      "category": "agents"
    },
    {
      "type": "name_match",
      "text": "nitrogen",
      "confidence": 1.0,
      "uuid": "db5e90a9-06d2-45b9-8b81-f345a89b0bc0",
      "name": "Nitrogen",
      "url": "https://haz-map.com/Agents/1072",
      "category": "agents"
    },
    {
      "type": "name_match",
      "text": "dde",
      "confidence": 1.0,
      "uuid": "88506fb4-e7b1-4bde-a283-917057f67fc2",
      "name": "DDE",
      "url": "https://haz-map.com/Agents/4656",
      "category": "agents"
    },
    {
      "type": "name_match",
      "text": "benzidine dihydrochloride",
      "confidence": 1.0,
      "uuid": "809532f5-5952-4619-b6cf-82b871328419",
      "name": "Benzidine dihydrochloride",
      "url": "https://haz-map.com/Agents/8313",
      "category": "agents"
    },
    {
      "type": "name_match",
      "text": "chloric acid",
      "confidence": 1.0,
      "uuid": "b21bc556-162c-4249-8afc-fb6303f2b8f9",
      "name": "Chloric acid",
      "url": "https://haz-map.com/Agents/8326",
      "category": "agents"
    },
    {
      "type": "fuzzy_match",
      "text": "crystalline",
      "matched_name": "Silica, crystalline",
      "confidence": 0.7061403508771931,
      "uuid": "f920e8a2-46df-41b7-af8d-0368a777251e",
      "category": "agents",
      "url": "https://haz-map.com/Agents/427"
    }
  ],
  "all_links": [
    {
      "text": "Search PubMed",
      "url": "https://www.ncbi.nlm.nih.gov/pubmed?term=Benzidine+dihydrochloride%20AND%20human%5Bmh%5D%20AND%20%28Occupational%20Diseases%20%5Bmh%5D%20OR%20Occupational%20Exposure%20%5Bmh%5D%29%20%20AND%20%28tox%5Bsb%5D%29&cmd=search"
    }
  ]
}