{
  "metadata": {
    "scraped_from": "https://haz-map.com/Agents/5839",
    "entity_name": "Linalool",
    "category": "agents",
    "uuid": "80ec5f10-c5b1-4f76-b92a-a5553597fa8f",
    "scraped_at": "2025-07-23T19:56:19.127182"
  },
  "parsed_at": "2025-07-24T01:13:52.810058",
  "title": "Linalool",
  "sections": {
    "general": {
      "agent_name": {
        "original_name": "Agent Name",
        "value": "Linalool",
        "links": [],
        "cross_references": [
          {
            "type": "name_match",
            "text": "linalool",
            "confidence": 1.0,
            "uuid": "80ec5f10-c5b1-4f76-b92a-a5553597fa8f",
            "name": "Linalool",
            "url": "https://haz-map.com/Agents/5839",
            "category": "agents"
          }
        ]
      },
      "alternative_name": {
        "original_name": "Alternative Name",
        "value": "Linalyl alcohol",
        "links": [],
        "cross_references": []
      },
      "cas_number": {
        "original_name": "CAS Number",
        "value": "78-70-6",
        "links": [],
        "cross_references": []
      },
      "formula": {
        "original_name": "Formula",
        "value": "C10-H18-O",
        "links": [],
        "cross_references": []
      },
      "major_category": {
        "original_name": "Major Category",
        "value": "Biological Agents",
        "links": [],
        "cross_references": []
      },
      "synonyms": {
        "original_name": "Synonyms",
        "value": "Linalyl alcohol; (+-)-Linalool; 1,6-Octadien-3-ol, 3,7-dimethyl-; 2,6-Dimethyl-2,7-octadiene-6-ol; 2,6-Dimethylocta-2,7-dien-6-ol; 3,7-Dimethyl-1,6-octadien-3-ol; 3,7-Dimethylocta-1,6-dien-3-ol; Linalool (natural); allo-Ocimenol; beta-Linalool; p-Linalool; [ChemIDplus]",
        "links": [],
        "cross_references": [
          {
            "type": "name_match",
            "text": "linalool",
            "confidence": 1.0,
            "uuid": "80ec5f10-c5b1-4f76-b92a-a5553597fa8f",
            "name": "Linalool",
            "url": "https://haz-map.com/Agents/5839",
            "category": "agents"
          },
          {
            "type": "name_match",
            "text": "octadiene",
            "confidence": 1.0,
            "uuid": "1c5a8b36-be1a-4a27-beee-c85bdd9789c7",
            "name": "Octadiene",
            "url": "https://haz-map.com/Agents/16220",
            "category": "agents"
          },
          {
            "type": "fuzzy_match",
            "text": "7-octadiene",
            "matched_name": "1,7-Octadiene",
            "confidence": 0.8397435897435898,
            "uuid": "d75feb49-a9be-4278-a955-f08e486d0a7b",
            "category": "agents",
            "url": "https://haz-map.com/Agents/19298"
          }
        ]
      },
      "category": {
        "original_name": "Category",
        "value": "Plant Oils and Extracts",
        "links": [],
        "cross_references": []
      },
      "description": {
        "original_name": "Description",
        "value": "Colorless liquid with an odor of bergamot oil or French lavender; [Hawley]",
        "links": [],
        "cross_references": []
      },
      "sourcesuses": {
        "original_name": "Sources/Uses",
        "value": "Main component of linaloe oil; Also found in oils of Ceylon cinnamon, sassafras, orange flower, and bergamot; [Merck Index] Found in citrus peel oils (especially orange); [Hawley] Used in perfumes, fragrances, flavoring agents, household cleaners, and insecticidal pet treatments; (direct application to pet and indoor area); [HSDB]",
        "links": [],
        "cross_references": [
          {
            "type": "name_match",
            "text": "cinnamon",
            "confidence": 1.0,
            "uuid": "98b53a47-9754-495d-8d14-483673064927",
            "name": "Cinnamon",
            "url": "https://haz-map.com/Agents/970",
            "category": "agents"
          }
        ]
      },
      "comments": {
        "original_name": "Comments",
        "value": "A skin and eye irritant; May cause liver injury; [ICSC] Emergency treatment: \"Linalool\"; A skin and eye irritant; [HSDB] Safe to use as a flavoring agent in food; [JECFA] Slight sedative effects after inhalation; Not a sensitizer; Not mutagenic; Causes effects on liver and kidneys in 28-day rat feeding study (72.9% linalool) with a NOAEL of 160 mg/kg/day; [OECD SIDS: Linalool - 2002] Included in list of \"established contact allergens in humans\"; [EC: Scientific Committee on Consumer Safety: Fragrance allergens in cosmetic products (2011)]",
        "links": [],
        "cross_references": [
          {
            "type": "name_match",
            "text": "ht",
            "confidence": 1.0,
            "uuid": "764df367-8d53-4a11-81a2-31ccfe122a8d",
            "name": "HT",
            "url": "https://haz-map.com/Agents/2168",
            "category": "agents"
          },
          {
            "type": "name_match",
            "text": "linalool",
            "confidence": 1.0,
            "uuid": "80ec5f10-c5b1-4f76-b92a-a5553597fa8f",
            "name": "Linalool",
            "url": "https://haz-map.com/Agents/5839",
            "category": "agents"
          }
        ]
      },
      "biomedical_references": {
        "original_name": "Biomedical References",
        "value": "Search PubMed",
        "links": [
          {
            "text": "Search PubMed",
            "url": "https://www.ncbi.nlm.nih.gov/pubmed?term=Linalool%20AND%20human%5Bmh%5D%20AND%20%28Occupational%20Diseases%20%5Bmh%5D%20OR%20Occupational%20Exposure%20%5Bmh%5D%29%20%20AND%20%28tox%5Bsb%5D%29&cmd=search"
          }
        ],
        "cross_references": []
      }
    },
    "exposure_assessment": {
      "vapor_pressure": {
        "original_name": "Vapor Pressure",
        "value": "0.16 mm Hg",
        "links": [],
        "cross_references": []
      },
      "odor_threshold_low": {
        "original_name": "Odor Threshold Low",
        "value": "1 ppm",
        "links": [],
        "cross_references": []
      },
      "explanatory_notes": {
        "original_name": "Explanatory Notes",
        "value": "Olfactory threshold is approximately 1 ppm; [Reference #1]",
        "links": [],
        "cross_references": []
      },
      "nfpa": {
        "original_name": "NFPA",
        "value": "high ambient temp required",
        "links": [],
        "cross_references": []
      }
    },
    "adverse_effects": {
      "skin_sensitizer": {
        "original_name": "Skin Sensitizer",
        "value": "Yes",
        "links": [],
        "cross_references": []
      },
      "neurotoxin": {
        "original_name": "Neurotoxin",
        "value": "Acute solvent syndrome",
        "links": [],
        "cross_references": []
      },
      "hepatotoxin": {
        "original_name": "Hepatotoxin",
        "value": "Hepatoxic (a) from occupational exposure (secondary effect) or (b) in animal studies or in humans after ingestion",
        "links": [],
        "cross_references": []
      }
    },
    "diseases_processes_and_activities_linked_to_this_agent": {
      "diseases": {
        "original_name": "Diseases",
        "value": "Occupational diseases associated with exposure to this agent: Contact dermatitis, allergic Solvents, acute toxic effect",
        "links": [
          {
            "text": "Contact dermatitis, allergic",
            "url": "https://haz-map.com/Diseases/18"
          },
          {
            "text": "Solvents, acute toxic effect",
            "url": "https://haz-map.com/Diseases/326"
          }
        ],
        "cross_references": [
          {
            "type": "url_match",
            "text": "Contact dermatitis, allergic",
            "url": "https://haz-map.com/Diseases/18",
            "confidence": 1.0,
            "uuid": "c9499de0-9aa1-41bf-8753-cd5b28a63e29",
            "name": "Contact dermatitis, allergic",
            "category": "diseases"
          },
          {
            "type": "url_match",
            "text": "Solvents, acute toxic effect",
            "url": "https://haz-map.com/Diseases/326",
            "confidence": 1.0,
            "uuid": "581e90e3-9d0c-45f0-aa6c-3468c28da129",
            "name": "Solvents, acute toxic effect",
            "category": "diseases"
          },
          {
            "type": "name_match",
            "text": "dermatitis",
            "confidence": 1.0,
            "uuid": "fe9c05f2-b19f-4ceb-ac7a-ffb7d7a0cae0",
            "name": "dermatitis",
            "url": "https://haz-map.com/Findings/59",
            "category": "findings"
          }
        ]
      }
    }
  },
  "cross_references": [
    {
      "type": "url_match",
      "text": "Contact dermatitis, allergic",
      "url": "https://haz-map.com/Diseases/18",
      "confidence": 1.0,
      "uuid": "c9499de0-9aa1-41bf-8753-cd5b28a63e29",
      "name": "Contact dermatitis, allergic",
      "category": "diseases"
    },
    {
      "type": "url_match",
      "text": "Solvents, acute toxic effect",
      "url": "https://haz-map.com/Diseases/326",
      "confidence": 1.0,
      "uuid": "581e90e3-9d0c-45f0-aa6c-3468c28da129",
      "name": "Solvents, acute toxic effect",
      "category": "diseases"
    },
    {
      "type": "name_match",
      "text": "dermatitis",
      "confidence": 1.0,
      "uuid": "fe9c05f2-b19f-4ceb-ac7a-ffb7d7a0cae0",
      "name": "dermatitis",
      "url": "https://haz-map.com/Findings/59",
      "category": "findings"
    },
    {
      "type": "name_match",
      "text": "cinnamon",
      "confidence": 1.0,
      "uuid": "98b53a47-9754-495d-8d14-483673064927",
      "name": "Cinnamon",
      "url": "https://haz-map.com/Agents/970",
      "category": "agents"
    },
    {
      "type": "name_match",
      "text": "ht",
      "confidence": 1.0,
      "uuid": "764df367-8d53-4a11-81a2-31ccfe122a8d",
      "name": "HT",
      "url": "https://haz-map.com/Agents/2168",
      "category": "agents"
    },
    {
      "type": "name_match",
      "text": "linalool",
      "confidence": 1.0,
      "uuid": "80ec5f10-c5b1-4f76-b92a-a5553597fa8f",
      "name": "Linalool",
      "url": "https://haz-map.com/Agents/5839",
      "category": "agents"
    },
    {
      "type": "name_match",
      "text": "octadiene",
      "confidence": 1.0,
      "uuid": "1c5a8b36-be1a-4a27-beee-c85bdd9789c7",
      "name": "Octadiene",
      "url": "https://haz-map.com/Agents/16220",
      "category": "agents"
    },
    {
      "type": "fuzzy_match",
      "text": "7-octadiene",
      "matched_name": "1,7-Octadiene",
      "confidence": 0.8397435897435898,
      "uuid": "d75feb49-a9be-4278-a955-f08e486d0a7b",
      "category": "agents",
      "url": "https://haz-map.com/Agents/19298"
    }
  ],
  "all_links": [
    {
      "text": "Search PubMed",
      "url": "https://www.ncbi.nlm.nih.gov/pubmed?term=Linalool%20AND%20human%5Bmh%5D%20AND%20%28Occupational%20Diseases%20%5Bmh%5D%20OR%20Occupational%20Exposure%20%5Bmh%5D%29%20%20AND%20%28tox%5Bsb%5D%29&cmd=search"
    },
    {
      "text": "Contact dermatitis, allergic",
      "url": "https://haz-map.com/Diseases/18"
    },
    {
      "text": "Solvents, acute toxic effect",
      "url": "https://haz-map.com/Diseases/326"
    }
  ]
}