{
  "metadata": {
    "scraped_from": "https://haz-map.com/Agents/4524",
    "entity_name": "Coumachlor",
    "category": "agents",
    "uuid": "80f6745c-d9a9-4c92-bfa3-4c7c47567e46",
    "scraped_at": "2025-07-23T19:41:44.793951"
  },
  "parsed_at": "2025-07-24T00:57:50.812667",
  "title": "Coumachlor",
  "sections": {
    "general": {
      "agent_name": {
        "original_name": "Agent Name",
        "value": "Coumachlor",
        "links": [],
        "cross_references": [
          {
            "type": "name_match",
            "text": "coumachlor",
            "confidence": 1.0,
            "uuid": "80f6745c-d9a9-4c92-bfa3-4c7c47567e46",
            "name": "Coumachlor",
            "url": "https://haz-map.com/Agents/4524",
            "category": "agents"
          }
        ]
      },
      "cas_number": {
        "original_name": "CAS Number",
        "value": "81-82-3",
        "links": [],
        "cross_references": []
      },
      "formula": {
        "original_name": "Formula",
        "value": "C19-H15-Cl-O4",
        "links": [],
        "cross_references": []
      },
      "major_category": {
        "original_name": "Major Category",
        "value": "Pesticides",
        "links": [],
        "cross_references": []
      },
      "synonyms": {
        "original_name": "Synonyms",
        "value": "3-((alpha-Acetonyl)-4-chlorbenzyl)-4-hydroxycumarin [IUPAC]; 3-(1-(4-Chloorfenyl)-3-oxo-butyl)-4-hydroxy-cumarine [Dutch]; 3-(1-(4-Chlor-phenyl)-3-oxo-butyl)-4-hydroxy-cumarin [German]; 3-(1-(4-Chlorophenyl)-3-oxo-butyl)-4-hydroxy-coumarine [French]; 3-(1-(4-Chlorophenyl)-3-oxobutyl)-4-hydroxy-2H-1-benzopyran-2-one; 3-(1-(4-Chlorophenyl)-3-oxobutyl)-4-hydroxy-2H-1-benzopyran-2-one (9CI); 3-(1-(4-Chlorophenyl)-3-oxobutyl)-4-hydroxycoumarin; 3-(1-(4-Cloro-fenil)-3-oxo-butil)-4-idrossicumarina [Italian]; 3-(1-Acetyl-2-(p-chlorophenyl)ethyl)-4-hydroxycoumarin; 3-(alpha-(p-Chlorphenyl)-beta-acetylaethyl)-4-hydroxycumarin [German]; 3-(alpha-Acetonyl-4-chlorobenzyl)-4-hydroxycoumarin; 3-(alpha-Acetonyl-p-chlorobenzyl)-4-hydroxycoumarin; 3-(alpha-p-Chlorophenyl-beta-acetylethyl)-4-hydroxycoumarin; 4-Hydroxy-3-(1-(4-chlorophenyl)-3-oxobutyl)-2H-1-benzopyran-2-one; Coumachlore [ISO-French]; Cumachloor [Dutch]; Cumachlor [German]; Experimental Rodenticide 332; G-23133; Geigy Rodenticide Exp. 332; Kumachlor [Czech]; Ratilan; Tomorin; [ChemIDplus] UN3027",
        "links": [],
        "cross_references": [
          {
            "type": "name_match",
            "text": "tali",
            "confidence": 1.0,
            "uuid": "8c3a0f99-2143-4122-b539-ec5cc49596b0",
            "name": "Tali",
            "url": "https://haz-map.com/Agents/1128",
            "category": "agents"
          },
          {
            "type": "name_match",
            "text": "coumachlor",
            "confidence": 1.0,
            "uuid": "80f6745c-d9a9-4c92-bfa3-4c7c47567e46",
            "name": "Coumachlor",
            "url": "https://haz-map.com/Agents/4524",
            "category": "agents"
          },
          {
            "type": "name_match",
            "text": "coumarin",
            "confidence": 1.0,
            "uuid": "275bf055-292c-48e9-8519-bb571bbad6e1",
            "name": "Coumarin",
            "url": "https://haz-map.com/Agents/7832",
            "category": "agents"
          },
          {
            "type": "name_match",
            "text": "morin",
            "confidence": 1.0,
            "uuid": "fce4adcc-4265-4f5f-8f8c-903d2c08f942",
            "name": "Morin",
            "url": "https://haz-map.com/Agents/9933",
            "category": "agents"
          },
          {
            "type": "name_match",
            "text": "4-hydroxycoumarin",
            "confidence": 1.0,
            "uuid": "8a810483-0137-4ab6-b2d3-9a7727ef3b6c",
            "name": "4-Hydroxycoumarin",
            "url": "https://haz-map.com/Agents/11634",
            "category": "agents"
          }
        ]
      },
      "category": {
        "original_name": "Category",
        "value": "Rodenticides, Anticoagulant",
        "links": [],
        "cross_references": []
      },
      "description": {
        "original_name": "Description",
        "value": "Colorless solid; [HSDB]",
        "links": [],
        "cross_references": []
      },
      "sourcesuses": {
        "original_name": "Sources/Uses",
        "value": "Used as anticoagulant rodenticide (structural analog of warfarin); [Merck Index]",
        "links": [],
        "cross_references": [
          {
            "type": "name_match",
            "text": "warfarin",
            "confidence": 1.0,
            "uuid": "53672f20-d5e2-4d2b-a15a-3c933026cc64",
            "name": "Warfarin",
            "url": "https://haz-map.com/Agents/673",
            "category": "agents"
          }
        ]
      },
      "comments": {
        "original_name": "Comments",
        "value": "A vitamin K antagonist; In human poisoning cases after ingestion, causes disruption of clotting factors (lower doses) and hemorrhages (higher doses); [HSDB] First generation anticoagulant rodenticide; Discontinued by Ciba-Geigy in 1984; [INCHEM] See \"Warfarin.\"",
        "links": [],
        "cross_references": [
          {
            "type": "name_match",
            "text": "warfarin",
            "confidence": 1.0,
            "uuid": "53672f20-d5e2-4d2b-a15a-3c933026cc64",
            "name": "Warfarin",
            "url": "https://haz-map.com/Agents/673",
            "category": "agents"
          }
        ]
      },
      "restricted": {
        "original_name": "Restricted",
        "value": "No longer registered as a pesticide for use in the US; [HSDB]",
        "links": [],
        "cross_references": []
      },
      "biomedical_references": {
        "original_name": "Biomedical References",
        "value": "Search PubMed",
        "links": [
          {
            "text": "Search PubMed",
            "url": "https://www.ncbi.nlm.nih.gov/pubmed?term=Coumachlor%20AND%20human%5Bmh%5D%20AND%20%28Occupational%20Diseases%20%5Bmh%5D%20OR%20Occupational%20Exposure%20%5Bmh%5D%29%20%20AND%20%28tox%5Bsb%5D%29&cmd=search"
          }
        ],
        "cross_references": []
      }
    },
    "exposure_assessment": {
      "vapor_pressure": {
        "original_name": "Vapor Pressure",
        "value": "7.17E-13 mm Hg",
        "links": [],
        "cross_references": []
      },
      "explanatory_notes": {
        "original_name": "Explanatory Notes",
        "value": "The Guide in the Emergency Response Guidebook is for \"Coumarin derivative pesticide, solid, toxic.\"",
        "links": [],
        "cross_references": [
          {
            "type": "name_match",
            "text": "coumarin",
            "confidence": 1.0,
            "uuid": "275bf055-292c-48e9-8519-bb571bbad6e1",
            "name": "Coumarin",
            "url": "https://haz-map.com/Agents/7832",
            "category": "agents"
          }
        ]
      }
    },
    "diseases_processes_and_activities_linked_to_this_agent": {
      "processes": {
        "original_name": "Processes",
        "value": "Industrial Processes with risk of exposure: Farming (Pesticides)",
        "links": [
          {
            "text": "Farming (Pesticides)",
            "url": "https://haz-map.com/Processes/218"
          }
        ],
        "cross_references": [
          {
            "type": "url_match",
            "text": "Farming (Pesticides)",
            "url": "https://haz-map.com/Processes/218",
            "confidence": 1.0,
            "uuid": "cf1e5815-c9bb-4917-82a5-391848170b7e",
            "name": "Farming (Pesticides)",
            "category": "processes"
          }
        ]
      }
    }
  },
  "cross_references": [
    {
      "type": "url_match",
      "text": "Farming (Pesticides)",
      "url": "https://haz-map.com/Processes/218",
      "confidence": 1.0,
      "uuid": "cf1e5815-c9bb-4917-82a5-391848170b7e",
      "name": "Farming (Pesticides)",
      "category": "processes"
    },
    {
      "type": "name_match",
      "text": "warfarin",
      "confidence": 1.0,
      "uuid": "53672f20-d5e2-4d2b-a15a-3c933026cc64",
      "name": "Warfarin",
      "url": "https://haz-map.com/Agents/673",
      "category": "agents"
    },
    {
      "type": "name_match",
      "text": "tali",
      "confidence": 1.0,
      "uuid": "8c3a0f99-2143-4122-b539-ec5cc49596b0",
      "name": "Tali",
      "url": "https://haz-map.com/Agents/1128",
      "category": "agents"
    },
    {
      "type": "name_match",
      "text": "coumachlor",
      "confidence": 1.0,
      "uuid": "80f6745c-d9a9-4c92-bfa3-4c7c47567e46",
      "name": "Coumachlor",
      "url": "https://haz-map.com/Agents/4524",
      "category": "agents"
    },
    {
      "type": "name_match",
      "text": "coumarin",
      "confidence": 1.0,
      "uuid": "275bf055-292c-48e9-8519-bb571bbad6e1",
      "name": "Coumarin",
      "url": "https://haz-map.com/Agents/7832",
      "category": "agents"
    },
    {
      "type": "name_match",
      "text": "morin",
      "confidence": 1.0,
      "uuid": "fce4adcc-4265-4f5f-8f8c-903d2c08f942",
      "name": "Morin",
      "url": "https://haz-map.com/Agents/9933",
      "category": "agents"
    },
    {
      "type": "name_match",
      "text": "4-hydroxycoumarin",
      "confidence": 1.0,
      "uuid": "8a810483-0137-4ab6-b2d3-9a7727ef3b6c",
      "name": "4-Hydroxycoumarin",
      "url": "https://haz-map.com/Agents/11634",
      "category": "agents"
    }
  ],
  "all_links": [
    {
      "text": "Search PubMed",
      "url": "https://www.ncbi.nlm.nih.gov/pubmed?term=Coumachlor%20AND%20human%5Bmh%5D%20AND%20%28Occupational%20Diseases%20%5Bmh%5D%20OR%20Occupational%20Exposure%20%5Bmh%5D%29%20%20AND%20%28tox%5Bsb%5D%29&cmd=search"
    },
    {
      "text": "Farming (Pesticides)",
      "url": "https://haz-map.com/Processes/218"
    }
  ]
}