{
  "metadata": {
    "scraped_from": "https://haz-map.com/Agents/11219",
    "entity_name": "4-Phenylazo-1-naphthylamine",
    "category": "agents",
    "uuid": "8152966d-deb2-437b-9131-5cadc284fa3e",
    "scraped_at": "2025-07-23T20:56:50.807819"
  },
  "parsed_at": "2025-07-24T00:56:28.538591",
  "title": "4-Phenylazo-1-naphthylamine",
  "sections": {
    "general": {
      "agent_name": {
        "original_name": "Agent Name",
        "value": "4-Phenylazo-1-naphthylamine",
        "links": [],
        "cross_references": [
          {
            "type": "name_match",
            "text": "ht",
            "confidence": 1.0,
            "uuid": "764df367-8d53-4a11-81a2-31ccfe122a8d",
            "name": "HT",
            "url": "https://haz-map.com/Agents/2168",
            "category": "agents"
          },
          {
            "type": "name_match",
            "text": "4-phenylazo-1-naphthylamine",
            "confidence": 1.0,
            "uuid": "8152966d-deb2-437b-9131-5cadc284fa3e",
            "name": "4-Phenylazo-1-naphthylamine",
            "url": "https://haz-map.com/Agents/11219",
            "category": "agents"
          }
        ]
      },
      "cas_number": {
        "original_name": "CAS Number",
        "value": "131-22-6",
        "links": [],
        "cross_references": []
      },
      "formula": {
        "original_name": "Formula",
        "value": "C16-H13-N3",
        "links": [],
        "cross_references": []
      },
      "major_category": {
        "original_name": "Major Category",
        "value": "Dyes",
        "links": [],
        "cross_references": []
      },
      "synonyms": {
        "original_name": "Synonyms",
        "value": "1-Naphthylamine, 4-(phenylazo)-; 4-Benzene-azo-alpha-naphthylamine; 4-Benzeneazo-1-naphthylamine; 4-Phenylazo-1-naphthylamine; C.I. 11350; C.I. Solvent Yellow 4; Naphthalene, 1-phenylazo-4-amino-; Nubian Yellow TB; Phenylazo alpha-naphthylamine; Phenylazo-alpha-naphthylamine; alpha-Naphthyl red; 1-Naphthalenamine, 4-(2-phenyldiazenyl)-; [ChemIDplus]",
        "links": [],
        "cross_references": [
          {
            "type": "name_match",
            "text": "benzene",
            "confidence": 1.0,
            "uuid": "b05124de-5f34-4c14-8f04-ccb20c3780d9",
            "name": "Benzene",
            "url": "https://haz-map.com/Agents/5",
            "category": "agents"
          },
          {
            "type": "name_match",
            "text": "naphthalene",
            "confidence": 1.0,
            "uuid": "433cf489-5423-4297-a38e-6e755a9d458e",
            "name": "Naphthalene",
            "url": "https://haz-map.com/Agents/46",
            "category": "agents"
          },
          {
            "type": "name_match",
            "text": "alpha-naphthylamine",
            "confidence": 1.0,
            "uuid": "eaccf324-3996-4d76-9164-25c57c235609",
            "name": "alpha-Naphthylamine",
            "url": "https://haz-map.com/Agents/275",
            "category": "agents"
          },
          {
            "type": "name_match",
            "text": "ht",
            "confidence": 1.0,
            "uuid": "764df367-8d53-4a11-81a2-31ccfe122a8d",
            "name": "HT",
            "url": "https://haz-map.com/Agents/2168",
            "category": "agents"
          },
          {
            "type": "name_match",
            "text": "4-phenylazo-1-naphthylamine",
            "confidence": 1.0,
            "uuid": "8152966d-deb2-437b-9131-5cadc284fa3e",
            "name": "4-Phenylazo-1-naphthylamine",
            "url": "https://haz-map.com/Agents/11219",
            "category": "agents"
          }
        ]
      },
      "category": {
        "original_name": "Category",
        "value": "Azo Dyes",
        "links": [],
        "cross_references": []
      },
      "description": {
        "original_name": "Description",
        "value": "Deep brown powder; [Sigma-Aldrich MSDS]",
        "links": [],
        "cross_references": []
      },
      "comments": {
        "original_name": "Comments",
        "value": "An irritant; [Sigma-Aldrich MSDS] See \"alpha-Naphthylamine.\"",
        "links": [],
        "cross_references": [
          {
            "type": "name_match",
            "text": "alpha-naphthylamine",
            "confidence": 1.0,
            "uuid": "eaccf324-3996-4d76-9164-25c57c235609",
            "name": "alpha-Naphthylamine",
            "url": "https://haz-map.com/Agents/275",
            "category": "agents"
          },
          {
            "type": "name_match",
            "text": "ht",
            "confidence": 1.0,
            "uuid": "764df367-8d53-4a11-81a2-31ccfe122a8d",
            "name": "HT",
            "url": "https://haz-map.com/Agents/2168",
            "category": "agents"
          }
        ]
      },
      "biomedical_references": {
        "original_name": "Biomedical References",
        "value": "Search PubMed",
        "links": [
          {
            "text": "Search PubMed",
            "url": "https://www.ncbi.nlm.nih.gov/pubmed?term=4-Phenylazo-1-naphthylamine%20AND%20human%5Bmh%5D%20AND%20%28Occupational%20Diseases%20%5Bmh%5D%20OR%20Occupational%20Exposure%20%5Bmh%5D%29%20%20AND%20%28tox%5Bsb%5D%29&cmd=search"
          }
        ],
        "cross_references": []
      }
    },
    "exposure_assessment": {
      "vapor_pressure": {
        "original_name": "Vapor Pressure",
        "value": "2.06E-07 mm Hg",
        "links": [],
        "cross_references": []
      }
    },
    "diseases_processes_and_activities_linked_to_this_agent": {
      "other_information": {
        "original_name": "Other Information",
        "value": "No other related information on this agent was found.",
        "links": [],
        "cross_references": []
      }
    }
  },
  "cross_references": [
    {
      "type": "name_match",
      "text": "benzene",
      "confidence": 1.0,
      "uuid": "b05124de-5f34-4c14-8f04-ccb20c3780d9",
      "name": "Benzene",
      "url": "https://haz-map.com/Agents/5",
      "category": "agents"
    },
    {
      "type": "name_match",
      "text": "naphthalene",
      "confidence": 1.0,
      "uuid": "433cf489-5423-4297-a38e-6e755a9d458e",
      "name": "Naphthalene",
      "url": "https://haz-map.com/Agents/46",
      "category": "agents"
    },
    {
      "type": "name_match",
      "text": "alpha-naphthylamine",
      "confidence": 1.0,
      "uuid": "eaccf324-3996-4d76-9164-25c57c235609",
      "name": "alpha-Naphthylamine",
      "url": "https://haz-map.com/Agents/275",
      "category": "agents"
    },
    {
      "type": "name_match",
      "text": "ht",
      "confidence": 1.0,
      "uuid": "764df367-8d53-4a11-81a2-31ccfe122a8d",
      "name": "HT",
      "url": "https://haz-map.com/Agents/2168",
      "category": "agents"
    },
    {
      "type": "name_match",
      "text": "4-phenylazo-1-naphthylamine",
      "confidence": 1.0,
      "uuid": "8152966d-deb2-437b-9131-5cadc284fa3e",
      "name": "4-Phenylazo-1-naphthylamine",
      "url": "https://haz-map.com/Agents/11219",
      "category": "agents"
    }
  ],
  "all_links": [
    {
      "text": "Search PubMed",
      "url": "https://www.ncbi.nlm.nih.gov/pubmed?term=4-Phenylazo-1-naphthylamine%20AND%20human%5Bmh%5D%20AND%20%28Occupational%20Diseases%20%5Bmh%5D%20OR%20Occupational%20Exposure%20%5Bmh%5D%29%20%20AND%20%28tox%5Bsb%5D%29&cmd=search"
    }
  ]
}