{
  "metadata": {
    "scraped_from": "https://haz-map.com/Agents/6672",
    "entity_name": "Chlorphonium chloride",
    "category": "agents",
    "uuid": "81b6d51a-eece-48cd-8a73-f7bcb13a49df",
    "scraped_at": "2025-07-23T20:04:17.844876"
  },
  "parsed_at": "2025-07-24T00:54:19.186526",
  "title": "Chlorphonium chloride",
  "sections": {
    "general": {
      "agent_name": {
        "original_name": "Agent Name",
        "value": "Chlorphonium chloride",
        "links": [],
        "cross_references": [
          {
            "type": "name_match",
            "text": "chlorphonium chloride",
            "confidence": 1.0,
            "uuid": "81b6d51a-eece-48cd-8a73-f7bcb13a49df",
            "name": "Chlorphonium chloride",
            "url": "https://haz-map.com/Agents/6672",
            "category": "agents"
          }
        ]
      },
      "alternative_name": {
        "original_name": "Alternative Name",
        "value": "Phosfon",
        "links": [],
        "cross_references": []
      },
      "cas_number": {
        "original_name": "CAS Number",
        "value": "115-78-6",
        "links": [],
        "cross_references": []
      },
      "formula": {
        "original_name": "Formula",
        "value": "C19-H32-Cl2-P.Cl",
        "links": [],
        "cross_references": []
      },
      "major_category": {
        "original_name": "Major Category",
        "value": "Other Classes",
        "links": [],
        "cross_references": []
      },
      "synonyms": {
        "original_name": "Synonyms",
        "value": "2,4-Dichlorobenzyltributylphosphonium chloride; CBBP; Chlorfonium [ISO-French]; Chlorphonium; Fosfon D; Phosfleur; Phosfon D; Phosphon; Phosphon D; Phosphone D; Phosphonium, tributyl((2,4-dichlorophenyl)methyl)-, chloride; Phosphonium, tributyl(2,4-dichlorobenzyl)-, chloride; Tributyl (2,4-dichlorobenzyl) phosphonium chloride; Tributyl((2,4-dichlorophenyl)methyl)phosphonium chloride; Tributyl(2,4-dichlorobenzyl)phosphonium chloride; [ChemIDplus]",
        "links": [],
        "cross_references": [
          {
            "type": "name_match",
            "text": "2,4-d",
            "confidence": 1.0,
            "uuid": "bed35f54-2d93-4ffd-a3ee-723ab365faf1",
            "name": "2,4-D",
            "url": "https://haz-map.com/Agents/389",
            "category": "agents"
          },
          {
            "type": "name_match",
            "text": "dichlorophen",
            "confidence": 1.0,
            "uuid": "43441a9d-e8c4-49f1-8bbf-52d24da33df3",
            "name": "Dichlorophen",
            "url": "https://haz-map.com/Agents/1159",
            "category": "agents"
          },
          {
            "type": "name_match",
            "text": "benzyltributylphosphonium chloride",
            "confidence": 1.0,
            "uuid": "8684a60e-8bfd-46d8-8d05-3656efab1a24",
            "name": "Benzyltributylphosphonium chloride",
            "url": "https://haz-map.com/Agents/20309",
            "category": "agents"
          }
        ]
      },
      "category": {
        "original_name": "Category",
        "value": "Phosphorus Compounds",
        "links": [],
        "cross_references": []
      },
      "description": {
        "original_name": "Description",
        "value": "Colorless or white solid; [HSDB]",
        "links": [],
        "cross_references": []
      },
      "sourcesuses": {
        "original_name": "Sources/Uses",
        "value": "Used to retard growth in ornamental plants; [Hawley]",
        "links": [],
        "cross_references": []
      },
      "comments": {
        "original_name": "Comments",
        "value": "A skin and eye irritant; Emergency treatment: Irritants; [HSDB] Irritating to skin and eyes; [eChemPortal: ESIS]",
        "links": [],
        "cross_references": [
          {
            "type": "name_match",
            "text": "irritants",
            "confidence": 1.0,
            "uuid": "9d2b9572-8c3e-48a4-ac68-63d6e2eb6f49",
            "name": "Irritants",
            "url": "https://haz-map.com/Agents/2063",
            "category": "agents"
          }
        ]
      },
      "biomedical_references": {
        "original_name": "Biomedical References",
        "value": "Search PubMed",
        "links": [
          {
            "text": "Search PubMed",
            "url": "https://www.ncbi.nlm.nih.gov/pubmed?term=Chlorphonium+chloride%20AND%20human%5Bmh%5D%20AND%20%28Occupational%20Diseases%20%5Bmh%5D%20OR%20Occupational%20Exposure%20%5Bmh%5D%29%20%20AND%20%28tox%5Bsb%5D%29&cmd=search"
          }
        ],
        "cross_references": []
      }
    },
    "exposure_assessment": {
      "vapor_pressure": {
        "original_name": "Vapor Pressure",
        "value": "7E-07 mm Hg",
        "links": [],
        "cross_references": []
      }
    },
    "diseases_processes_and_activities_linked_to_this_agent": {
      "other_information": {
        "original_name": "Other Information",
        "value": "No other related information on this agent was found.",
        "links": [],
        "cross_references": []
      }
    }
  },
  "cross_references": [
    {
      "type": "name_match",
      "text": "2,4-d",
      "confidence": 1.0,
      "uuid": "bed35f54-2d93-4ffd-a3ee-723ab365faf1",
      "name": "2,4-D",
      "url": "https://haz-map.com/Agents/389",
      "category": "agents"
    },
    {
      "type": "name_match",
      "text": "dichlorophen",
      "confidence": 1.0,
      "uuid": "43441a9d-e8c4-49f1-8bbf-52d24da33df3",
      "name": "Dichlorophen",
      "url": "https://haz-map.com/Agents/1159",
      "category": "agents"
    },
    {
      "type": "name_match",
      "text": "irritants",
      "confidence": 1.0,
      "uuid": "9d2b9572-8c3e-48a4-ac68-63d6e2eb6f49",
      "name": "Irritants",
      "url": "https://haz-map.com/Agents/2063",
      "category": "agents"
    },
    {
      "type": "name_match",
      "text": "chlorphonium chloride",
      "confidence": 1.0,
      "uuid": "81b6d51a-eece-48cd-8a73-f7bcb13a49df",
      "name": "Chlorphonium chloride",
      "url": "https://haz-map.com/Agents/6672",
      "category": "agents"
    },
    {
      "type": "name_match",
      "text": "benzyltributylphosphonium chloride",
      "confidence": 1.0,
      "uuid": "8684a60e-8bfd-46d8-8d05-3656efab1a24",
      "name": "Benzyltributylphosphonium chloride",
      "url": "https://haz-map.com/Agents/20309",
      "category": "agents"
    }
  ],
  "all_links": [
    {
      "text": "Search PubMed",
      "url": "https://www.ncbi.nlm.nih.gov/pubmed?term=Chlorphonium+chloride%20AND%20human%5Bmh%5D%20AND%20%28Occupational%20Diseases%20%5Bmh%5D%20OR%20Occupational%20Exposure%20%5Bmh%5D%29%20%20AND%20%28tox%5Bsb%5D%29&cmd=search"
    }
  ]
}