{
  "metadata": {
    "scraped_from": "https://haz-map.com/Agents/14439",
    "entity_name": "Glycine",
    "category": "agents",
    "uuid": "820f614c-594c-4165-b9ef-dbbd5cd636a8",
    "scraped_at": "2025-07-23T21:22:52.087164"
  },
  "parsed_at": "2025-07-24T01:07:07.900524",
  "title": "Glycine",
  "sections": {
    "general": {
      "agent_name": {
        "original_name": "Agent Name",
        "value": "Glycine",
        "links": [],
        "cross_references": [
          {
            "type": "name_match",
            "text": "glycine",
            "confidence": 1.0,
            "uuid": "820f614c-594c-4165-b9ef-dbbd5cd636a8",
            "name": "Glycine",
            "url": "https://haz-map.com/Agents/14439",
            "category": "agents"
          }
        ]
      },
      "cas_number": {
        "original_name": "CAS Number",
        "value": "56-40-6",
        "links": [],
        "cross_references": []
      },
      "formula": {
        "original_name": "Formula",
        "value": "C2-H5-N-O2",
        "links": [],
        "cross_references": []
      },
      "major_category": {
        "original_name": "Major Category",
        "value": "Biological Agents",
        "links": [],
        "cross_references": []
      },
      "synonyms": {
        "original_name": "Synonyms",
        "value": "2-Aminoacetic acid; Acetic acid, amino-; Acide aminoacetique [INN-French]; Acido aminoacetico [INN-Spanish]; Acidum aminoaceticum [INN-Latin]; Aciport; Aminoacetic acid; Aminoacetic acid 1.5% in plastic container; Aminoazijnzuur; Aminoethanoic acid; Amitone; GLY (IUPAC abbrev); Glicina [INN-Spanish]; Glicoamin; Glycin; Glycine 1.5% in plastic container; Glycine, non-medical; Glycinum [INN-Latin]; Glycocoll; Glycolixir; Glycosthene; Hampshire glycine; L-Glycine; Leimzucker; Padil; Sucre de gelatine; [ChemIDplus] G; Gyn-Hydralin; [Merck Index]",
        "links": [],
        "cross_references": [
          {
            "type": "name_match",
            "text": "acetic acid",
            "confidence": 1.0,
            "uuid": "0905c6e4-df84-4895-a92d-658819239bbd",
            "name": "Acetic acid",
            "url": "https://haz-map.com/Agents/207",
            "category": "agents"
          },
          {
            "type": "name_match",
            "text": "amiton",
            "confidence": 1.0,
            "uuid": "5813ac75-cf18-4ffb-94cd-57fbfe04228c",
            "name": "Amiton",
            "url": "https://haz-map.com/Agents/3636",
            "category": "agents"
          },
          {
            "type": "name_match",
            "text": "gelatin",
            "confidence": 1.0,
            "uuid": "1d71ef32-f659-485c-9265-d4bf0fdd3e59",
            "name": "Gelatin",
            "url": "https://haz-map.com/Agents/5410",
            "category": "agents"
          },
          {
            "type": "name_match",
            "text": "glycine",
            "confidence": 1.0,
            "uuid": "820f614c-594c-4165-b9ef-dbbd5cd636a8",
            "name": "Glycine",
            "url": "https://haz-map.com/Agents/14439",
            "category": "agents"
          }
        ]
      },
      "category": {
        "original_name": "Category",
        "value": "Amino Acids and Derivatives",
        "links": [],
        "cross_references": []
      },
      "description": {
        "original_name": "Description",
        "value": "White solid; [CAMEO] White crystals; [Sigma-Aldrich MSDS]",
        "links": [],
        "cross_references": []
      },
      "sourcesuses": {
        "original_name": "Sources/Uses",
        "value": "A non-essential amino acid that is an inhibitory neurotransmitter; Used as a buffer and reagent in organic chemistry; [Merck Index] Used in biochemical research, as a chicken feed additive, to retard rancidity in animal and vegetable oils, as a medication, and nutrient; [HSDB] Used as a flavoring agent and nutritional supplement; [FDA]",
        "links": [],
        "cross_references": [
          {
            "type": "name_match",
            "text": "mica",
            "confidence": 1.0,
            "uuid": "433f26f1-c399-4596-b179-ce3843cfd465",
            "name": "Mica",
            "url": "https://haz-map.com/Agents/621",
            "category": "agents"
          },
          {
            "type": "name_match",
            "text": "vegetable oil",
            "confidence": 1.0,
            "uuid": "c24688f8-f00d-4b95-97a7-7b5569d8e87c",
            "name": "Vegetable oil",
            "url": "https://haz-map.com/Agents/18627",
            "category": "agents"
          }
        ]
      },
      "comments": {
        "original_name": "Comments",
        "value": "Human ingestion of 800 mg/kg causes changes in surface EEG, changes in psychological tests, and nausea or vomiting; [RTECS] Safe when used as a flavoring agent in food; [JECFA] May cause irritation; [Sigma-Aldrich MSDS]",
        "links": [],
        "cross_references": []
      },
      "biomedical_references": {
        "original_name": "Biomedical References",
        "value": "Search PubMed",
        "links": [
          {
            "text": "Search PubMed",
            "url": "https://www.ncbi.nlm.nih.gov/pubmed?term=Glycine%20AND%20human%5Bmh%5D%20AND%20%28Occupational%20Diseases%20%5Bmh%5D%20OR%20Occupational%20Exposure%20%5Bmh%5D%29%20%20AND%20%28tox%5Bsb%5D%29&cmd=search"
          }
        ],
        "cross_references": []
      }
    },
    "exposure_assessment": {
      "vapor_pressure": {
        "original_name": "Vapor Pressure",
        "value": "1.28E-07 mm Hg",
        "links": [],
        "cross_references": []
      }
    },
    "diseases_processes_and_activities_linked_to_this_agent": {
      "processes": {
        "original_name": "Processes",
        "value": "Industrial Processes with risk of exposure: Farming (Feed Additives)",
        "links": [
          {
            "text": "Farming (Feed Additives)",
            "url": "https://haz-map.com/Processes/262"
          }
        ],
        "cross_references": []
      }
    }
  },
  "cross_references": [
    {
      "type": "name_match",
      "text": "acetic acid",
      "confidence": 1.0,
      "uuid": "0905c6e4-df84-4895-a92d-658819239bbd",
      "name": "Acetic acid",
      "url": "https://haz-map.com/Agents/207",
      "category": "agents"
    },
    {
      "type": "name_match",
      "text": "mica",
      "confidence": 1.0,
      "uuid": "433f26f1-c399-4596-b179-ce3843cfd465",
      "name": "Mica",
      "url": "https://haz-map.com/Agents/621",
      "category": "agents"
    },
    {
      "type": "name_match",
      "text": "amiton",
      "confidence": 1.0,
      "uuid": "5813ac75-cf18-4ffb-94cd-57fbfe04228c",
      "name": "Amiton",
      "url": "https://haz-map.com/Agents/3636",
      "category": "agents"
    },
    {
      "type": "name_match",
      "text": "gelatin",
      "confidence": 1.0,
      "uuid": "1d71ef32-f659-485c-9265-d4bf0fdd3e59",
      "name": "Gelatin",
      "url": "https://haz-map.com/Agents/5410",
      "category": "agents"
    },
    {
      "type": "name_match",
      "text": "glycine",
      "confidence": 1.0,
      "uuid": "820f614c-594c-4165-b9ef-dbbd5cd636a8",
      "name": "Glycine",
      "url": "https://haz-map.com/Agents/14439",
      "category": "agents"
    },
    {
      "type": "name_match",
      "text": "vegetable oil",
      "confidence": 1.0,
      "uuid": "c24688f8-f00d-4b95-97a7-7b5569d8e87c",
      "name": "Vegetable oil",
      "url": "https://haz-map.com/Agents/18627",
      "category": "agents"
    }
  ],
  "all_links": [
    {
      "text": "Search PubMed",
      "url": "https://www.ncbi.nlm.nih.gov/pubmed?term=Glycine%20AND%20human%5Bmh%5D%20AND%20%28Occupational%20Diseases%20%5Bmh%5D%20OR%20Occupational%20Exposure%20%5Bmh%5D%29%20%20AND%20%28tox%5Bsb%5D%29&cmd=search"
    },
    {
      "text": "Farming (Feed Additives)",
      "url": "https://haz-map.com/Processes/262"
    }
  ]
}