{
  "metadata": {
    "scraped_from": "https://haz-map.com/Agents/2717",
    "entity_name": "1,2,3,4,7,7-Hexachloronorbornadiene",
    "category": "agents",
    "uuid": "8286c07c-b833-4fe4-bd57-f2d4c60dc67d",
    "scraped_at": "2025-07-23T19:17:59.548868"
  },
  "parsed_at": "2025-07-24T01:09:20.080061",
  "title": "1,2,3,4,7,7-Hexachloronorbornadiene",
  "sections": {
    "general": {
      "agent_name": {
        "original_name": "Agent Name",
        "value": "1,2,3,4,7,7-Hexachloronorbornadiene",
        "links": [],
        "cross_references": [
          {
            "type": "name_match",
            "text": "1,2,3,4,7,7-hexachloronorbornadiene",
            "confidence": 1.0,
            "uuid": "8286c07c-b833-4fe4-bd57-f2d4c60dc67d",
            "name": "1,2,3,4,7,7-Hexachloronorbornadiene",
            "url": "https://haz-map.com/Agents/2717",
            "category": "agents"
          }
        ]
      },
      "cas_number": {
        "original_name": "CAS Number",
        "value": "3389-71-7",
        "links": [],
        "cross_references": []
      },
      "formula": {
        "original_name": "Formula",
        "value": "C7-H2-Cl6",
        "links": [],
        "cross_references": []
      },
      "major_category": {
        "original_name": "Major Category",
        "value": "Other Classes",
        "links": [],
        "cross_references": []
      },
      "synonyms": {
        "original_name": "Synonyms",
        "value": "1,2,3,4,7,7-Hexachloro-2,5-norbornadiene; 1,2,3,4,7,7-Hexachlorobicyclo(2.2.1)hepta-2,5-diene; 2,5-Norbornadiene, 1,2,3,4,7,7-hexachloro-; Bicyclo(2.2.1)hepta-2,5-diene, 1,2,3,4,7,7-hexachloro-; Hexachloronorbornadiene; [ChemIDplus]",
        "links": [],
        "cross_references": [
          {
            "type": "name_match",
            "text": "2,5-norbornadiene",
            "confidence": 1.0,
            "uuid": "359afa27-0064-4330-8efc-664bdd1fa0a3",
            "name": "2,5-Norbornadiene",
            "url": "https://haz-map.com/Agents/20327",
            "category": "agents"
          }
        ]
      },
      "category": {
        "original_name": "Category",
        "value": "Halogenated Cyclic Hydrocarbons",
        "links": [],
        "cross_references": [
          {
            "type": "name_match",
            "text": "carbon",
            "confidence": 1.0,
            "uuid": "b53f8815-ee80-40ef-b4aa-3b000e17dab5",
            "name": "Carbon",
            "url": "https://haz-map.com/Agents/1891",
            "category": "agents"
          },
          {
            "type": "fuzzy_match",
            "text": "hydrocarbons",
            "matched_name": "Hydrocarbons, C>3",
            "confidence": 0.7100840336134454,
            "uuid": "8eaa37ac-3931-44e4-9242-2734127fd661",
            "category": "agents",
            "url": "https://haz-map.com/Agents/14795"
          }
        ]
      },
      "sourcesuses": {
        "original_name": "Sources/Uses",
        "value": "Used strictly as an intermediate for Endrin (pesticide) production; Velsicol, the only US manufacturer of intermediate and Endrin, voluntarily cancelled registrations for Endrin in 1985 (very likely no longer produced in the US); [EPA]",
        "links": [],
        "cross_references": [
          {
            "type": "name_match",
            "text": "endrin",
            "confidence": 1.0,
            "uuid": "da3ecea9-9d16-4fee-80bf-aaf1a0da3963",
            "name": "Endrin",
            "url": "https://haz-map.com/Agents/233",
            "category": "agents"
          }
        ]
      },
      "comments": {
        "original_name": "Comments",
        "value": "An irritant; [MSDSonline] See \"Endrin.\"",
        "links": [],
        "cross_references": [
          {
            "type": "name_match",
            "text": "endrin",
            "confidence": 1.0,
            "uuid": "da3ecea9-9d16-4fee-80bf-aaf1a0da3963",
            "name": "Endrin",
            "url": "https://haz-map.com/Agents/233",
            "category": "agents"
          }
        ]
      },
      "biomedical_references": {
        "original_name": "Biomedical References",
        "value": "Search PubMed",
        "links": [
          {
            "text": "Search PubMed",
            "url": "https://www.ncbi.nlm.nih.gov/pubmed?term=1%2c2%2c3%2c4%2c7%2c7-Hexachloronorbornadiene%20AND%20human%5Bmh%5D%20AND%20%28Occupational%20Diseases%20%5Bmh%5D%20OR%20Occupational%20Exposure%20%5Bmh%5D%29%20%20AND%20%28tox%5Bsb%5D%29&cmd=search"
          }
        ],
        "cross_references": []
      }
    },
    "exposure_assessment": {
      "vapor_pressure": {
        "original_name": "Vapor Pressure",
        "value": "0.00468 mm Hg",
        "links": [],
        "cross_references": []
      },
      "explanatory_notes": {
        "original_name": "Explanatory Notes",
        "value": "VP from ChemIDplus;",
        "links": [],
        "cross_references": []
      }
    },
    "diseases_processes_and_activities_linked_to_this_agent": {
      "other_information": {
        "original_name": "Other Information",
        "value": "No other related information on this agent was found.",
        "links": [],
        "cross_references": []
      }
    }
  },
  "cross_references": [
    {
      "type": "name_match",
      "text": "endrin",
      "confidence": 1.0,
      "uuid": "da3ecea9-9d16-4fee-80bf-aaf1a0da3963",
      "name": "Endrin",
      "url": "https://haz-map.com/Agents/233",
      "category": "agents"
    },
    {
      "type": "name_match",
      "text": "carbon",
      "confidence": 1.0,
      "uuid": "b53f8815-ee80-40ef-b4aa-3b000e17dab5",
      "name": "Carbon",
      "url": "https://haz-map.com/Agents/1891",
      "category": "agents"
    },
    {
      "type": "name_match",
      "text": "1,2,3,4,7,7-hexachloronorbornadiene",
      "confidence": 1.0,
      "uuid": "8286c07c-b833-4fe4-bd57-f2d4c60dc67d",
      "name": "1,2,3,4,7,7-Hexachloronorbornadiene",
      "url": "https://haz-map.com/Agents/2717",
      "category": "agents"
    },
    {
      "type": "name_match",
      "text": "2,5-norbornadiene",
      "confidence": 1.0,
      "uuid": "359afa27-0064-4330-8efc-664bdd1fa0a3",
      "name": "2,5-Norbornadiene",
      "url": "https://haz-map.com/Agents/20327",
      "category": "agents"
    },
    {
      "type": "fuzzy_match",
      "text": "hydrocarbons",
      "matched_name": "Hydrocarbons, C>3",
      "confidence": 0.7100840336134454,
      "uuid": "8eaa37ac-3931-44e4-9242-2734127fd661",
      "category": "agents",
      "url": "https://haz-map.com/Agents/14795"
    }
  ],
  "all_links": [
    {
      "text": "Search PubMed",
      "url": "https://www.ncbi.nlm.nih.gov/pubmed?term=1%2c2%2c3%2c4%2c7%2c7-Hexachloronorbornadiene%20AND%20human%5Bmh%5D%20AND%20%28Occupational%20Diseases%20%5Bmh%5D%20OR%20Occupational%20Exposure%20%5Bmh%5D%29%20%20AND%20%28tox%5Bsb%5D%29&cmd=search"
    }
  ]
}