{
  "metadata": {
    "scraped_from": "https://haz-map.com/Agents/2476",
    "entity_name": "1,7-Dihydroxynaphthalene",
    "category": "agents",
    "uuid": "828a7862-042e-4954-bdec-b20c55dc1607",
    "scraped_at": "2025-07-23T19:13:37.718460"
  },
  "parsed_at": "2025-07-24T00:56:48.713929",
  "title": "1,7-Dihydroxynaphthalene",
  "sections": {
    "general": {
      "agent_name": {
        "original_name": "Agent Name",
        "value": "1,7-Dihydroxynaphthalene",
        "links": [],
        "cross_references": [
          {
            "type": "name_match",
            "text": "naphthalene",
            "confidence": 1.0,
            "uuid": "433cf489-5423-4297-a38e-6e755a9d458e",
            "name": "Naphthalene",
            "url": "https://haz-map.com/Agents/46",
            "category": "agents"
          },
          {
            "type": "name_match",
            "text": "ht",
            "confidence": 1.0,
            "uuid": "764df367-8d53-4a11-81a2-31ccfe122a8d",
            "name": "HT",
            "url": "https://haz-map.com/Agents/2168",
            "category": "agents"
          },
          {
            "type": "name_match",
            "text": "1,7-dihydroxynaphthalene",
            "confidence": 1.0,
            "uuid": "828a7862-042e-4954-bdec-b20c55dc1607",
            "name": "1,7-Dihydroxynaphthalene",
            "url": "https://haz-map.com/Agents/2476",
            "category": "agents"
          }
        ]
      },
      "cas_number": {
        "original_name": "CAS Number",
        "value": "575-38-2",
        "links": [],
        "cross_references": []
      },
      "formula": {
        "original_name": "Formula",
        "value": "C10-H8-O2",
        "links": [],
        "cross_references": []
      },
      "major_category": {
        "original_name": "Major Category",
        "value": "Other Classes",
        "links": [],
        "cross_references": []
      },
      "synonyms": {
        "original_name": "Synonyms",
        "value": "1,7-Naphthalenediol; C.I. 76635; [ChemIDplus]",
        "links": [],
        "cross_references": [
          {
            "type": "name_match",
            "text": "naphthalene",
            "confidence": 1.0,
            "uuid": "433cf489-5423-4297-a38e-6e755a9d458e",
            "name": "Naphthalene",
            "url": "https://haz-map.com/Agents/46",
            "category": "agents"
          },
          {
            "type": "name_match",
            "text": "ht",
            "confidence": 1.0,
            "uuid": "764df367-8d53-4a11-81a2-31ccfe122a8d",
            "name": "HT",
            "url": "https://haz-map.com/Agents/2168",
            "category": "agents"
          },
          {
            "type": "fuzzy_match",
            "text": "7-naphthalenediol",
            "matched_name": "2,7-Naphthalenediol",
            "confidence": 0.8759398496240601,
            "uuid": "54bda38e-7a8d-4f4a-95da-4fbf9b8653b3",
            "category": "agents",
            "url": "https://haz-map.com/Agents/9963"
          }
        ]
      },
      "category": {
        "original_name": "Category",
        "value": "Naphthols",
        "links": [],
        "cross_references": [
          {
            "type": "name_match",
            "text": "ht",
            "confidence": 1.0,
            "uuid": "764df367-8d53-4a11-81a2-31ccfe122a8d",
            "name": "HT",
            "url": "https://haz-map.com/Agents/2168",
            "category": "agents"
          }
        ]
      },
      "description": {
        "original_name": "Description",
        "value": "Gray powder; [MSDSonline]",
        "links": [],
        "cross_references": []
      },
      "sourcesuses": {
        "original_name": "Sources/Uses",
        "value": "Used to make dyes; [Hawley]",
        "links": [],
        "cross_references": []
      },
      "comments": {
        "original_name": "Comments",
        "value": "A skin, eye, and respiratory tract irritant; [MSDSonline] See \"1-Napththol\" and \"2-Naphthol.\" See \"2,7-Naphthalenediol.\"",
        "links": [],
        "cross_references": [
          {
            "type": "name_match",
            "text": "naphthalene",
            "confidence": 1.0,
            "uuid": "433cf489-5423-4297-a38e-6e755a9d458e",
            "name": "Naphthalene",
            "url": "https://haz-map.com/Agents/46",
            "category": "agents"
          },
          {
            "type": "name_match",
            "text": "ht",
            "confidence": 1.0,
            "uuid": "764df367-8d53-4a11-81a2-31ccfe122a8d",
            "name": "HT",
            "url": "https://haz-map.com/Agents/2168",
            "category": "agents"
          },
          {
            "type": "name_match",
            "text": "2-naphthol",
            "confidence": 1.0,
            "uuid": "152d75dd-ac6f-405f-bd70-2861b7454612",
            "name": "2-Naphthol",
            "url": "https://haz-map.com/Agents/3143",
            "category": "agents"
          },
          {
            "type": "name_match",
            "text": "2,7-naphthalenediol",
            "confidence": 1.0,
            "uuid": "54bda38e-7a8d-4f4a-95da-4fbf9b8653b3",
            "name": "2,7-Naphthalenediol",
            "url": "https://haz-map.com/Agents/9963",
            "category": "agents"
          }
        ]
      },
      "biomedical_references": {
        "original_name": "Biomedical References",
        "value": "Search PubMed",
        "links": [
          {
            "text": "Search PubMed",
            "url": "https://www.ncbi.nlm.nih.gov/pubmed?term=1%2c7-Dihydroxynaphthalene%20AND%20human%5Bmh%5D%20AND%20%28Occupational%20Diseases%20%5Bmh%5D%20OR%20Occupational%20Exposure%20%5Bmh%5D%29%20%20AND%20%28tox%5Bsb%5D%29&cmd=search"
          }
        ],
        "cross_references": []
      }
    },
    "exposure_assessment": {
      "vapor_pressure": {
        "original_name": "Vapor Pressure",
        "value": "7.15E-06 mm Hg",
        "links": [],
        "cross_references": []
      },
      "explanatory_notes": {
        "original_name": "Explanatory Notes",
        "value": "mp = 181 deg C; [Ullmann] Flash point = 252 deg C; [MSDSonline]",
        "links": [],
        "cross_references": [
          {
            "type": "name_match",
            "text": "ash",
            "confidence": 1.0,
            "uuid": "68b360f1-5ad0-4337-bea0-d7adca2961b5",
            "name": "Ash",
            "url": "https://haz-map.com/Agents/965",
            "category": "agents"
          }
        ]
      }
    },
    "diseases_processes_and_activities_linked_to_this_agent": {
      "other_information": {
        "original_name": "Other Information",
        "value": "No other related information on this agent was found.",
        "links": [],
        "cross_references": []
      }
    }
  },
  "cross_references": [
    {
      "type": "name_match",
      "text": "naphthalene",
      "confidence": 1.0,
      "uuid": "433cf489-5423-4297-a38e-6e755a9d458e",
      "name": "Naphthalene",
      "url": "https://haz-map.com/Agents/46",
      "category": "agents"
    },
    {
      "type": "name_match",
      "text": "ash",
      "confidence": 1.0,
      "uuid": "68b360f1-5ad0-4337-bea0-d7adca2961b5",
      "name": "Ash",
      "url": "https://haz-map.com/Agents/965",
      "category": "agents"
    },
    {
      "type": "name_match",
      "text": "ht",
      "confidence": 1.0,
      "uuid": "764df367-8d53-4a11-81a2-31ccfe122a8d",
      "name": "HT",
      "url": "https://haz-map.com/Agents/2168",
      "category": "agents"
    },
    {
      "type": "name_match",
      "text": "1,7-dihydroxynaphthalene",
      "confidence": 1.0,
      "uuid": "828a7862-042e-4954-bdec-b20c55dc1607",
      "name": "1,7-Dihydroxynaphthalene",
      "url": "https://haz-map.com/Agents/2476",
      "category": "agents"
    },
    {
      "type": "name_match",
      "text": "2-naphthol",
      "confidence": 1.0,
      "uuid": "152d75dd-ac6f-405f-bd70-2861b7454612",
      "name": "2-Naphthol",
      "url": "https://haz-map.com/Agents/3143",
      "category": "agents"
    },
    {
      "type": "name_match",
      "text": "2,7-naphthalenediol",
      "confidence": 1.0,
      "uuid": "54bda38e-7a8d-4f4a-95da-4fbf9b8653b3",
      "name": "2,7-Naphthalenediol",
      "url": "https://haz-map.com/Agents/9963",
      "category": "agents"
    }
  ],
  "all_links": [
    {
      "text": "Search PubMed",
      "url": "https://www.ncbi.nlm.nih.gov/pubmed?term=1%2c7-Dihydroxynaphthalene%20AND%20human%5Bmh%5D%20AND%20%28Occupational%20Diseases%20%5Bmh%5D%20OR%20Occupational%20Exposure%20%5Bmh%5D%29%20%20AND%20%28tox%5Bsb%5D%29&cmd=search"
    }
  ]
}