{
  "metadata": {
    "scraped_from": "https://haz-map.com/Agents/13948",
    "entity_name": "DL-Alanine",
    "category": "agents",
    "uuid": "829cca2d-a9d3-4fbd-9d26-aefabd46cb85",
    "scraped_at": "2025-07-23T21:19:29.829015"
  },
  "parsed_at": "2025-07-24T00:51:59.491839",
  "title": "DL-Alanine",
  "sections": {
    "general": {
      "agent_name": {
        "original_name": "Agent Name",
        "value": "DL-Alanine",
        "links": [],
        "cross_references": [
          {
            "type": "name_match",
            "text": "alanine",
            "confidence": 1.0,
            "uuid": "0829012c-76c4-4cb5-91ac-cacb73278dc5",
            "name": "Alanine",
            "url": "https://haz-map.com/Agents/11406",
            "category": "agents"
          },
          {
            "type": "name_match",
            "text": "dl-alanine",
            "confidence": 1.0,
            "uuid": "829cca2d-a9d3-4fbd-9d26-aefabd46cb85",
            "name": "DL-Alanine",
            "url": "https://haz-map.com/Agents/13948",
            "category": "agents"
          }
        ]
      },
      "cas_number": {
        "original_name": "CAS Number",
        "value": "302-72-7",
        "links": [],
        "cross_references": []
      },
      "formula": {
        "original_name": "Formula",
        "value": "C3-H7-N-O2",
        "links": [],
        "cross_references": []
      },
      "major_category": {
        "original_name": "Major Category",
        "value": "Biological Agents",
        "links": [],
        "cross_references": []
      },
      "synonyms": {
        "original_name": "Synonyms",
        "value": "(+-)-2-Aminopropionic acid; (+-)-Alanine; (R,S)-Alanine; (RS)-2-Aminopropionsaeure; Alanine, DL-; D,L-Alanine; DL-2-Aminopropanoic acid; DL-2-Aminopropionic acid; DL-alpha-Alanine; DL-alpha-Aminopropionic acid; [ChemIDplus]",
        "links": [],
        "cross_references": [
          {
            "type": "name_match",
            "text": "propionic acid",
            "confidence": 1.0,
            "uuid": "519c4d0a-ac6f-4f79-a08f-47ebc278e0b4",
            "name": "Propionic acid",
            "url": "https://haz-map.com/Agents/609",
            "category": "agents"
          },
          {
            "type": "name_match",
            "text": "alanine",
            "confidence": 1.0,
            "uuid": "0829012c-76c4-4cb5-91ac-cacb73278dc5",
            "name": "Alanine",
            "url": "https://haz-map.com/Agents/11406",
            "category": "agents"
          }
        ]
      },
      "category": {
        "original_name": "Category",
        "value": "Amino Acids and Derivatives",
        "links": [],
        "cross_references": []
      },
      "description": {
        "original_name": "Description",
        "value": "Solid; [Merck Index] White powder; [Sigma-Aldrich MSDS]",
        "links": [],
        "cross_references": []
      },
      "sourcesuses": {
        "original_name": "Sources/Uses",
        "value": "A non-essential amino acid; [Merck Index] Used as a flavoring agent or adjuvant; [FDA]",
        "links": [],
        "cross_references": []
      },
      "comments": {
        "original_name": "Comments",
        "value": "Safe when used as a flavoring agent in food; [JECFA] May cause irritation; [Sigma-Aldrich MSDS]",
        "links": [],
        "cross_references": []
      },
      "biomedical_references": {
        "original_name": "Biomedical References",
        "value": "Search PubMed",
        "links": [
          {
            "text": "Search PubMed",
            "url": "https://www.ncbi.nlm.nih.gov/pubmed?term=DL-Alanine%20AND%20human%5Bmh%5D%20AND%20%28Occupational%20Diseases%20%5Bmh%5D%20OR%20Occupational%20Exposure%20%5Bmh%5D%29%20%20AND%20%28tox%5Bsb%5D%29&cmd=search"
          }
        ],
        "cross_references": []
      }
    },
    "exposure_assessment": {
      "vapor_pressure": {
        "original_name": "Vapor Pressure",
        "value": "1.05E-07 mm Hg",
        "links": [],
        "cross_references": []
      }
    },
    "diseases_processes_and_activities_linked_to_this_agent": {
      "other_information": {
        "original_name": "Other Information",
        "value": "No other related information on this agent was found.",
        "links": [],
        "cross_references": []
      }
    }
  },
  "cross_references": [
    {
      "type": "name_match",
      "text": "propionic acid",
      "confidence": 1.0,
      "uuid": "519c4d0a-ac6f-4f79-a08f-47ebc278e0b4",
      "name": "Propionic acid",
      "url": "https://haz-map.com/Agents/609",
      "category": "agents"
    },
    {
      "type": "name_match",
      "text": "alanine",
      "confidence": 1.0,
      "uuid": "0829012c-76c4-4cb5-91ac-cacb73278dc5",
      "name": "Alanine",
      "url": "https://haz-map.com/Agents/11406",
      "category": "agents"
    },
    {
      "type": "name_match",
      "text": "dl-alanine",
      "confidence": 1.0,
      "uuid": "829cca2d-a9d3-4fbd-9d26-aefabd46cb85",
      "name": "DL-Alanine",
      "url": "https://haz-map.com/Agents/13948",
      "category": "agents"
    }
  ],
  "all_links": [
    {
      "text": "Search PubMed",
      "url": "https://www.ncbi.nlm.nih.gov/pubmed?term=DL-Alanine%20AND%20human%5Bmh%5D%20AND%20%28Occupational%20Diseases%20%5Bmh%5D%20OR%20Occupational%20Exposure%20%5Bmh%5D%29%20%20AND%20%28tox%5Bsb%5D%29&cmd=search"
    }
  ]
}