{
  "metadata": {
    "scraped_from": "https://haz-map.com/Agents/2702",
    "entity_name": "1,1-Dibromoethane",
    "category": "agents",
    "uuid": "82a503f1-5b0f-47c1-9fd4-c779e89ad6ad",
    "scraped_at": "2025-07-23T19:17:47.794731"
  },
  "parsed_at": "2025-07-24T01:07:31.985799",
  "title": "1,1-Dibromoethane",
  "sections": {
    "general": {
      "agent_name": {
        "original_name": "Agent Name",
        "value": "1,1-Dibromoethane",
        "links": [],
        "cross_references": [
          {
            "type": "name_match",
            "text": "ethane",
            "confidence": 1.0,
            "uuid": "5162cc8c-dfb9-4060-81ac-38a8cec7f9dd",
            "name": "Ethane",
            "url": "https://haz-map.com/Agents/1075",
            "category": "agents"
          },
          {
            "type": "name_match",
            "text": "1,1-dibromoethane",
            "confidence": 1.0,
            "uuid": "82a503f1-5b0f-47c1-9fd4-c779e89ad6ad",
            "name": "1,1-Dibromoethane",
            "url": "https://haz-map.com/Agents/2702",
            "category": "agents"
          }
        ]
      },
      "cas_number": {
        "original_name": "CAS Number",
        "value": "557-91-5",
        "links": [],
        "cross_references": []
      },
      "formula": {
        "original_name": "Formula",
        "value": "C2-H4-Br2",
        "links": [],
        "cross_references": []
      },
      "major_category": {
        "original_name": "Major Category",
        "value": "Other Classes",
        "links": [],
        "cross_references": []
      },
      "synonyms": {
        "original_name": "Synonyms",
        "value": "Ethylidene dibromide; Ethane, 1,1-dibromo-; [ChemIDplus]",
        "links": [],
        "cross_references": [
          {
            "type": "name_match",
            "text": "ethane",
            "confidence": 1.0,
            "uuid": "5162cc8c-dfb9-4060-81ac-38a8cec7f9dd",
            "name": "Ethane",
            "url": "https://haz-map.com/Agents/1075",
            "category": "agents"
          }
        ]
      },
      "category": {
        "original_name": "Category",
        "value": "Halogenated Aliphatics, Saturated",
        "links": [],
        "cross_references": []
      },
      "description": {
        "original_name": "Description",
        "value": "Liquid; [HSDB] Clear, slightly brown liquid; Stabilized with potassium carbonate; [MSDSonline]",
        "links": [],
        "cross_references": [
          {
            "type": "name_match",
            "text": "potassium",
            "confidence": 1.0,
            "uuid": "41542f50-8311-43c8-9ec6-078665bee9df",
            "name": "Potassium",
            "url": "https://haz-map.com/Agents/1526",
            "category": "agents"
          },
          {
            "type": "name_match",
            "text": "carbon",
            "confidence": 1.0,
            "uuid": "b53f8815-ee80-40ef-b4aa-3b000e17dab5",
            "name": "Carbon",
            "url": "https://haz-map.com/Agents/1891",
            "category": "agents"
          },
          {
            "type": "name_match",
            "text": "potassium carbonate",
            "confidence": 1.0,
            "uuid": "f01cfd44-1aff-4566-aa06-85583e125c50",
            "name": "Potassium carbonate",
            "url": "https://haz-map.com/Agents/2013",
            "category": "agents"
          },
          {
            "type": "name_match",
            "text": "ht",
            "confidence": 1.0,
            "uuid": "764df367-8d53-4a11-81a2-31ccfe122a8d",
            "name": "HT",
            "url": "https://haz-map.com/Agents/2168",
            "category": "agents"
          }
        ]
      },
      "sourcesuses": {
        "original_name": "Sources/Uses",
        "value": "Used as a research chemical; [HSDB]",
        "links": [],
        "cross_references": [
          {
            "type": "name_match",
            "text": "mica",
            "confidence": 1.0,
            "uuid": "433f26f1-c399-4596-b179-ce3843cfd465",
            "name": "Mica",
            "url": "https://haz-map.com/Agents/621",
            "category": "agents"
          }
        ]
      },
      "comments": {
        "original_name": "Comments",
        "value": "A mutagen; [RTECS] Not mutagenic to Salmonella typhimurium (TA 102 and TA 2638) or two strains of Escherichia coli; Highly genotoxic and cytotoxic to Salmonella typhimurium tester strain NM5004, but not to original host strain TA 1535; Emergency medical treatment: see \"1-Bromopropane.\" [HSDB] May cause irritation; [MSDSonline]",
        "links": [],
        "cross_references": [
          {
            "type": "name_match",
            "text": "propane",
            "confidence": 1.0,
            "uuid": "563a611b-46ea-4bdc-b77b-17d8f7646283",
            "name": "Propane",
            "url": "https://haz-map.com/Agents/607",
            "category": "agents"
          },
          {
            "type": "name_match",
            "text": "salmon",
            "confidence": 1.0,
            "uuid": "35bb620b-2f2a-4404-a8cb-b42c7a4d0c7e",
            "name": "Salmon",
            "url": "https://haz-map.com/Agents/1206",
            "category": "agents"
          },
          {
            "type": "name_match",
            "text": "1-bromopropane",
            "confidence": 1.0,
            "uuid": "dec7d8e2-7871-42a6-980a-cdac3431b37e",
            "name": "1-Bromopropane",
            "url": "https://haz-map.com/Agents/1646",
            "category": "agents"
          }
        ]
      },
      "biomedical_references": {
        "original_name": "Biomedical References",
        "value": "Search PubMed",
        "links": [
          {
            "text": "Search PubMed",
            "url": "https://www.ncbi.nlm.nih.gov/pubmed?term=1%2c1-Dibromoethane%20AND%20human%5Bmh%5D%20AND%20%28Occupational%20Diseases%20%5Bmh%5D%20OR%20Occupational%20Exposure%20%5Bmh%5D%29%20%20AND%20%28tox%5Bsb%5D%29&cmd=search"
          }
        ],
        "cross_references": []
      }
    },
    "exposure_assessment": {
      "vapor_pressure": {
        "original_name": "Vapor Pressure",
        "value": "25.6 mm Hg",
        "links": [],
        "cross_references": []
      },
      "explanatory_notes": {
        "original_name": "Explanatory Notes",
        "value": "VP from ChemIDplus;",
        "links": [],
        "cross_references": []
      }
    },
    "adverse_effects": {
      "neurotoxin": {
        "original_name": "Neurotoxin",
        "value": "Acute solvent syndrome",
        "links": [],
        "cross_references": []
      }
    },
    "diseases_processes_and_activities_linked_to_this_agent": {
      "diseases": {
        "original_name": "Diseases",
        "value": "Occupational diseases associated with exposure to this agent: Solvents, acute toxic effect",
        "links": [
          {
            "text": "Solvents, acute toxic effect",
            "url": "https://haz-map.com/Diseases/326"
          }
        ],
        "cross_references": [
          {
            "type": "url_match",
            "text": "Solvents, acute toxic effect",
            "url": "https://haz-map.com/Diseases/326",
            "confidence": 1.0,
            "uuid": "581e90e3-9d0c-45f0-aa6c-3468c28da129",
            "name": "Solvents, acute toxic effect",
            "category": "diseases"
          }
        ]
      }
    }
  },
  "cross_references": [
    {
      "type": "url_match",
      "text": "Solvents, acute toxic effect",
      "url": "https://haz-map.com/Diseases/326",
      "confidence": 1.0,
      "uuid": "581e90e3-9d0c-45f0-aa6c-3468c28da129",
      "name": "Solvents, acute toxic effect",
      "category": "diseases"
    },
    {
      "type": "name_match",
      "text": "propane",
      "confidence": 1.0,
      "uuid": "563a611b-46ea-4bdc-b77b-17d8f7646283",
      "name": "Propane",
      "url": "https://haz-map.com/Agents/607",
      "category": "agents"
    },
    {
      "type": "name_match",
      "text": "mica",
      "confidence": 1.0,
      "uuid": "433f26f1-c399-4596-b179-ce3843cfd465",
      "name": "Mica",
      "url": "https://haz-map.com/Agents/621",
      "category": "agents"
    },
    {
      "type": "name_match",
      "text": "ethane",
      "confidence": 1.0,
      "uuid": "5162cc8c-dfb9-4060-81ac-38a8cec7f9dd",
      "name": "Ethane",
      "url": "https://haz-map.com/Agents/1075",
      "category": "agents"
    },
    {
      "type": "name_match",
      "text": "salmon",
      "confidence": 1.0,
      "uuid": "35bb620b-2f2a-4404-a8cb-b42c7a4d0c7e",
      "name": "Salmon",
      "url": "https://haz-map.com/Agents/1206",
      "category": "agents"
    },
    {
      "type": "name_match",
      "text": "potassium",
      "confidence": 1.0,
      "uuid": "41542f50-8311-43c8-9ec6-078665bee9df",
      "name": "Potassium",
      "url": "https://haz-map.com/Agents/1526",
      "category": "agents"
    },
    {
      "type": "name_match",
      "text": "1-bromopropane",
      "confidence": 1.0,
      "uuid": "dec7d8e2-7871-42a6-980a-cdac3431b37e",
      "name": "1-Bromopropane",
      "url": "https://haz-map.com/Agents/1646",
      "category": "agents"
    },
    {
      "type": "name_match",
      "text": "carbon",
      "confidence": 1.0,
      "uuid": "b53f8815-ee80-40ef-b4aa-3b000e17dab5",
      "name": "Carbon",
      "url": "https://haz-map.com/Agents/1891",
      "category": "agents"
    },
    {
      "type": "name_match",
      "text": "potassium carbonate",
      "confidence": 1.0,
      "uuid": "f01cfd44-1aff-4566-aa06-85583e125c50",
      "name": "Potassium carbonate",
      "url": "https://haz-map.com/Agents/2013",
      "category": "agents"
    },
    {
      "type": "name_match",
      "text": "ht",
      "confidence": 1.0,
      "uuid": "764df367-8d53-4a11-81a2-31ccfe122a8d",
      "name": "HT",
      "url": "https://haz-map.com/Agents/2168",
      "category": "agents"
    },
    {
      "type": "name_match",
      "text": "1,1-dibromoethane",
      "confidence": 1.0,
      "uuid": "82a503f1-5b0f-47c1-9fd4-c779e89ad6ad",
      "name": "1,1-Dibromoethane",
      "url": "https://haz-map.com/Agents/2702",
      "category": "agents"
    }
  ],
  "all_links": [
    {
      "text": "Search PubMed",
      "url": "https://www.ncbi.nlm.nih.gov/pubmed?term=1%2c1-Dibromoethane%20AND%20human%5Bmh%5D%20AND%20%28Occupational%20Diseases%20%5Bmh%5D%20OR%20Occupational%20Exposure%20%5Bmh%5D%29%20%20AND%20%28tox%5Bsb%5D%29&cmd=search"
    },
    {
      "text": "Solvents, acute toxic effect",
      "url": "https://haz-map.com/Diseases/326"
    }
  ]
}