{
  "metadata": {
    "scraped_from": "https://haz-map.com/Agents/9332",
    "entity_name": "Thallium I acetate",
    "category": "agents",
    "uuid": "82ce7e78-29d1-4c6a-a1df-5add37fdda0a",
    "scraped_at": "2025-07-23T20:35:30.318857"
  },
  "parsed_at": "2025-07-24T01:04:34.753220",
  "title": "Thallium I acetate",
  "sections": {
    "general": {
      "agent_name": {
        "original_name": "Agent Name",
        "value": "Thallium I acetate",
        "links": [],
        "cross_references": [
          {
            "type": "name_match",
            "text": "thallium",
            "confidence": 1.0,
            "uuid": "ddeb9a79-c1f4-495f-af32-74192ebefba7",
            "name": "Thallium",
            "url": "https://haz-map.com/Agents/65",
            "category": "agents"
          },
          {
            "type": "name_match",
            "text": "thallium i acetate",
            "confidence": 1.0,
            "uuid": "82ce7e78-29d1-4c6a-a1df-5add37fdda0a",
            "name": "Thallium I acetate",
            "url": "https://haz-map.com/Agents/9332",
            "category": "agents"
          }
        ]
      },
      "cas_number": {
        "original_name": "CAS Number",
        "value": "563-68-8",
        "links": [],
        "cross_references": []
      },
      "formula": {
        "original_name": "Formula",
        "value": "C2-H4-O2.Tl",
        "links": [],
        "cross_references": []
      },
      "major_category": {
        "original_name": "Major Category",
        "value": "Metals",
        "links": [],
        "cross_references": []
      },
      "synonyms": {
        "original_name": "Synonyms",
        "value": "Acetic acid, thallium(1) salt; Thallium acetate; Thallium monoacetate; Thallium(1+) acetate; Thallium(I) acetate; Thallous acetate; Acetic acid, thallium(1+) salt; [ChemIDplus] UN1707",
        "links": [],
        "cross_references": [
          {
            "type": "name_match",
            "text": "thallium",
            "confidence": 1.0,
            "uuid": "ddeb9a79-c1f4-495f-af32-74192ebefba7",
            "name": "Thallium",
            "url": "https://haz-map.com/Agents/65",
            "category": "agents"
          },
          {
            "type": "name_match",
            "text": "acetic acid",
            "confidence": 1.0,
            "uuid": "0905c6e4-df84-4895-a92d-658819239bbd",
            "name": "Acetic acid",
            "url": "https://haz-map.com/Agents/207",
            "category": "agents"
          }
        ]
      },
      "category": {
        "original_name": "Category",
        "value": "Organic Acids, Metal Salts",
        "links": [],
        "cross_references": []
      },
      "description": {
        "original_name": "Description",
        "value": "White deliquescent solid; Soluble in water; [Merck Index] White or cream-colored wet crystalline aggregates; [MSDSonline]",
        "links": [],
        "cross_references": [
          {
            "type": "name_match",
            "text": "water",
            "confidence": 1.0,
            "uuid": "6f2a7557-dfd2-49bc-9b4b-a93cd8e225d4",
            "name": "Water",
            "url": "https://haz-map.com/Agents/18668",
            "category": "agents"
          },
          {
            "type": "fuzzy_match",
            "text": "crystalline",
            "matched_name": "Silica, crystalline",
            "confidence": 0.7061403508771931,
            "uuid": "f920e8a2-46df-41b7-af8d-0368a777251e",
            "category": "agents",
            "url": "https://haz-map.com/Agents/427"
          }
        ]
      },
      "sourcesuses": {
        "original_name": "Sources/Uses",
        "value": "Used as rodenticide, insecticide, fireworks dye, depilatory, and in optical glass; [Merck Index] Used in ore flotation and separation; [Hawley]",
        "links": [],
        "cross_references": []
      },
      "comments": {
        "original_name": "Comments",
        "value": "A skin and eye irritant; Can be absorbed through skin; May be fatal by inhalation, skin absorption, and ingestion; [CAMEO] An irritant; [MSDSonline] The fatal human dose by ingestion is approximately 8 mg/kg. [HSDB] See \"Thallium\" and the linked occupational disease.",
        "links": [],
        "cross_references": [
          {
            "type": "name_match",
            "text": "thallium",
            "confidence": 1.0,
            "uuid": "ddeb9a79-c1f4-495f-af32-74192ebefba7",
            "name": "Thallium",
            "url": "https://haz-map.com/Agents/65",
            "category": "agents"
          }
        ]
      },
      "biomedical_references": {
        "original_name": "Biomedical References",
        "value": "Search PubMed",
        "links": [
          {
            "text": "Search PubMed",
            "url": "https://www.ncbi.nlm.nih.gov/pubmed?term=Thallium+I+acetate%20AND%20human%5Bmh%5D%20AND%20%28Occupational%20Diseases%20%5Bmh%5D%20OR%20Occupational%20Exposure%20%5Bmh%5D%29%20%20AND%20%28tox%5Bsb%5D%29&cmd=search"
          }
        ],
        "cross_references": []
      }
    },
    "exposure_assessment": {
      "skin_designation_acgih": {
        "original_name": "Skin Designation (ACGIH)",
        "value": "Yes",
        "links": [],
        "cross_references": []
      },
      "tlv_acgih": {
        "original_name": "TLV (ACGIH)",
        "value": "0.1 mg/m3, as Tl",
        "links": [],
        "cross_references": []
      },
      "pel_osha": {
        "original_name": "PEL (OSHA)",
        "value": "0.1 mg/m3, as Tl",
        "links": [],
        "cross_references": []
      },
      "idlh_niosh": {
        "original_name": "IDLH (NIOSH)",
        "value": "15 mg/m3, as Tl (soluble compounds)",
        "links": [],
        "cross_references": []
      },
      "vapor_pressure": {
        "original_name": "Vapor Pressure",
        "value": "14.7 mm Hg",
        "links": [],
        "cross_references": []
      },
      "explanatory_notes": {
        "original_name": "Explanatory Notes",
        "value": "The Guide in the Emergency Response Guidebook is for \"Thallium compound, n.o.s.\" VP from ChemIDplus;",
        "links": [],
        "cross_references": [
          {
            "type": "name_match",
            "text": "thallium",
            "confidence": 1.0,
            "uuid": "ddeb9a79-c1f4-495f-af32-74192ebefba7",
            "name": "Thallium",
            "url": "https://haz-map.com/Agents/65",
            "category": "agents"
          }
        ]
      }
    },
    "adverse_effects": {
      "neurotoxin": {
        "original_name": "Neurotoxin",
        "value": "Sensorimotor",
        "links": [],
        "cross_references": []
      },
      "hepatotoxin": {
        "original_name": "Hepatotoxin",
        "value": "Hepatoxic (a) from occupational exposure (secondary effect) or (b) in animal studies or in humans after ingestion",
        "links": [],
        "cross_references": []
      }
    },
    "diseases_processes_and_activities_linked_to_this_agent": {
      "processes": {
        "original_name": "Processes",
        "value": "Industrial Processes with risk of exposure: Farming (Pesticides) Glass Manufacturing Metal Extraction and Refining",
        "links": [
          {
            "text": "Farming (Pesticides)",
            "url": "https://haz-map.com/Processes/218"
          },
          {
            "text": "Glass Manufacturing",
            "url": "https://haz-map.com/Processes/260"
          },
          {
            "text": "Metal Extraction and Refining",
            "url": "https://haz-map.com/Processes/261"
          }
        ],
        "cross_references": [
          {
            "type": "url_match",
            "text": "Farming (Pesticides)",
            "url": "https://haz-map.com/Processes/218",
            "confidence": 1.0,
            "uuid": "cf1e5815-c9bb-4917-82a5-391848170b7e",
            "name": "Farming (Pesticides)",
            "category": "processes"
          }
        ]
      }
    }
  },
  "cross_references": [
    {
      "type": "url_match",
      "text": "Farming (Pesticides)",
      "url": "https://haz-map.com/Processes/218",
      "confidence": 1.0,
      "uuid": "cf1e5815-c9bb-4917-82a5-391848170b7e",
      "name": "Farming (Pesticides)",
      "category": "processes"
    },
    {
      "type": "name_match",
      "text": "thallium",
      "confidence": 1.0,
      "uuid": "ddeb9a79-c1f4-495f-af32-74192ebefba7",
      "name": "Thallium",
      "url": "https://haz-map.com/Agents/65",
      "category": "agents"
    },
    {
      "type": "name_match",
      "text": "acetic acid",
      "confidence": 1.0,
      "uuid": "0905c6e4-df84-4895-a92d-658819239bbd",
      "name": "Acetic acid",
      "url": "https://haz-map.com/Agents/207",
      "category": "agents"
    },
    {
      "type": "name_match",
      "text": "thallium i acetate",
      "confidence": 1.0,
      "uuid": "82ce7e78-29d1-4c6a-a1df-5add37fdda0a",
      "name": "Thallium I acetate",
      "url": "https://haz-map.com/Agents/9332",
      "category": "agents"
    },
    {
      "type": "name_match",
      "text": "water",
      "confidence": 1.0,
      "uuid": "6f2a7557-dfd2-49bc-9b4b-a93cd8e225d4",
      "name": "Water",
      "url": "https://haz-map.com/Agents/18668",
      "category": "agents"
    },
    {
      "type": "fuzzy_match",
      "text": "crystalline",
      "matched_name": "Silica, crystalline",
      "confidence": 0.7061403508771931,
      "uuid": "f920e8a2-46df-41b7-af8d-0368a777251e",
      "category": "agents",
      "url": "https://haz-map.com/Agents/427"
    }
  ],
  "all_links": [
    {
      "text": "Search PubMed",
      "url": "https://www.ncbi.nlm.nih.gov/pubmed?term=Thallium+I+acetate%20AND%20human%5Bmh%5D%20AND%20%28Occupational%20Diseases%20%5Bmh%5D%20OR%20Occupational%20Exposure%20%5Bmh%5D%29%20%20AND%20%28tox%5Bsb%5D%29&cmd=search"
    },
    {
      "text": "Farming (Pesticides)",
      "url": "https://haz-map.com/Processes/218"
    },
    {
      "text": "Glass Manufacturing",
      "url": "https://haz-map.com/Processes/260"
    },
    {
      "text": "Metal Extraction and Refining",
      "url": "https://haz-map.com/Processes/261"
    }
  ]
}