{
  "metadata": {
    "scraped_from": "https://haz-map.com/Agents/7653",
    "entity_name": "Tris(2,6-xylenyl)phosphate",
    "category": "agents",
    "uuid": "833f3063-9c1c-4a4f-8651-9ed4f4c132f8",
    "scraped_at": "2025-07-23T20:15:25.593174"
  },
  "parsed_at": "2025-07-24T01:00:29.433165",
  "title": "Tris(2,6-xylenyl)phosphate",
  "sections": {
    "general": {
      "agent_name": {
        "original_name": "Agent Name",
        "value": "Tris(2,6-xylenyl)phosphate",
        "links": [],
        "cross_references": [
          {
            "type": "name_match",
            "text": "tris(2,6-xylenyl)phosphate",
            "confidence": 1.0,
            "uuid": "833f3063-9c1c-4a4f-8651-9ed4f4c132f8",
            "name": "Tris(2,6-xylenyl)phosphate",
            "url": "https://haz-map.com/Agents/7653",
            "category": "agents"
          }
        ]
      },
      "cas_number": {
        "original_name": "CAS Number",
        "value": "121-06-2",
        "links": [],
        "cross_references": []
      },
      "formula": {
        "original_name": "Formula",
        "value": "C24-H27-O4-P",
        "links": [],
        "cross_references": []
      },
      "major_category": {
        "original_name": "Major Category",
        "value": "Other Classes",
        "links": [],
        "cross_references": []
      },
      "synonyms": {
        "original_name": "Synonyms",
        "value": "2,6-Dimethylphenol phosphate (3:1); 2,6-Xylenol, phosphate (3:1); 2,6-Xylyl phosphate, (C8H9O)3PO; Phenol, 2,6-dimethyl-, phosphate (3:1); Phosphoric acid, tris(dimethylphenyl) ester; Tri(2,6-dimethylphenyl) phosphate; Tri(2,6-xylenyl)phosphate; Tri-2,6-xylyl phosphate; Tris(2,6-dimethylphenyl)phosphate; [ChemIDplus]",
        "links": [],
        "cross_references": [
          {
            "type": "name_match",
            "text": "phenol",
            "confidence": 1.0,
            "uuid": "03141a03-a7df-4f51-9a37-adde1a7c4b31",
            "name": "Phenol",
            "url": "https://haz-map.com/Agents/84",
            "category": "agents"
          },
          {
            "type": "name_match",
            "text": "phosphoric acid",
            "confidence": 1.0,
            "uuid": "9049e74c-22b3-4fb1-8e7f-53f17c0ec74a",
            "name": "Phosphoric acid",
            "url": "https://haz-map.com/Agents/595",
            "category": "agents"
          },
          {
            "type": "name_match",
            "text": "xylenol",
            "confidence": 1.0,
            "uuid": "b3841b62-71db-4e83-86de-5a0182f482a9",
            "name": "Xylenol",
            "url": "https://haz-map.com/Agents/1442",
            "category": "agents"
          },
          {
            "type": "name_match",
            "text": "2,6-dimethylphenol",
            "confidence": 1.0,
            "uuid": "589e8db8-064d-4b05-ba03-fbaf73b308dc",
            "name": "2,6-Dimethylphenol",
            "url": "https://haz-map.com/Agents/3044",
            "category": "agents"
          },
          {
            "type": "fuzzy_match",
            "text": "6-xylenyl)phosphate",
            "matched_name": "Tris(2,6-xylenyl)phosphate",
            "confidence": 0.7338056680161943,
            "uuid": "833f3063-9c1c-4a4f-8651-9ed4f4c132f8",
            "category": "agents",
            "url": "https://haz-map.com/Agents/7653"
          }
        ]
      },
      "category": {
        "original_name": "Category",
        "value": "Organophosphates, Other",
        "links": [],
        "cross_references": [
          {
            "type": "name_match",
            "text": "organophosphates",
            "confidence": 1.0,
            "uuid": "8d2d239c-20f9-4f02-9916-5e7667b9990c",
            "name": "ORGANOPHOSPHATES",
            "url": "https://haz-map.com/Agents/702",
            "category": "agents"
          }
        ]
      },
      "description": {
        "original_name": "Description",
        "value": "Solid; [HSDB]",
        "links": [],
        "cross_references": []
      },
      "comments": {
        "original_name": "Comments",
        "value": "There are 5 isomers of Tris(x,y-xylenyl)phosphate; [HSDB] See \"Tris(3,5-xylenyl)phosphate.\"",
        "links": [],
        "cross_references": [
          {
            "type": "name_match",
            "text": "tris(3,5-xylenyl)phosphate",
            "confidence": 1.0,
            "uuid": "db713b1a-f119-4a70-93ad-601340947571",
            "name": "Tris(3,5-xylenyl)phosphate",
            "url": "https://haz-map.com/Agents/7656",
            "category": "agents"
          },
          {
            "type": "fuzzy_match",
            "text": "5-xylenyl)phosphate",
            "matched_name": "Tris(2,5-xylenyl)phosphate",
            "confidence": 0.7338056680161943,
            "uuid": "f5233137-c52a-4998-af57-657510821e72",
            "category": "agents",
            "url": "https://haz-map.com/Agents/7652"
          }
        ]
      },
      "biomedical_references": {
        "original_name": "Biomedical References",
        "value": "Search PubMed",
        "links": [
          {
            "text": "Search PubMed",
            "url": "https://www.ncbi.nlm.nih.gov/pubmed?term=Tris(2%2c6-xylenyl)phosphate%20AND%20human%5Bmh%5D%20AND%20%28Occupational%20Diseases%20%5Bmh%5D%20OR%20Occupational%20Exposure%20%5Bmh%5D%29%20%20AND%20%28tox%5Bsb%5D%29&cmd=search"
          }
        ],
        "cross_references": []
      }
    },
    "exposure_assessment": {
      "vapor_pressure": {
        "original_name": "Vapor Pressure",
        "value": "6.4E-09 mm Hg",
        "links": [],
        "cross_references": []
      }
    },
    "diseases_processes_and_activities_linked_to_this_agent": {
      "other_information": {
        "original_name": "Other Information",
        "value": "No other related information on this agent was found.",
        "links": [],
        "cross_references": []
      }
    }
  },
  "cross_references": [
    {
      "type": "name_match",
      "text": "phenol",
      "confidence": 1.0,
      "uuid": "03141a03-a7df-4f51-9a37-adde1a7c4b31",
      "name": "Phenol",
      "url": "https://haz-map.com/Agents/84",
      "category": "agents"
    },
    {
      "type": "name_match",
      "text": "phosphoric acid",
      "confidence": 1.0,
      "uuid": "9049e74c-22b3-4fb1-8e7f-53f17c0ec74a",
      "name": "Phosphoric acid",
      "url": "https://haz-map.com/Agents/595",
      "category": "agents"
    },
    {
      "type": "name_match",
      "text": "organophosphates",
      "confidence": 1.0,
      "uuid": "8d2d239c-20f9-4f02-9916-5e7667b9990c",
      "name": "ORGANOPHOSPHATES",
      "url": "https://haz-map.com/Agents/702",
      "category": "agents"
    },
    {
      "type": "name_match",
      "text": "xylenol",
      "confidence": 1.0,
      "uuid": "b3841b62-71db-4e83-86de-5a0182f482a9",
      "name": "Xylenol",
      "url": "https://haz-map.com/Agents/1442",
      "category": "agents"
    },
    {
      "type": "name_match",
      "text": "2,6-dimethylphenol",
      "confidence": 1.0,
      "uuid": "589e8db8-064d-4b05-ba03-fbaf73b308dc",
      "name": "2,6-Dimethylphenol",
      "url": "https://haz-map.com/Agents/3044",
      "category": "agents"
    },
    {
      "type": "name_match",
      "text": "tris(2,6-xylenyl)phosphate",
      "confidence": 1.0,
      "uuid": "833f3063-9c1c-4a4f-8651-9ed4f4c132f8",
      "name": "Tris(2,6-xylenyl)phosphate",
      "url": "https://haz-map.com/Agents/7653",
      "category": "agents"
    },
    {
      "type": "name_match",
      "text": "tris(3,5-xylenyl)phosphate",
      "confidence": 1.0,
      "uuid": "db713b1a-f119-4a70-93ad-601340947571",
      "name": "Tris(3,5-xylenyl)phosphate",
      "url": "https://haz-map.com/Agents/7656",
      "category": "agents"
    },
    {
      "type": "fuzzy_match",
      "text": "5-xylenyl)phosphate",
      "matched_name": "Tris(2,5-xylenyl)phosphate",
      "confidence": 0.7338056680161943,
      "uuid": "f5233137-c52a-4998-af57-657510821e72",
      "category": "agents",
      "url": "https://haz-map.com/Agents/7652"
    }
  ],
  "all_links": [
    {
      "text": "Search PubMed",
      "url": "https://www.ncbi.nlm.nih.gov/pubmed?term=Tris(2%2c6-xylenyl)phosphate%20AND%20human%5Bmh%5D%20AND%20%28Occupational%20Diseases%20%5Bmh%5D%20OR%20Occupational%20Exposure%20%5Bmh%5D%29%20%20AND%20%28tox%5Bsb%5D%29&cmd=search"
    }
  ]
}