{
  "metadata": {
    "scraped_from": "https://haz-map.com/Agents/5711",
    "entity_name": "Isopropalin",
    "category": "agents",
    "uuid": "83421220-dc9f-400c-b579-54fe90743994",
    "scraped_at": "2025-07-23T19:55:20.745075"
  },
  "parsed_at": "2025-07-24T01:04:10.779618",
  "title": "Isopropalin",
  "sections": {
    "general": {
      "agent_name": {
        "original_name": "Agent Name",
        "value": "Isopropalin",
        "links": [],
        "cross_references": [
          {
            "type": "name_match",
            "text": "isopropalin",
            "confidence": 1.0,
            "uuid": "83421220-dc9f-400c-b579-54fe90743994",
            "name": "Isopropalin",
            "url": "https://haz-map.com/Agents/5711",
            "category": "agents"
          }
        ]
      },
      "cas_number": {
        "original_name": "CAS Number",
        "value": "33820-53-0",
        "links": [],
        "cross_references": []
      },
      "formula": {
        "original_name": "Formula",
        "value": "C15-H23-N3-O4",
        "links": [],
        "cross_references": []
      },
      "major_category": {
        "original_name": "Major Category",
        "value": "Pesticides",
        "links": [],
        "cross_references": []
      },
      "synonyms": {
        "original_name": "Synonyms",
        "value": "Bifenthrin; 2,6-Dinitro-N,N-dipropyl-4-isopropylaniline; 2,6-Dinitro-N,N-dipropylcumidine; 4-(1-Methylethyl)-2,6-dinitro-N,N-dipropylbenzenamine; 4-Isopropyl-2,6-dinitro-N,N-dipropylaniline; Benzenamine, 4-(1-methylethyl)-2,6-dinitro-N,N-dipropyl- (9CI); Cumidine, 2,6-dinitro-N,N-dipropyl-; EL-179; Isopropaline [ISO-French]; Paarlan; [ChemIDplus]",
        "links": [],
        "cross_references": [
          {
            "type": "name_match",
            "text": "aniline",
            "confidence": 1.0,
            "uuid": "e4932692-8d9c-4a98-8c5c-81e55b12aedf",
            "name": "Aniline",
            "url": "https://haz-map.com/Agents/296",
            "category": "agents"
          },
          {
            "type": "name_match",
            "text": "bifenthrin",
            "confidence": 1.0,
            "uuid": "356c57c6-8103-48e1-abbf-b7518b2b29fc",
            "name": "Bifenthrin",
            "url": "https://haz-map.com/Agents/3922",
            "category": "agents"
          },
          {
            "type": "name_match",
            "text": "isopropalin",
            "confidence": 1.0,
            "uuid": "83421220-dc9f-400c-b579-54fe90743994",
            "name": "Isopropalin",
            "url": "https://haz-map.com/Agents/5711",
            "category": "agents"
          },
          {
            "type": "name_match",
            "text": "4-isopropylaniline",
            "confidence": 1.0,
            "uuid": "e23b7c57-0828-4f09-bcbd-ecf5be9f617d",
            "name": "4-Isopropylaniline",
            "url": "https://haz-map.com/Agents/20055",
            "category": "agents"
          }
        ]
      },
      "category": {
        "original_name": "Category",
        "value": "Herbicides, Nitroaromatic",
        "links": [],
        "cross_references": [
          {
            "type": "name_match",
            "text": "herbicides",
            "confidence": 1.0,
            "uuid": "195f29ae-3f15-47c5-836d-0a9791db3fc1",
            "name": "HERBICIDES",
            "url": "https://haz-map.com/Agents/703",
            "category": "agents"
          }
        ]
      },
      "description": {
        "original_name": "Description",
        "value": "Red-orange; liquid; [HSDB]",
        "links": [],
        "cross_references": []
      },
      "sourcesuses": {
        "original_name": "Sources/Uses",
        "value": "Used as selective pre-emergence herbicide to control grasses and broad-leaved weeds in transplant tobacco; [HSDB]",
        "links": [],
        "cross_references": []
      },
      "comments": {
        "original_name": "Comments",
        "value": "NOEL (rat) = 15 mg/kg/day for 90 days; Effects included decreased hemoglobin levels in animals receiving higher doses; [IRIS] May be irritating to skin and eyes; [HSDB]",
        "links": [],
        "cross_references": []
      },
      "restricted": {
        "original_name": "Restricted",
        "value": "Cancelled--no longer registered as a pesticide for use in the US; [HSDB]",
        "links": [],
        "cross_references": []
      },
      "biomedical_references": {
        "original_name": "Biomedical References",
        "value": "Search PubMed",
        "links": [
          {
            "text": "Search PubMed",
            "url": "https://www.ncbi.nlm.nih.gov/pubmed?term=Isopropalin%20AND%20human%5Bmh%5D%20AND%20%28Occupational%20Diseases%20%5Bmh%5D%20OR%20Occupational%20Exposure%20%5Bmh%5D%29%20%20AND%20%28tox%5Bsb%5D%29&cmd=search"
          }
        ],
        "cross_references": []
      }
    },
    "exposure_assessment": {
      "vapor_pressure": {
        "original_name": "Vapor Pressure",
        "value": "3E-05 mm Hg",
        "links": [],
        "cross_references": []
      }
    },
    "diseases_processes_and_activities_linked_to_this_agent": {
      "processes": {
        "original_name": "Processes",
        "value": "Industrial Processes with risk of exposure: Farming (Pesticides)",
        "links": [
          {
            "text": "Farming (Pesticides)",
            "url": "https://haz-map.com/Processes/218"
          }
        ],
        "cross_references": [
          {
            "type": "url_match",
            "text": "Farming (Pesticides)",
            "url": "https://haz-map.com/Processes/218",
            "confidence": 1.0,
            "uuid": "cf1e5815-c9bb-4917-82a5-391848170b7e",
            "name": "Farming (Pesticides)",
            "category": "processes"
          }
        ]
      }
    }
  },
  "cross_references": [
    {
      "type": "url_match",
      "text": "Farming (Pesticides)",
      "url": "https://haz-map.com/Processes/218",
      "confidence": 1.0,
      "uuid": "cf1e5815-c9bb-4917-82a5-391848170b7e",
      "name": "Farming (Pesticides)",
      "category": "processes"
    },
    {
      "type": "name_match",
      "text": "aniline",
      "confidence": 1.0,
      "uuid": "e4932692-8d9c-4a98-8c5c-81e55b12aedf",
      "name": "Aniline",
      "url": "https://haz-map.com/Agents/296",
      "category": "agents"
    },
    {
      "type": "name_match",
      "text": "herbicides",
      "confidence": 1.0,
      "uuid": "195f29ae-3f15-47c5-836d-0a9791db3fc1",
      "name": "HERBICIDES",
      "url": "https://haz-map.com/Agents/703",
      "category": "agents"
    },
    {
      "type": "name_match",
      "text": "bifenthrin",
      "confidence": 1.0,
      "uuid": "356c57c6-8103-48e1-abbf-b7518b2b29fc",
      "name": "Bifenthrin",
      "url": "https://haz-map.com/Agents/3922",
      "category": "agents"
    },
    {
      "type": "name_match",
      "text": "isopropalin",
      "confidence": 1.0,
      "uuid": "83421220-dc9f-400c-b579-54fe90743994",
      "name": "Isopropalin",
      "url": "https://haz-map.com/Agents/5711",
      "category": "agents"
    },
    {
      "type": "name_match",
      "text": "4-isopropylaniline",
      "confidence": 1.0,
      "uuid": "e23b7c57-0828-4f09-bcbd-ecf5be9f617d",
      "name": "4-Isopropylaniline",
      "url": "https://haz-map.com/Agents/20055",
      "category": "agents"
    }
  ],
  "all_links": [
    {
      "text": "Search PubMed",
      "url": "https://www.ncbi.nlm.nih.gov/pubmed?term=Isopropalin%20AND%20human%5Bmh%5D%20AND%20%28Occupational%20Diseases%20%5Bmh%5D%20OR%20Occupational%20Exposure%20%5Bmh%5D%29%20%20AND%20%28tox%5Bsb%5D%29&cmd=search"
    },
    {
      "text": "Farming (Pesticides)",
      "url": "https://haz-map.com/Processes/218"
    }
  ]
}