{
  "metadata": {
    "scraped_from": "https://haz-map.com/Agents/11621",
    "entity_name": "4-Fluorobenzenesulfonyl chloride",
    "category": "agents",
    "uuid": "83517b72-8084-46aa-9098-97941492e8ae",
    "scraped_at": "2025-07-23T21:02:07.048101"
  },
  "parsed_at": "2025-07-24T01:03:02.061998",
  "title": "4-Fluorobenzenesulfonyl chloride",
  "sections": {
    "general": {
      "agent_name": {
        "original_name": "Agent Name",
        "value": "4-Fluorobenzenesulfonyl chloride",
        "links": [],
        "cross_references": [
          {
            "type": "name_match",
            "text": "benzene",
            "confidence": 1.0,
            "uuid": "b05124de-5f34-4c14-8f04-ccb20c3780d9",
            "name": "Benzene",
            "url": "https://haz-map.com/Agents/5",
            "category": "agents"
          },
          {
            "type": "name_match",
            "text": "benzenesulfonyl chloride",
            "confidence": 1.0,
            "uuid": "98dce964-a8bc-4811-bbd2-ac816bb5a9da",
            "name": "Benzenesulfonyl chloride",
            "url": "https://haz-map.com/Agents/1377",
            "category": "agents"
          },
          {
            "type": "name_match",
            "text": "4-fluorobenzenesulfonyl chloride",
            "confidence": 1.0,
            "uuid": "83517b72-8084-46aa-9098-97941492e8ae",
            "name": "4-Fluorobenzenesulfonyl chloride",
            "url": "https://haz-map.com/Agents/11621",
            "category": "agents"
          },
          {
            "type": "name_match",
            "text": "fluorobenzene",
            "confidence": 1.0,
            "uuid": "c1a78196-9690-457b-a16d-9ca478f8d65b",
            "name": "Fluorobenzene",
            "url": "https://haz-map.com/Agents/13894",
            "category": "agents"
          }
        ]
      },
      "cas_number": {
        "original_name": "CAS Number",
        "value": "349-88-2",
        "links": [],
        "cross_references": []
      },
      "formula": {
        "original_name": "Formula",
        "value": "C6-H4-Cl-F-O2-S",
        "links": [],
        "cross_references": []
      },
      "major_category": {
        "original_name": "Major Category",
        "value": "Toxic Gases & Vapors",
        "links": [],
        "cross_references": []
      },
      "synonyms": {
        "original_name": "Synonyms",
        "value": "4-Fluorophenylsulfonyl chloride; Benzenesulfonyl chloride, 4-fluoro-; Benzenesulfonyl chloride, p-fluoro-; p-Fluorobenzenesulfonyl chloride; [ChemIDplus] UN3261",
        "links": [],
        "cross_references": [
          {
            "type": "name_match",
            "text": "benzene",
            "confidence": 1.0,
            "uuid": "b05124de-5f34-4c14-8f04-ccb20c3780d9",
            "name": "Benzene",
            "url": "https://haz-map.com/Agents/5",
            "category": "agents"
          },
          {
            "type": "name_match",
            "text": "benzenesulfonyl chloride",
            "confidence": 1.0,
            "uuid": "98dce964-a8bc-4811-bbd2-ac816bb5a9da",
            "name": "Benzenesulfonyl chloride",
            "url": "https://haz-map.com/Agents/1377",
            "category": "agents"
          },
          {
            "type": "name_match",
            "text": "fluorobenzene",
            "confidence": 1.0,
            "uuid": "c1a78196-9690-457b-a16d-9ca478f8d65b",
            "name": "Fluorobenzene",
            "url": "https://haz-map.com/Agents/13894",
            "category": "agents"
          }
        ]
      },
      "category": {
        "original_name": "Category",
        "value": "Acid Halides",
        "links": [],
        "cross_references": []
      },
      "description": {
        "original_name": "Description",
        "value": "Melting point = 30 deg C; [ChemIDplus] White solid; mp = 35-38 deg C; [Alfa Aesar MSDS]",
        "links": [],
        "cross_references": []
      },
      "sourcesuses": {
        "original_name": "Sources/Uses",
        "value": "Used as a reagent for studying proteins using fluorine nuclear magnetic resonance (F-NMR); [ChemIDplus]",
        "links": [],
        "cross_references": [
          {
            "type": "name_match",
            "text": "fluorine",
            "confidence": 1.0,
            "uuid": "bcff09a2-d008-4bb9-9ea2-9945e4426940",
            "name": "Fluorine",
            "url": "https://haz-map.com/Agents/494",
            "category": "agents"
          }
        ]
      },
      "comments": {
        "original_name": "Comments",
        "value": "Reacts with water; Causes burns; Inhalation may cause corrosive injuries to upper respiratory tract and lungs; [Alfa Aesar MSDS] See \"p-Toluenesulfonyl chloride.\"",
        "links": [],
        "cross_references": [
          {
            "type": "name_match",
            "text": "burn",
            "confidence": 1.0,
            "uuid": "63665de5-6376-4918-8dbf-4c10c4d63837",
            "name": "burn",
            "url": "https://haz-map.com/Findings/204",
            "category": "findings"
          },
          {
            "type": "name_match",
            "text": "toluene",
            "confidence": 1.0,
            "uuid": "0a34d5de-e924-4c47-aff5-7ae8e48c6772",
            "name": "Toluene",
            "url": "https://haz-map.com/Agents/83",
            "category": "agents"
          },
          {
            "type": "name_match",
            "text": "p-toluenesulfonyl chloride",
            "confidence": 1.0,
            "uuid": "6ac8dea6-8779-429f-82b3-cd9e4a5c78e9",
            "name": "p-Toluenesulfonyl chloride",
            "url": "https://haz-map.com/Agents/4308",
            "category": "agents"
          },
          {
            "type": "name_match",
            "text": "water",
            "confidence": 1.0,
            "uuid": "6f2a7557-dfd2-49bc-9b4b-a93cd8e225d4",
            "name": "Water",
            "url": "https://haz-map.com/Agents/18668",
            "category": "agents"
          }
        ]
      },
      "biomedical_references": {
        "original_name": "Biomedical References",
        "value": "Search PubMed",
        "links": [
          {
            "text": "Search PubMed",
            "url": "https://www.ncbi.nlm.nih.gov/pubmed?term=4-Fluorobenzenesulfonyl+chloride%20AND%20human%5Bmh%5D%20AND%20%28Occupational%20Diseases%20%5Bmh%5D%20OR%20Occupational%20Exposure%20%5Bmh%5D%29%20%20AND%20%28tox%5Bsb%5D%29&cmd=search"
          }
        ],
        "cross_references": []
      }
    },
    "exposure_assessment": {
      "explanatory_notes": {
        "original_name": "Explanatory Notes",
        "value": "The Guide in the Emergency Response Guidebook is for \"Corrosive solid, acidic, organic, n.o.s.\"",
        "links": [],
        "cross_references": []
      }
    },
    "adverse_effects": {
      "toxic_pneumonitis": {
        "original_name": "Toxic Pneumonitis",
        "value": "Yes",
        "links": [],
        "cross_references": []
      },
      "dermatotoxin": {
        "original_name": "Dermatotoxin",
        "value": "Skin burns",
        "links": [],
        "cross_references": [
          {
            "type": "name_match",
            "text": "burn",
            "confidence": 1.0,
            "uuid": "63665de5-6376-4918-8dbf-4c10c4d63837",
            "name": "burn",
            "url": "https://haz-map.com/Findings/204",
            "category": "findings"
          }
        ]
      }
    },
    "diseases_processes_and_activities_linked_to_this_agent": {
      "other_information": {
        "original_name": "Other Information",
        "value": "No other related information on this agent was found.",
        "links": [],
        "cross_references": []
      }
    }
  },
  "cross_references": [
    {
      "type": "name_match",
      "text": "burn",
      "confidence": 1.0,
      "uuid": "63665de5-6376-4918-8dbf-4c10c4d63837",
      "name": "burn",
      "url": "https://haz-map.com/Findings/204",
      "category": "findings"
    },
    {
      "type": "name_match",
      "text": "benzene",
      "confidence": 1.0,
      "uuid": "b05124de-5f34-4c14-8f04-ccb20c3780d9",
      "name": "Benzene",
      "url": "https://haz-map.com/Agents/5",
      "category": "agents"
    },
    {
      "type": "name_match",
      "text": "toluene",
      "confidence": 1.0,
      "uuid": "0a34d5de-e924-4c47-aff5-7ae8e48c6772",
      "name": "Toluene",
      "url": "https://haz-map.com/Agents/83",
      "category": "agents"
    },
    {
      "type": "name_match",
      "text": "fluorine",
      "confidence": 1.0,
      "uuid": "bcff09a2-d008-4bb9-9ea2-9945e4426940",
      "name": "Fluorine",
      "url": "https://haz-map.com/Agents/494",
      "category": "agents"
    },
    {
      "type": "name_match",
      "text": "benzenesulfonyl chloride",
      "confidence": 1.0,
      "uuid": "98dce964-a8bc-4811-bbd2-ac816bb5a9da",
      "name": "Benzenesulfonyl chloride",
      "url": "https://haz-map.com/Agents/1377",
      "category": "agents"
    },
    {
      "type": "name_match",
      "text": "p-toluenesulfonyl chloride",
      "confidence": 1.0,
      "uuid": "6ac8dea6-8779-429f-82b3-cd9e4a5c78e9",
      "name": "p-Toluenesulfonyl chloride",
      "url": "https://haz-map.com/Agents/4308",
      "category": "agents"
    },
    {
      "type": "name_match",
      "text": "4-fluorobenzenesulfonyl chloride",
      "confidence": 1.0,
      "uuid": "83517b72-8084-46aa-9098-97941492e8ae",
      "name": "4-Fluorobenzenesulfonyl chloride",
      "url": "https://haz-map.com/Agents/11621",
      "category": "agents"
    },
    {
      "type": "name_match",
      "text": "fluorobenzene",
      "confidence": 1.0,
      "uuid": "c1a78196-9690-457b-a16d-9ca478f8d65b",
      "name": "Fluorobenzene",
      "url": "https://haz-map.com/Agents/13894",
      "category": "agents"
    },
    {
      "type": "name_match",
      "text": "water",
      "confidence": 1.0,
      "uuid": "6f2a7557-dfd2-49bc-9b4b-a93cd8e225d4",
      "name": "Water",
      "url": "https://haz-map.com/Agents/18668",
      "category": "agents"
    }
  ],
  "all_links": [
    {
      "text": "Search PubMed",
      "url": "https://www.ncbi.nlm.nih.gov/pubmed?term=4-Fluorobenzenesulfonyl+chloride%20AND%20human%5Bmh%5D%20AND%20%28Occupational%20Diseases%20%5Bmh%5D%20OR%20Occupational%20Exposure%20%5Bmh%5D%29%20%20AND%20%28tox%5Bsb%5D%29&cmd=search"
    }
  ]
}