{
  "metadata": {
    "scraped_from": "https://haz-map.com/Agents/6457",
    "entity_name": "Oleic acid diethanolamine salt",
    "category": "agents",
    "uuid": "83a9418e-b1ee-4265-aa5c-35413408274e",
    "scraped_at": "2025-07-23T20:02:13.201055"
  },
  "parsed_at": "2025-07-24T01:01:11.218203",
  "title": "Oleic acid diethanolamine salt",
  "sections": {
    "general": {
      "agent_name": {
        "original_name": "Agent Name",
        "value": "Oleic acid diethanolamine salt",
        "links": [],
        "cross_references": [
          {
            "type": "name_match",
            "text": "ethanolamine",
            "confidence": 1.0,
            "uuid": "16354994-9346-496d-9e19-23d8a4473ab4",
            "name": "Ethanolamine",
            "url": "https://haz-map.com/Agents/288",
            "category": "agents"
          },
          {
            "type": "name_match",
            "text": "diethanolamine",
            "confidence": 1.0,
            "uuid": "588b3cdf-df43-41d8-8417-60aaa610fb49",
            "name": "Diethanolamine",
            "url": "https://haz-map.com/Agents/454",
            "category": "agents"
          },
          {
            "type": "name_match",
            "text": "oleic acid",
            "confidence": 1.0,
            "uuid": "92fd92b6-f74c-4bd2-b9f1-919fbad882ae",
            "name": "Oleic acid",
            "url": "https://haz-map.com/Agents/6455",
            "category": "agents"
          },
          {
            "type": "name_match",
            "text": "oleic acid diethanolamine salt",
            "confidence": 1.0,
            "uuid": "83a9418e-b1ee-4265-aa5c-35413408274e",
            "name": "Oleic acid diethanolamine salt",
            "url": "https://haz-map.com/Agents/6457",
            "category": "agents"
          }
        ]
      },
      "cas_number": {
        "original_name": "CAS Number",
        "value": "13961-86-9",
        "links": [],
        "cross_references": []
      },
      "formula": {
        "original_name": "Formula",
        "value": "C18-H34-O2.C4-H11-N-O2",
        "links": [],
        "cross_references": []
      },
      "major_category": {
        "original_name": "Major Category",
        "value": "Other Uses",
        "links": [],
        "cross_references": []
      },
      "synonyms": {
        "original_name": "Synonyms",
        "value": "9-Octadecenoic acid (Z)-, compd. with 2,2'-iminobis(ethanol) (1:1); Diethanolamine oleate; Diethanolammonium oleate; Ethanol, 2,2'-iminobis-, (Z)-9-octadecenoate (salt); Ethanol, 2,2'-iminodi-, oleate (salt); Oleic acid diethanolamine (1:1); Oleic acid, compd with 2,2'-iminodiethanol (1:1); Oleic acid, compound with diethanolamine (1:1); Oleic acid diethanolamine condensate (1:1); [ChemIDplus]",
        "links": [],
        "cross_references": [
          {
            "type": "name_match",
            "text": "ethanolamine",
            "confidence": 1.0,
            "uuid": "16354994-9346-496d-9e19-23d8a4473ab4",
            "name": "Ethanolamine",
            "url": "https://haz-map.com/Agents/288",
            "category": "agents"
          },
          {
            "type": "name_match",
            "text": "diethanolamine",
            "confidence": 1.0,
            "uuid": "588b3cdf-df43-41d8-8417-60aaa610fb49",
            "name": "Diethanolamine",
            "url": "https://haz-map.com/Agents/454",
            "category": "agents"
          },
          {
            "type": "name_match",
            "text": "oleic acid",
            "confidence": 1.0,
            "uuid": "92fd92b6-f74c-4bd2-b9f1-919fbad882ae",
            "name": "Oleic acid",
            "url": "https://haz-map.com/Agents/6455",
            "category": "agents"
          },
          {
            "type": "name_match",
            "text": "ammonium oleate",
            "confidence": 1.0,
            "uuid": "90cdfbcc-3452-473d-be21-71990d5f5e2f",
            "name": "Ammonium oleate",
            "url": "https://haz-map.com/Agents/7959",
            "category": "agents"
          },
          {
            "type": "name_match",
            "text": "ethanolamine oleate",
            "confidence": 1.0,
            "uuid": "b5c5dc04-8950-4281-b43c-2c989161cddb",
            "name": "Ethanolamine oleate",
            "url": "https://haz-map.com/Agents/20689",
            "category": "agents"
          }
        ]
      },
      "category": {
        "original_name": "Category",
        "value": "Emulsifiers/Surfactants",
        "links": [],
        "cross_references": []
      },
      "description": {
        "original_name": "Description",
        "value": "Clear golden-brown liquid; [CAMEO]",
        "links": [],
        "cross_references": [
          {
            "type": "name_match",
            "text": "gold",
            "confidence": 1.0,
            "uuid": "8f37bad1-17df-446f-b0ed-11d2ef239483",
            "name": "Gold",
            "url": "https://haz-map.com/Agents/1186",
            "category": "agents"
          }
        ]
      },
      "sourcesuses": {
        "original_name": "Sources/Uses",
        "value": "Used formerly as anionic surfactant in wax emulsions; [HSDB]",
        "links": [],
        "cross_references": []
      },
      "comments": {
        "original_name": "Comments",
        "value": "See \"Diethanolamine.\"",
        "links": [],
        "cross_references": [
          {
            "type": "name_match",
            "text": "ethanolamine",
            "confidence": 1.0,
            "uuid": "16354994-9346-496d-9e19-23d8a4473ab4",
            "name": "Ethanolamine",
            "url": "https://haz-map.com/Agents/288",
            "category": "agents"
          },
          {
            "type": "name_match",
            "text": "diethanolamine",
            "confidence": 1.0,
            "uuid": "588b3cdf-df43-41d8-8417-60aaa610fb49",
            "name": "Diethanolamine",
            "url": "https://haz-map.com/Agents/454",
            "category": "agents"
          }
        ]
      },
      "biomedical_references": {
        "original_name": "Biomedical References",
        "value": "Search PubMed",
        "links": [
          {
            "text": "Search PubMed",
            "url": "https://www.ncbi.nlm.nih.gov/pubmed?term=Oleic+acid+diethanolamine+salt%20AND%20human%5Bmh%5D%20AND%20%28Occupational%20Diseases%20%5Bmh%5D%20OR%20Occupational%20Exposure%20%5Bmh%5D%29%20%20AND%20%28tox%5Bsb%5D%29&cmd=search"
          }
        ],
        "cross_references": []
      }
    },
    "exposure_assessment": {
      "vapor_pressure": {
        "original_name": "Vapor Pressure",
        "value": "5.7 mm Hg",
        "links": [],
        "cross_references": []
      }
    },
    "diseases_processes_and_activities_linked_to_this_agent": {
      "other_information": {
        "original_name": "Other Information",
        "value": "No other related information on this agent was found.",
        "links": [],
        "cross_references": []
      }
    }
  },
  "cross_references": [
    {
      "type": "name_match",
      "text": "ethanolamine",
      "confidence": 1.0,
      "uuid": "16354994-9346-496d-9e19-23d8a4473ab4",
      "name": "Ethanolamine",
      "url": "https://haz-map.com/Agents/288",
      "category": "agents"
    },
    {
      "type": "name_match",
      "text": "diethanolamine",
      "confidence": 1.0,
      "uuid": "588b3cdf-df43-41d8-8417-60aaa610fb49",
      "name": "Diethanolamine",
      "url": "https://haz-map.com/Agents/454",
      "category": "agents"
    },
    {
      "type": "name_match",
      "text": "gold",
      "confidence": 1.0,
      "uuid": "8f37bad1-17df-446f-b0ed-11d2ef239483",
      "name": "Gold",
      "url": "https://haz-map.com/Agents/1186",
      "category": "agents"
    },
    {
      "type": "name_match",
      "text": "oleic acid",
      "confidence": 1.0,
      "uuid": "92fd92b6-f74c-4bd2-b9f1-919fbad882ae",
      "name": "Oleic acid",
      "url": "https://haz-map.com/Agents/6455",
      "category": "agents"
    },
    {
      "type": "name_match",
      "text": "oleic acid diethanolamine salt",
      "confidence": 1.0,
      "uuid": "83a9418e-b1ee-4265-aa5c-35413408274e",
      "name": "Oleic acid diethanolamine salt",
      "url": "https://haz-map.com/Agents/6457",
      "category": "agents"
    },
    {
      "type": "name_match",
      "text": "ammonium oleate",
      "confidence": 1.0,
      "uuid": "90cdfbcc-3452-473d-be21-71990d5f5e2f",
      "name": "Ammonium oleate",
      "url": "https://haz-map.com/Agents/7959",
      "category": "agents"
    },
    {
      "type": "name_match",
      "text": "ethanolamine oleate",
      "confidence": 1.0,
      "uuid": "b5c5dc04-8950-4281-b43c-2c989161cddb",
      "name": "Ethanolamine oleate",
      "url": "https://haz-map.com/Agents/20689",
      "category": "agents"
    }
  ],
  "all_links": [
    {
      "text": "Search PubMed",
      "url": "https://www.ncbi.nlm.nih.gov/pubmed?term=Oleic+acid+diethanolamine+salt%20AND%20human%5Bmh%5D%20AND%20%28Occupational%20Diseases%20%5Bmh%5D%20OR%20Occupational%20Exposure%20%5Bmh%5D%29%20%20AND%20%28tox%5Bsb%5D%29&cmd=search"
    }
  ]
}