{
  "metadata": {
    "scraped_from": "https://haz-map.com/Agents/5260",
    "entity_name": "Ethyl vanillin",
    "category": "agents",
    "uuid": "842191c7-e693-4c79-ab18-d93853923507",
    "scraped_at": "2025-07-23T19:50:43.631790"
  },
  "parsed_at": "2025-07-24T01:14:17.178595",
  "title": "Ethyl vanillin",
  "sections": {
    "general": {
      "agent_name": {
        "original_name": "Agent Name",
        "value": "Ethyl vanillin",
        "links": [],
        "cross_references": [
          {
            "type": "name_match",
            "text": "ethyl vanillin",
            "confidence": 1.0,
            "uuid": "842191c7-e693-4c79-ab18-d93853923507",
            "name": "Ethyl vanillin",
            "url": "https://haz-map.com/Agents/5260",
            "category": "agents"
          },
          {
            "type": "name_match",
            "text": "vanillin",
            "confidence": 1.0,
            "uuid": "b18209ef-a08d-4dca-8b00-7907c33bb340",
            "name": "Vanillin",
            "url": "https://haz-map.com/Agents/18622",
            "category": "agents"
          }
        ]
      },
      "cas_number": {
        "original_name": "CAS Number",
        "value": "121-32-4",
        "links": [],
        "cross_references": []
      },
      "formula": {
        "original_name": "Formula",
        "value": "C9-H10-O3",
        "links": [],
        "cross_references": []
      },
      "major_category": {
        "original_name": "Major Category",
        "value": "Other Classes",
        "links": [],
        "cross_references": []
      },
      "synonyms": {
        "original_name": "Synonyms",
        "value": "2-Ethoxy-4-formylphenol; 3-Ethoxy-4-hydroxybenzaldehyde; 3-Ethoxyprotocatechualdehyde; 4-Hydroxy-3-ethoxybenzaldehyde; Benzaldehyde, 3-ethoxy-4-hydroxy-; Bourbonal; Ethavan; Ethovan; Ethyl protal; Ethylprotal; Ethylprotocatechualdehyde-3-ethyl ether; Ethylprotocatechuic aldehyde; Ethylvanillin; Protocatechuic aldehyde ethyl ether; Quantrovanil; Vanilal; Vanillal; Vanillin, ethyl-; Vanirom; Vanirome; [ChemIDplus]",
        "links": [],
        "cross_references": [
          {
            "type": "name_match",
            "text": "phenol",
            "confidence": 1.0,
            "uuid": "03141a03-a7df-4f51-9a37-adde1a7c4b31",
            "name": "Phenol",
            "url": "https://haz-map.com/Agents/84",
            "category": "agents"
          },
          {
            "type": "name_match",
            "text": "ethyl ether",
            "confidence": 1.0,
            "uuid": "c95edddc-9ad3-44f8-bafa-78e0bd19db3a",
            "name": "Ethyl ether",
            "url": "https://haz-map.com/Agents/455",
            "category": "agents"
          },
          {
            "type": "name_match",
            "text": "benzaldehyde",
            "confidence": 1.0,
            "uuid": "8546358a-fcfc-48f8-83d6-bf7adb438729",
            "name": "Benzaldehyde",
            "url": "https://haz-map.com/Agents/1884",
            "category": "agents"
          },
          {
            "type": "name_match",
            "text": "protocatechualdehyde",
            "confidence": 1.0,
            "uuid": "9e8d6f0c-4921-41c8-a462-106988a92abc",
            "name": "Protocatechualdehyde",
            "url": "https://haz-map.com/Agents/10997",
            "category": "agents"
          },
          {
            "type": "name_match",
            "text": "vanillin",
            "confidence": 1.0,
            "uuid": "b18209ef-a08d-4dca-8b00-7907c33bb340",
            "name": "Vanillin",
            "url": "https://haz-map.com/Agents/18622",
            "category": "agents"
          }
        ]
      },
      "category": {
        "original_name": "Category",
        "value": "Benzaldehydes",
        "links": [],
        "cross_references": [
          {
            "type": "name_match",
            "text": "aldehydes",
            "confidence": 1.0,
            "uuid": "60ff52e0-7c53-4dd0-99cf-f775cfcfed59",
            "name": "ALDEHYDES",
            "url": "https://haz-map.com/Agents/719",
            "category": "agents"
          },
          {
            "type": "name_match",
            "text": "benzaldehyde",
            "confidence": 1.0,
            "uuid": "8546358a-fcfc-48f8-83d6-bf7adb438729",
            "name": "Benzaldehyde",
            "url": "https://haz-map.com/Agents/1884",
            "category": "agents"
          }
        ]
      },
      "description": {
        "original_name": "Description",
        "value": "Colorless, white, or slightly yellow solid with an intense vanilla odor; [HSDB] White crystalline powder; [MSDSonline]",
        "links": [],
        "cross_references": [
          {
            "type": "name_match",
            "text": "ht",
            "confidence": 1.0,
            "uuid": "764df367-8d53-4a11-81a2-31ccfe122a8d",
            "name": "HT",
            "url": "https://haz-map.com/Agents/2168",
            "category": "agents"
          },
          {
            "type": "fuzzy_match",
            "text": "crystalline",
            "matched_name": "Silica, crystalline",
            "confidence": 0.7061403508771931,
            "uuid": "f920e8a2-46df-41b7-af8d-0368a777251e",
            "category": "agents",
            "url": "https://haz-map.com/Agents/427"
          }
        ]
      },
      "sourcesuses": {
        "original_name": "Sources/Uses",
        "value": "Used in perfumes, flavors, and organic synthesis; [HSDB]",
        "links": [],
        "cross_references": []
      },
      "comments": {
        "original_name": "Comments",
        "value": "A skin irritant; [HSDB] Causes liver injury in high-dose feeding studies of rats; [RTECS] Safe when used as a flavoring agent in food; [JECFA] May cause irritation; [CAMEO] An irritant; [MSDSonline] See \"Vanillin.\"",
        "links": [],
        "cross_references": [
          {
            "type": "name_match",
            "text": "vanillin",
            "confidence": 1.0,
            "uuid": "b18209ef-a08d-4dca-8b00-7907c33bb340",
            "name": "Vanillin",
            "url": "https://haz-map.com/Agents/18622",
            "category": "agents"
          }
        ]
      },
      "biomedical_references": {
        "original_name": "Biomedical References",
        "value": "Search PubMed",
        "links": [
          {
            "text": "Search PubMed",
            "url": "https://www.ncbi.nlm.nih.gov/pubmed?term=Ethyl+vanillin%20AND%20human%5Bmh%5D%20AND%20%28Occupational%20Diseases%20%5Bmh%5D%20OR%20Occupational%20Exposure%20%5Bmh%5D%29%20%20AND%20%28tox%5Bsb%5D%29&cmd=search"
          }
        ],
        "cross_references": []
      }
    },
    "exposure_assessment": {
      "vapor_pressure": {
        "original_name": "Vapor Pressure",
        "value": "1.04E-05 mm Hg",
        "links": [],
        "cross_references": []
      }
    },
    "adverse_effects": {
      "hepatotoxin": {
        "original_name": "Hepatotoxin",
        "value": "Hepatoxic (a) from occupational exposure (secondary effect) or (b) in animal studies or in humans after ingestion",
        "links": [],
        "cross_references": []
      }
    },
    "diseases_processes_and_activities_linked_to_this_agent": {
      "other_information": {
        "original_name": "Other Information",
        "value": "No other related information on this agent was found.",
        "links": [],
        "cross_references": []
      }
    }
  },
  "cross_references": [
    {
      "type": "name_match",
      "text": "phenol",
      "confidence": 1.0,
      "uuid": "03141a03-a7df-4f51-9a37-adde1a7c4b31",
      "name": "Phenol",
      "url": "https://haz-map.com/Agents/84",
      "category": "agents"
    },
    {
      "type": "name_match",
      "text": "ethyl ether",
      "confidence": 1.0,
      "uuid": "c95edddc-9ad3-44f8-bafa-78e0bd19db3a",
      "name": "Ethyl ether",
      "url": "https://haz-map.com/Agents/455",
      "category": "agents"
    },
    {
      "type": "name_match",
      "text": "aldehydes",
      "confidence": 1.0,
      "uuid": "60ff52e0-7c53-4dd0-99cf-f775cfcfed59",
      "name": "ALDEHYDES",
      "url": "https://haz-map.com/Agents/719",
      "category": "agents"
    },
    {
      "type": "name_match",
      "text": "benzaldehyde",
      "confidence": 1.0,
      "uuid": "8546358a-fcfc-48f8-83d6-bf7adb438729",
      "name": "Benzaldehyde",
      "url": "https://haz-map.com/Agents/1884",
      "category": "agents"
    },
    {
      "type": "name_match",
      "text": "ht",
      "confidence": 1.0,
      "uuid": "764df367-8d53-4a11-81a2-31ccfe122a8d",
      "name": "HT",
      "url": "https://haz-map.com/Agents/2168",
      "category": "agents"
    },
    {
      "type": "name_match",
      "text": "ethyl vanillin",
      "confidence": 1.0,
      "uuid": "842191c7-e693-4c79-ab18-d93853923507",
      "name": "Ethyl vanillin",
      "url": "https://haz-map.com/Agents/5260",
      "category": "agents"
    },
    {
      "type": "name_match",
      "text": "protocatechualdehyde",
      "confidence": 1.0,
      "uuid": "9e8d6f0c-4921-41c8-a462-106988a92abc",
      "name": "Protocatechualdehyde",
      "url": "https://haz-map.com/Agents/10997",
      "category": "agents"
    },
    {
      "type": "name_match",
      "text": "vanillin",
      "confidence": 1.0,
      "uuid": "b18209ef-a08d-4dca-8b00-7907c33bb340",
      "name": "Vanillin",
      "url": "https://haz-map.com/Agents/18622",
      "category": "agents"
    },
    {
      "type": "fuzzy_match",
      "text": "crystalline",
      "matched_name": "Silica, crystalline",
      "confidence": 0.7061403508771931,
      "uuid": "f920e8a2-46df-41b7-af8d-0368a777251e",
      "category": "agents",
      "url": "https://haz-map.com/Agents/427"
    }
  ],
  "all_links": [
    {
      "text": "Search PubMed",
      "url": "https://www.ncbi.nlm.nih.gov/pubmed?term=Ethyl+vanillin%20AND%20human%5Bmh%5D%20AND%20%28Occupational%20Diseases%20%5Bmh%5D%20OR%20Occupational%20Exposure%20%5Bmh%5D%29%20%20AND%20%28tox%5Bsb%5D%29&cmd=search"
    }
  ]
}