{
  "metadata": {
    "scraped_from": "https://haz-map.com/Agents/9438",
    "entity_name": "Chloroflurenol-methyl",
    "category": "agents",
    "uuid": "842a65d1-20a1-48e6-ae3f-93e7b8368cac",
    "scraped_at": "2025-07-23T20:36:09.943359"
  },
  "parsed_at": "2025-07-24T01:06:27.578873",
  "title": "Chloroflurenol-methyl",
  "sections": {
    "general": {
      "agent_name": {
        "original_name": "Agent Name",
        "value": "Chloroflurenol-methyl",
        "links": [],
        "cross_references": [
          {
            "type": "name_match",
            "text": "chloroflurenol-methyl",
            "confidence": 1.0,
            "uuid": "842a65d1-20a1-48e6-ae3f-93e7b8368cac",
            "name": "Chloroflurenol-methyl",
            "url": "https://haz-map.com/Agents/9438",
            "category": "agents"
          }
        ]
      },
      "cas_number": {
        "original_name": "CAS Number",
        "value": "2536-31-4",
        "links": [],
        "cross_references": []
      },
      "formula": {
        "original_name": "Formula",
        "value": "C15-H11-Cl-O3",
        "links": [],
        "cross_references": []
      },
      "major_category": {
        "original_name": "Major Category",
        "value": "Pesticides",
        "links": [],
        "cross_references": []
      },
      "synonyms": {
        "original_name": "Synonyms",
        "value": "2-Chlor-9-hydroxyfluoren-carbonsaeure-(9)-methylester [German]; 2-Chloro-9-hydroxy-9-methylcarboxylatefluorene; Break-thru; CF 125; Chlorflurecol-methyl; Chlorflurenol-methyl ester; Chloroflurenol-methyl ester; Curbiset; IT 3456; Maintain A; Maintain CF125; Methyl-2-chloro-9-hydroxyfluorene-9-carboxylate; Morphactin; Multiprop; Posan; 2-Chloro-9-hydroxy-9H-fluorene-9-carboxylic acid, methyl ester; 9H-Fluorene-9-carboxylic acid, 2-chloro-9-hydroxy-, methyl ester; Fluorene-9-carboxylic acid, 2-chloro-9-hydroxy-, methyl ester; [ChemIDplus]",
        "links": [],
        "cross_references": [
          {
            "type": "name_match",
            "text": "carbon",
            "confidence": 1.0,
            "uuid": "b53f8815-ee80-40ef-b4aa-3b000e17dab5",
            "name": "Carbon",
            "url": "https://haz-map.com/Agents/1891",
            "category": "agents"
          },
          {
            "type": "name_match",
            "text": "fluorene",
            "confidence": 1.0,
            "uuid": "4ec22b2a-d246-4dea-a0fe-a9022b632454",
            "name": "Fluorene",
            "url": "https://haz-map.com/Agents/7844",
            "category": "agents"
          },
          {
            "type": "name_match",
            "text": "chloroflurenol-methyl",
            "confidence": 1.0,
            "uuid": "842a65d1-20a1-48e6-ae3f-93e7b8368cac",
            "name": "Chloroflurenol-methyl",
            "url": "https://haz-map.com/Agents/9438",
            "category": "agents"
          },
          {
            "type": "name_match",
            "text": "9-hydroxyfluorene",
            "confidence": 1.0,
            "uuid": "f8c3d07e-6fa0-4e63-bd4c-9c767e906d19",
            "name": "9-Hydroxyfluorene",
            "url": "https://haz-map.com/Agents/11339",
            "category": "agents"
          },
          {
            "type": "name_match",
            "text": "chlorflurenol",
            "confidence": 1.0,
            "uuid": "90624387-355d-4c23-a062-63bb2a807609",
            "name": "Chlorflurenol",
            "url": "https://haz-map.com/Agents/12905",
            "category": "agents"
          }
        ]
      },
      "category": {
        "original_name": "Category",
        "value": "Plant Growth Regulators",
        "links": [],
        "cross_references": []
      },
      "description": {
        "original_name": "Description",
        "value": "Colorless solid; [Aldrich MSDS]",
        "links": [],
        "cross_references": []
      },
      "sourcesuses": {
        "original_name": "Sources/Uses",
        "value": "Used as an herbicide for turf (usually in combination with other herbicides), plant growth regulator (retards growth of grasses, weeds, shrubs, etc.), and to stimulate growth of pineapple starts; [Reference #1]",
        "links": [],
        "cross_references": [
          {
            "type": "name_match",
            "text": "herbicides",
            "confidence": 1.0,
            "uuid": "195f29ae-3f15-47c5-836d-0a9791db3fc1",
            "name": "HERBICIDES",
            "url": "https://haz-map.com/Agents/703",
            "category": "agents"
          }
        ]
      },
      "comments": {
        "original_name": "Comments",
        "value": "Accounts for 65-70% of the technical product; The two minor components are very close in chemical structure, claimed to be inseparable, and manufactured in a fairly consistent ratio; Hematological effects (decreased erythrocytes, hemoglobin, and hematocrit) seen by week 4 in 24-month feeding study of dogs at the highest dose tested (approximately 94 mg/kg/day); These findings supported by hemosiderin deposits in the liver, although hematological changes not seen in other animal studies; [Reference #1] May cause irritation; [Aldrich MSDS]",
        "links": [],
        "cross_references": [
          {
            "type": "name_match",
            "text": "mica",
            "confidence": 1.0,
            "uuid": "433f26f1-c399-4596-b179-ce3843cfd465",
            "name": "Mica",
            "url": "https://haz-map.com/Agents/621",
            "category": "agents"
          }
        ]
      },
      "restricted": {
        "original_name": "Restricted",
        "value": "Not registered in the US for any food or feed applications; [Reference #1]",
        "links": [],
        "cross_references": []
      },
      "reference_link_1": {
        "original_name": "Reference Link #1",
        "value": "EPA Pesticide Chemical Search",
        "links": [
          {
            "text": "EPA Pesticide Chemical Search",
            "url": "https://iaspub.epa.gov/apex/pesticides/f?p=CHEMICALSEARCH:1:"
          }
        ],
        "cross_references": [
          {
            "type": "name_match",
            "text": "mica",
            "confidence": 1.0,
            "uuid": "433f26f1-c399-4596-b179-ce3843cfd465",
            "name": "Mica",
            "url": "https://haz-map.com/Agents/621",
            "category": "agents"
          }
        ]
      },
      "biomedical_references": {
        "original_name": "Biomedical References",
        "value": "Search PubMed",
        "links": [
          {
            "text": "Search PubMed",
            "url": "https://www.ncbi.nlm.nih.gov/pubmed?term=Chloroflurenol-methyl%20AND%20human%5Bmh%5D%20AND%20%28Occupational%20Diseases%20%5Bmh%5D%20OR%20Occupational%20Exposure%20%5Bmh%5D%29%20%20AND%20%28tox%5Bsb%5D%29&cmd=search"
          }
        ],
        "cross_references": []
      }
    },
    "exposure_assessment": {
      "vapor_pressure": {
        "original_name": "Vapor Pressure",
        "value": "1.93E-08 mm Hg",
        "links": [],
        "cross_references": []
      }
    },
    "diseases_processes_and_activities_linked_to_this_agent": {
      "processes": {
        "original_name": "Processes",
        "value": "Industrial Processes with risk of exposure: Farming (Pesticides)",
        "links": [
          {
            "text": "Farming (Pesticides)",
            "url": "https://haz-map.com/Processes/218"
          }
        ],
        "cross_references": [
          {
            "type": "url_match",
            "text": "Farming (Pesticides)",
            "url": "https://haz-map.com/Processes/218",
            "confidence": 1.0,
            "uuid": "cf1e5815-c9bb-4917-82a5-391848170b7e",
            "name": "Farming (Pesticides)",
            "category": "processes"
          }
        ]
      }
    }
  },
  "cross_references": [
    {
      "type": "url_match",
      "text": "Farming (Pesticides)",
      "url": "https://haz-map.com/Processes/218",
      "confidence": 1.0,
      "uuid": "cf1e5815-c9bb-4917-82a5-391848170b7e",
      "name": "Farming (Pesticides)",
      "category": "processes"
    },
    {
      "type": "name_match",
      "text": "mica",
      "confidence": 1.0,
      "uuid": "433f26f1-c399-4596-b179-ce3843cfd465",
      "name": "Mica",
      "url": "https://haz-map.com/Agents/621",
      "category": "agents"
    },
    {
      "type": "name_match",
      "text": "herbicides",
      "confidence": 1.0,
      "uuid": "195f29ae-3f15-47c5-836d-0a9791db3fc1",
      "name": "HERBICIDES",
      "url": "https://haz-map.com/Agents/703",
      "category": "agents"
    },
    {
      "type": "name_match",
      "text": "carbon",
      "confidence": 1.0,
      "uuid": "b53f8815-ee80-40ef-b4aa-3b000e17dab5",
      "name": "Carbon",
      "url": "https://haz-map.com/Agents/1891",
      "category": "agents"
    },
    {
      "type": "name_match",
      "text": "fluorene",
      "confidence": 1.0,
      "uuid": "4ec22b2a-d246-4dea-a0fe-a9022b632454",
      "name": "Fluorene",
      "url": "https://haz-map.com/Agents/7844",
      "category": "agents"
    },
    {
      "type": "name_match",
      "text": "chloroflurenol-methyl",
      "confidence": 1.0,
      "uuid": "842a65d1-20a1-48e6-ae3f-93e7b8368cac",
      "name": "Chloroflurenol-methyl",
      "url": "https://haz-map.com/Agents/9438",
      "category": "agents"
    },
    {
      "type": "name_match",
      "text": "9-hydroxyfluorene",
      "confidence": 1.0,
      "uuid": "f8c3d07e-6fa0-4e63-bd4c-9c767e906d19",
      "name": "9-Hydroxyfluorene",
      "url": "https://haz-map.com/Agents/11339",
      "category": "agents"
    },
    {
      "type": "name_match",
      "text": "chlorflurenol",
      "confidence": 1.0,
      "uuid": "90624387-355d-4c23-a062-63bb2a807609",
      "name": "Chlorflurenol",
      "url": "https://haz-map.com/Agents/12905",
      "category": "agents"
    }
  ],
  "all_links": [
    {
      "text": "EPA Pesticide Chemical Search",
      "url": "https://iaspub.epa.gov/apex/pesticides/f?p=CHEMICALSEARCH:1:"
    },
    {
      "text": "Search PubMed",
      "url": "https://www.ncbi.nlm.nih.gov/pubmed?term=Chloroflurenol-methyl%20AND%20human%5Bmh%5D%20AND%20%28Occupational%20Diseases%20%5Bmh%5D%20OR%20Occupational%20Exposure%20%5Bmh%5D%29%20%20AND%20%28tox%5Bsb%5D%29&cmd=search"
    },
    {
      "text": "Farming (Pesticides)",
      "url": "https://haz-map.com/Processes/218"
    }
  ]
}