{
  "metadata": {
    "scraped_from": "https://haz-map.com/Agents/20036",
    "entity_name": "4'-Fluoroacetophenone",
    "category": "agents",
    "uuid": "8432c70b-41a5-4de7-9fb4-3edfa4632fbb",
    "scraped_at": "2025-07-23T22:17:46.025484"
  },
  "parsed_at": "2025-07-24T01:15:00.545170",
  "title": "4'-Fluoroacetophenone",
  "sections": {
    "general": {
      "agent_name": {
        "original_name": "Agent Name",
        "value": "4'-Fluoroacetophenone",
        "links": [],
        "cross_references": [
          {
            "type": "name_match",
            "text": "acetophenone",
            "confidence": 1.0,
            "uuid": "ea2f7a13-5a06-4d04-88db-0d365933a3ec",
            "name": "Acetophenone",
            "url": "https://haz-map.com/Agents/2193",
            "category": "agents"
          },
          {
            "type": "name_match",
            "text": "4'-fluoroacetophenone",
            "confidence": 1.0,
            "uuid": "8432c70b-41a5-4de7-9fb4-3edfa4632fbb",
            "name": "4'-Fluoroacetophenone",
            "url": "https://haz-map.com/Agents/20036",
            "category": "agents"
          }
        ]
      },
      "cas_number": {
        "original_name": "CAS Number",
        "value": "403-42-9",
        "links": [],
        "cross_references": []
      },
      "formula": {
        "original_name": "Formula",
        "value": "C8-H7-F-O",
        "links": [],
        "cross_references": []
      },
      "major_category": {
        "original_name": "Major Category",
        "value": "Other Classes",
        "links": [],
        "cross_references": []
      },
      "synonyms": {
        "original_name": "Synonyms",
        "value": "4-Fluoroacetophenone; p-Fluoroacetophenone; Acetophenone, 4'-fluoro- (8CI); Ethanone, 1-(4-fluorophenyl)-; [ChemIDplus]",
        "links": [],
        "cross_references": [
          {
            "type": "name_match",
            "text": "acetophenone",
            "confidence": 1.0,
            "uuid": "ea2f7a13-5a06-4d04-88db-0d365933a3ec",
            "name": "Acetophenone",
            "url": "https://haz-map.com/Agents/2193",
            "category": "agents"
          }
        ]
      },
      "category": {
        "original_name": "Category",
        "value": "Aromatic Ketones, Halogenated",
        "links": [],
        "cross_references": []
      },
      "description": {
        "original_name": "Description",
        "value": "Colorless to yellow liquid; [Alfa Aesar MSDS]",
        "links": [],
        "cross_references": []
      },
      "comments": {
        "original_name": "Comments",
        "value": "A skin and strong eye irritant; [Alfa Aesar MSDS] See \"alpha-Chloroacetophenone\" and \"4-Chloroacetophenone.\"",
        "links": [],
        "cross_references": [
          {
            "type": "name_match",
            "text": "alpha-chloroacetophenone",
            "confidence": 1.0,
            "uuid": "dd56f1fb-0e88-4c49-912f-2ff304fa8d18",
            "name": "alpha-Chloroacetophenone",
            "url": "https://haz-map.com/Agents/353",
            "category": "agents"
          },
          {
            "type": "name_match",
            "text": "acetophenone",
            "confidence": 1.0,
            "uuid": "ea2f7a13-5a06-4d04-88db-0d365933a3ec",
            "name": "Acetophenone",
            "url": "https://haz-map.com/Agents/2193",
            "category": "agents"
          },
          {
            "type": "name_match",
            "text": "4-chloroacetophenone",
            "confidence": 1.0,
            "uuid": "0ebf10f4-b42f-412b-a628-493877df08a7",
            "name": "4-Chloroacetophenone",
            "url": "https://haz-map.com/Agents/6504",
            "category": "agents"
          }
        ]
      },
      "biomedical_references": {
        "original_name": "Biomedical References",
        "value": "Search PubMed",
        "links": [
          {
            "text": "Search PubMed",
            "url": "https://www.ncbi.nlm.nih.gov/pubmed?term=4%26%2339%3b-Fluoroacetophenone%20AND%20human%5Bmh%5D%20AND%20%28Occupational%20Diseases%20%5Bmh%5D%20OR%20Occupational%20Exposure%20%5Bmh%5D%29%20%20AND%20%28tox%5Bsb%5D%29&cmd=search"
          }
        ],
        "cross_references": []
      }
    },
    "exposure_assessment": {
      "vapor_pressure": {
        "original_name": "Vapor Pressure",
        "value": "0.753 mm Hg",
        "links": [],
        "cross_references": []
      }
    },
    "diseases_processes_and_activities_linked_to_this_agent": {
      "other_information": {
        "original_name": "Other Information",
        "value": "No other related information on this agent was found.",
        "links": [],
        "cross_references": []
      }
    }
  },
  "cross_references": [
    {
      "type": "name_match",
      "text": "alpha-chloroacetophenone",
      "confidence": 1.0,
      "uuid": "dd56f1fb-0e88-4c49-912f-2ff304fa8d18",
      "name": "alpha-Chloroacetophenone",
      "url": "https://haz-map.com/Agents/353",
      "category": "agents"
    },
    {
      "type": "name_match",
      "text": "acetophenone",
      "confidence": 1.0,
      "uuid": "ea2f7a13-5a06-4d04-88db-0d365933a3ec",
      "name": "Acetophenone",
      "url": "https://haz-map.com/Agents/2193",
      "category": "agents"
    },
    {
      "type": "name_match",
      "text": "4-chloroacetophenone",
      "confidence": 1.0,
      "uuid": "0ebf10f4-b42f-412b-a628-493877df08a7",
      "name": "4-Chloroacetophenone",
      "url": "https://haz-map.com/Agents/6504",
      "category": "agents"
    },
    {
      "type": "name_match",
      "text": "4'-fluoroacetophenone",
      "confidence": 1.0,
      "uuid": "8432c70b-41a5-4de7-9fb4-3edfa4632fbb",
      "name": "4'-Fluoroacetophenone",
      "url": "https://haz-map.com/Agents/20036",
      "category": "agents"
    }
  ],
  "all_links": [
    {
      "text": "Search PubMed",
      "url": "https://www.ncbi.nlm.nih.gov/pubmed?term=4%26%2339%3b-Fluoroacetophenone%20AND%20human%5Bmh%5D%20AND%20%28Occupational%20Diseases%20%5Bmh%5D%20OR%20Occupational%20Exposure%20%5Bmh%5D%29%20%20AND%20%28tox%5Bsb%5D%29&cmd=search"
    }
  ]
}