{
  "metadata": {
    "scraped_from": "https://haz-map.com/Agents/20838",
    "entity_name": "Methyl heptanoate",
    "category": "agents",
    "uuid": "846a38db-7fd3-4e6b-a50a-23f8281bff0e",
    "scraped_at": "2025-07-23T22:32:46.277668"
  },
  "parsed_at": "2025-07-24T00:57:09.589862",
  "title": "Methyl heptanoate",
  "sections": {
    "general": {
      "agent_name": {
        "original_name": "Agent Name",
        "value": "Methyl heptanoate",
        "links": [],
        "cross_references": [
          {
            "type": "name_match",
            "text": "methyl heptanoate",
            "confidence": 1.0,
            "uuid": "846a38db-7fd3-4e6b-a50a-23f8281bff0e",
            "name": "Methyl heptanoate",
            "url": "https://haz-map.com/Agents/20838",
            "category": "agents"
          }
        ]
      },
      "cas_number": {
        "original_name": "CAS Number",
        "value": "106-73-0",
        "links": [],
        "cross_references": []
      },
      "formula": {
        "original_name": "Formula",
        "value": "C8-H16-O2",
        "links": [],
        "cross_references": []
      },
      "major_category": {
        "original_name": "Major Category",
        "value": "Solvents",
        "links": [],
        "cross_references": []
      },
      "synonyms": {
        "original_name": "Synonyms",
        "value": "Heptanoic acid, methyl ester; Methyl enanthate; Methyl heptoate; Methyl heptylate; Methyl heptylate (natural); Methyl n-heptylate; Methyl oenanthylate; [ChemIDplus] UN3272",
        "links": [],
        "cross_references": [
          {
            "type": "name_match",
            "text": "heptanoic acid",
            "confidence": 1.0,
            "uuid": "444139c3-7c22-42b0-9a4d-aa112802f397",
            "name": "Heptanoic acid",
            "url": "https://haz-map.com/Agents/5498",
            "category": "agents"
          }
        ]
      },
      "category": {
        "original_name": "Category",
        "value": "Esters (<C12)",
        "links": [],
        "cross_references": []
      },
      "description": {
        "original_name": "Description",
        "value": "Liquid; [Merck Index] Clear colorless liquid; [Sigma-Aldrich MSDS]",
        "links": [],
        "cross_references": []
      },
      "sourcesuses": {
        "original_name": "Sources/Uses",
        "value": "Used as a flavoring agent; [FDA]",
        "links": [],
        "cross_references": []
      },
      "comments": {
        "original_name": "Comments",
        "value": "Safe when used as a flavoring agent in food; [JECFA] A skin and strong eye irritant; [Sigma-Aldrich MSDS]",
        "links": [],
        "cross_references": []
      },
      "biomedical_references": {
        "original_name": "Biomedical References",
        "value": "Search PubMed",
        "links": [
          {
            "text": "Search PubMed",
            "url": "https://www.ncbi.nlm.nih.gov/pubmed?term=Methyl+heptanoate%20AND%20human%5Bmh%5D%20AND%20%28Occupational%20Diseases%20%5Bmh%5D%20OR%20Occupational%20Exposure%20%5Bmh%5D%29%20%20AND%20%28tox%5Bsb%5D%29&cmd=search"
          }
        ],
        "cross_references": []
      }
    },
    "exposure_assessment": {
      "vapor_pressure": {
        "original_name": "Vapor Pressure",
        "value": "1.56 mm Hg",
        "links": [],
        "cross_references": []
      },
      "explanatory_notes": {
        "original_name": "Explanatory Notes",
        "value": "The Guide in the Emergency Response Guidebook is for \"Esters, n.o.s.\"",
        "links": [],
        "cross_references": []
      }
    },
    "adverse_effects": {
      "neurotoxin": {
        "original_name": "Neurotoxin",
        "value": "Acute solvent syndrome",
        "links": [],
        "cross_references": []
      }
    },
    "diseases_processes_and_activities_linked_to_this_agent": {
      "diseases": {
        "original_name": "Diseases",
        "value": "Occupational diseases associated with exposure to this agent: Solvents, acute toxic effect",
        "links": [
          {
            "text": "Solvents, acute toxic effect",
            "url": "https://haz-map.com/Diseases/326"
          }
        ],
        "cross_references": [
          {
            "type": "url_match",
            "text": "Solvents, acute toxic effect",
            "url": "https://haz-map.com/Diseases/326",
            "confidence": 1.0,
            "uuid": "581e90e3-9d0c-45f0-aa6c-3468c28da129",
            "name": "Solvents, acute toxic effect",
            "category": "diseases"
          }
        ]
      }
    }
  },
  "cross_references": [
    {
      "type": "url_match",
      "text": "Solvents, acute toxic effect",
      "url": "https://haz-map.com/Diseases/326",
      "confidence": 1.0,
      "uuid": "581e90e3-9d0c-45f0-aa6c-3468c28da129",
      "name": "Solvents, acute toxic effect",
      "category": "diseases"
    },
    {
      "type": "name_match",
      "text": "heptanoic acid",
      "confidence": 1.0,
      "uuid": "444139c3-7c22-42b0-9a4d-aa112802f397",
      "name": "Heptanoic acid",
      "url": "https://haz-map.com/Agents/5498",
      "category": "agents"
    },
    {
      "type": "name_match",
      "text": "methyl heptanoate",
      "confidence": 1.0,
      "uuid": "846a38db-7fd3-4e6b-a50a-23f8281bff0e",
      "name": "Methyl heptanoate",
      "url": "https://haz-map.com/Agents/20838",
      "category": "agents"
    }
  ],
  "all_links": [
    {
      "text": "Search PubMed",
      "url": "https://www.ncbi.nlm.nih.gov/pubmed?term=Methyl+heptanoate%20AND%20human%5Bmh%5D%20AND%20%28Occupational%20Diseases%20%5Bmh%5D%20OR%20Occupational%20Exposure%20%5Bmh%5D%29%20%20AND%20%28tox%5Bsb%5D%29&cmd=search"
    },
    {
      "text": "Solvents, acute toxic effect",
      "url": "https://haz-map.com/Diseases/326"
    }
  ]
}