{
  "metadata": {
    "scraped_from": "https://haz-map.com/Agents/7279",
    "entity_name": "Sulphenone",
    "category": "agents",
    "uuid": "84806408-ca46-4550-8764-d83f70c71e98",
    "scraped_at": "2025-07-23T20:11:08.856958"
  },
  "parsed_at": "2025-07-24T00:59:43.212544",
  "title": "Sulphenone",
  "sections": {
    "general": {
      "agent_name": {
        "original_name": "Agent Name",
        "value": "Sulphenone",
        "links": [],
        "cross_references": [
          {
            "type": "name_match",
            "text": "sulphenone",
            "confidence": 1.0,
            "uuid": "84806408-ca46-4550-8764-d83f70c71e98",
            "name": "Sulphenone",
            "url": "https://haz-map.com/Agents/7279",
            "category": "agents"
          }
        ]
      },
      "cas_number": {
        "original_name": "CAS Number",
        "value": "80-00-2",
        "links": [],
        "cross_references": []
      },
      "formula": {
        "original_name": "Formula",
        "value": "C12-H9-Cl-O2-S",
        "links": [],
        "cross_references": []
      },
      "major_category": {
        "original_name": "Major Category",
        "value": "Pesticides",
        "links": [],
        "cross_references": []
      },
      "synonyms": {
        "original_name": "Synonyms",
        "value": "1-Chloro-4-(phenylsulfonyl)benzene; 4-Chlordifenylsulfon [Czech]; 4-Chlorodiphenyl sulfone; 4-Chlorodiphenyl sulphone; 4-Chlorophenyl phenyl sulfone; Benzene, 1-chloro-4-(phenylsulfonyl)-; Compound R-242; R 242; R-242; R-242-B; Sulfenon; Sulfenone; Sulfone, p-chlorophenyl phenyl; Trifenson; p-Chlorophenyl phenyl sulfone; p-Chlorophenyl phenyl sulphone; p-Monochlorophenyl phenyl sulfone; [ChemIDplus]",
        "links": [],
        "cross_references": [
          {
            "type": "name_match",
            "text": "benzene",
            "confidence": 1.0,
            "uuid": "b05124de-5f34-4c14-8f04-ccb20c3780d9",
            "name": "Benzene",
            "url": "https://haz-map.com/Agents/5",
            "category": "agents"
          },
          {
            "type": "name_match",
            "text": "fenson",
            "confidence": 1.0,
            "uuid": "e1d8ed4d-9afa-41ac-800f-f45060d90abc",
            "name": "Fenson",
            "url": "https://haz-map.com/Agents/3839",
            "category": "agents"
          },
          {
            "type": "name_match",
            "text": "diphenyl sulfone",
            "confidence": 1.0,
            "uuid": "b3ab3720-75bd-49a6-9346-c348c73d5e79",
            "name": "Diphenyl sulfone",
            "url": "https://haz-map.com/Agents/8351",
            "category": "agents"
          }
        ]
      },
      "category": {
        "original_name": "Category",
        "value": "Organochlorine Pesticides",
        "links": [],
        "cross_references": [
          {
            "type": "name_match",
            "text": "chlorine",
            "confidence": 1.0,
            "uuid": "8a67a545-61fb-4d71-865e-ff2725a0b999",
            "name": "Chlorine",
            "url": "https://haz-map.com/Agents/89",
            "category": "agents"
          },
          {
            "type": "name_match",
            "text": "chlorin",
            "confidence": 1.0,
            "uuid": "4a566fec-ec7e-42b0-9f14-ec586335e694",
            "name": "Chlorin",
            "url": "https://haz-map.com/Agents/20422",
            "category": "agents"
          }
        ]
      },
      "description": {
        "original_name": "Description",
        "value": "Colorless or white solid; [HSDB] White powder; [MSDSonline]",
        "links": [],
        "cross_references": []
      },
      "sourcesuses": {
        "original_name": "Sources/Uses",
        "value": "Used as acaricide; Not currently registered with the EPA for use in the US; [HSDB]",
        "links": [],
        "cross_references": []
      },
      "comments": {
        "original_name": "Comments",
        "value": "Effects include weakness and weight loss in high-dose oral studies in dogs; [RTECS] An irritant; [MSDSonline]",
        "links": [],
        "cross_references": [
          {
            "type": "name_match",
            "text": "weight loss",
            "confidence": 1.0,
            "uuid": "9b7baca4-cf1b-4e78-99d2-2377fbac8f8b",
            "name": "weight loss",
            "url": "https://haz-map.com/Findings/3",
            "category": "findings"
          },
          {
            "type": "name_match",
            "text": "weakness",
            "confidence": 1.0,
            "uuid": "44bfccd5-0f7a-48f7-b4eb-de9a6ef23064",
            "name": "weakness",
            "url": "https://haz-map.com/Findings/83",
            "category": "findings"
          },
          {
            "type": "name_match",
            "text": "ht",
            "confidence": 1.0,
            "uuid": "764df367-8d53-4a11-81a2-31ccfe122a8d",
            "name": "HT",
            "url": "https://haz-map.com/Agents/2168",
            "category": "agents"
          }
        ]
      },
      "biomedical_references": {
        "original_name": "Biomedical References",
        "value": "Search PubMed",
        "links": [
          {
            "text": "Search PubMed",
            "url": "https://www.ncbi.nlm.nih.gov/pubmed?term=Sulphenone%20AND%20human%5Bmh%5D%20AND%20%28Occupational%20Diseases%20%5Bmh%5D%20OR%20Occupational%20Exposure%20%5Bmh%5D%29%20%20AND%20%28tox%5Bsb%5D%29&cmd=search"
          }
        ],
        "cross_references": []
      }
    },
    "exposure_assessment": {
      "vapor_pressure": {
        "original_name": "Vapor Pressure",
        "value": "3.9E-06 mm Hg",
        "links": [],
        "cross_references": []
      }
    },
    "diseases_processes_and_activities_linked_to_this_agent": {
      "processes": {
        "original_name": "Processes",
        "value": "Industrial Processes with risk of exposure: Farming (Pesticides)",
        "links": [
          {
            "text": "Farming (Pesticides)",
            "url": "https://haz-map.com/Processes/218"
          }
        ],
        "cross_references": [
          {
            "type": "url_match",
            "text": "Farming (Pesticides)",
            "url": "https://haz-map.com/Processes/218",
            "confidence": 1.0,
            "uuid": "cf1e5815-c9bb-4917-82a5-391848170b7e",
            "name": "Farming (Pesticides)",
            "category": "processes"
          }
        ]
      }
    }
  },
  "cross_references": [
    {
      "type": "url_match",
      "text": "Farming (Pesticides)",
      "url": "https://haz-map.com/Processes/218",
      "confidence": 1.0,
      "uuid": "cf1e5815-c9bb-4917-82a5-391848170b7e",
      "name": "Farming (Pesticides)",
      "category": "processes"
    },
    {
      "type": "name_match",
      "text": "weight loss",
      "confidence": 1.0,
      "uuid": "9b7baca4-cf1b-4e78-99d2-2377fbac8f8b",
      "name": "weight loss",
      "url": "https://haz-map.com/Findings/3",
      "category": "findings"
    },
    {
      "type": "name_match",
      "text": "weakness",
      "confidence": 1.0,
      "uuid": "44bfccd5-0f7a-48f7-b4eb-de9a6ef23064",
      "name": "weakness",
      "url": "https://haz-map.com/Findings/83",
      "category": "findings"
    },
    {
      "type": "name_match",
      "text": "benzene",
      "confidence": 1.0,
      "uuid": "b05124de-5f34-4c14-8f04-ccb20c3780d9",
      "name": "Benzene",
      "url": "https://haz-map.com/Agents/5",
      "category": "agents"
    },
    {
      "type": "name_match",
      "text": "chlorine",
      "confidence": 1.0,
      "uuid": "8a67a545-61fb-4d71-865e-ff2725a0b999",
      "name": "Chlorine",
      "url": "https://haz-map.com/Agents/89",
      "category": "agents"
    },
    {
      "type": "name_match",
      "text": "ht",
      "confidence": 1.0,
      "uuid": "764df367-8d53-4a11-81a2-31ccfe122a8d",
      "name": "HT",
      "url": "https://haz-map.com/Agents/2168",
      "category": "agents"
    },
    {
      "type": "name_match",
      "text": "fenson",
      "confidence": 1.0,
      "uuid": "e1d8ed4d-9afa-41ac-800f-f45060d90abc",
      "name": "Fenson",
      "url": "https://haz-map.com/Agents/3839",
      "category": "agents"
    },
    {
      "type": "name_match",
      "text": "sulphenone",
      "confidence": 1.0,
      "uuid": "84806408-ca46-4550-8764-d83f70c71e98",
      "name": "Sulphenone",
      "url": "https://haz-map.com/Agents/7279",
      "category": "agents"
    },
    {
      "type": "name_match",
      "text": "diphenyl sulfone",
      "confidence": 1.0,
      "uuid": "b3ab3720-75bd-49a6-9346-c348c73d5e79",
      "name": "Diphenyl sulfone",
      "url": "https://haz-map.com/Agents/8351",
      "category": "agents"
    },
    {
      "type": "name_match",
      "text": "chlorin",
      "confidence": 1.0,
      "uuid": "4a566fec-ec7e-42b0-9f14-ec586335e694",
      "name": "Chlorin",
      "url": "https://haz-map.com/Agents/20422",
      "category": "agents"
    }
  ],
  "all_links": [
    {
      "text": "Search PubMed",
      "url": "https://www.ncbi.nlm.nih.gov/pubmed?term=Sulphenone%20AND%20human%5Bmh%5D%20AND%20%28Occupational%20Diseases%20%5Bmh%5D%20OR%20Occupational%20Exposure%20%5Bmh%5D%29%20%20AND%20%28tox%5Bsb%5D%29&cmd=search"
    },
    {
      "text": "Farming (Pesticides)",
      "url": "https://haz-map.com/Processes/218"
    }
  ]
}