{
  "metadata": {
    "scraped_from": "https://haz-map.com/Agents/7560",
    "entity_name": "3-(Triethoxysilyl)propylamine",
    "category": "agents",
    "uuid": "84c23e56-2340-48ac-877e-6599c11d930e",
    "scraped_at": "2025-07-23T20:14:09.849054"
  },
  "parsed_at": "2025-07-24T00:52:02.816123",
  "title": "3-(Triethoxysilyl)propylamine",
  "sections": {
    "general": {
      "agent_name": {
        "original_name": "Agent Name",
        "value": "3-(Triethoxysilyl)propylamine",
        "links": [],
        "cross_references": [
          {
            "type": "name_match",
            "text": "3-(triethoxysilyl)propylamine",
            "confidence": 1.0,
            "uuid": "84c23e56-2340-48ac-877e-6599c11d930e",
            "name": "3-(Triethoxysilyl)propylamine",
            "url": "https://haz-map.com/Agents/7560",
            "category": "agents"
          }
        ]
      },
      "cas_number": {
        "original_name": "CAS Number",
        "value": "919-30-2",
        "links": [],
        "cross_references": []
      },
      "formula": {
        "original_name": "Formula",
        "value": "C9-H23-N-O3-Si",
        "links": [],
        "cross_references": []
      },
      "major_category": {
        "original_name": "Major Category",
        "value": "Toxic Gases & Vapors",
        "links": [],
        "cross_references": []
      },
      "synonyms": {
        "original_name": "Synonyms",
        "value": "gamma-Aminopropyltriethoxysilane; (3-Aminopropyl)triethoxysilane; (gamma-Aminopropyl)triethoxysilane; 1-Propanamine, 3-(triethoxysilyl)-; 3-(Triethoxysilyl)-1-propanamine; 3-Aminopropyltriethoxysilane; A 1100; A 1112; AGM-9; APTES; NUCA 1100; Propylamine, 3-(triethoxysilyl)-; Silane 1100; Silane AMG-9; Silane, (3-aminopropyl)triethoxy-; Silane, gamma-aminopropyltriethoxy-; Silicone A-1100; Triethoxy(3-aminopropyl)silane; UC-A 1100; [ChemIDplus]",
        "links": [],
        "cross_references": [
          {
            "type": "name_match",
            "text": "silicon",
            "confidence": 1.0,
            "uuid": "443f4405-7a1f-47db-bf43-809557f77483",
            "name": "Silicon",
            "url": "https://haz-map.com/Agents/623",
            "category": "agents"
          },
          {
            "type": "name_match",
            "text": "triethoxysilane",
            "confidence": 1.0,
            "uuid": "cc2d9578-700b-45fc-a3d6-bd7b11d4c02b",
            "name": "Triethoxysilane",
            "url": "https://haz-map.com/Agents/7558",
            "category": "agents"
          }
        ]
      },
      "category": {
        "original_name": "Category",
        "value": "Other Toxic Gases & Vapors",
        "links": [],
        "cross_references": []
      },
      "description": {
        "original_name": "Description",
        "value": "Liquid; [HSDB] Colorless or light yellow liquid with a fishy odor; [CHEMINFO] Clear colorless liquid; [MSDSonline]",
        "links": [],
        "cross_references": [
          {
            "type": "name_match",
            "text": "ht",
            "confidence": 1.0,
            "uuid": "764df367-8d53-4a11-81a2-31ccfe122a8d",
            "name": "HT",
            "url": "https://haz-map.com/Agents/2168",
            "category": "agents"
          }
        ]
      },
      "sourcesuses": {
        "original_name": "Sources/Uses",
        "value": "Used to size glass fibers for making laminates and to make non-thrombogenic dental and orthopedic materials; [HSDB] Used as coupling agent and adhesion promoter in fiberglass, adhesives, sealants, foundry resins, and coatings; [eChemPortal: SIDSUNEP]",
        "links": [],
        "cross_references": []
      },
      "comments": {
        "original_name": "Comments",
        "value": "The kidney is the target organ after oral and dermal exposure of animals; Inhalation exposures for 6 hours to saturated vapor did not kill any rats tested; Skin sensitization testing of guinea pigs was positive; [OECD SIDS: 3-Aminopropyltriethoxysilane - 2003] Reacts with water or moisture producing flammable and toxic chemicals; [CHEMINFO] A severe skin and eye irritant that can cause corrosive injuries; [eChemPortal: SIDSUNEP] Corrosive to skin and eyes; [eChemPortal: ERMA] Can cause burns; [eChemPortal: ESIS] A corrosive substance that can cause injury to the skin, eyes, and respiratory tract; Inhalation may cause chemical pneumonitis and pulmonary edema; Targets nerves, liver, and kidneys; [MSDSonline]",
        "links": [],
        "cross_references": [
          {
            "type": "name_match",
            "text": "pulmonary edema",
            "confidence": 1.0,
            "uuid": "ee39114e-c922-40fd-9588-a532de404962",
            "name": "pulmonary edema",
            "url": "https://haz-map.com/Findings/186",
            "category": "findings"
          },
          {
            "type": "name_match",
            "text": "burn",
            "confidence": 1.0,
            "uuid": "63665de5-6376-4918-8dbf-4c10c4d63837",
            "name": "burn",
            "url": "https://haz-map.com/Findings/204",
            "category": "findings"
          },
          {
            "type": "name_match",
            "text": "mica",
            "confidence": 1.0,
            "uuid": "433f26f1-c399-4596-b179-ce3843cfd465",
            "name": "Mica",
            "url": "https://haz-map.com/Agents/621",
            "category": "agents"
          },
          {
            "type": "name_match",
            "text": "triethoxysilane",
            "confidence": 1.0,
            "uuid": "cc2d9578-700b-45fc-a3d6-bd7b11d4c02b",
            "name": "Triethoxysilane",
            "url": "https://haz-map.com/Agents/7558",
            "category": "agents"
          },
          {
            "type": "name_match",
            "text": "water",
            "confidence": 1.0,
            "uuid": "6f2a7557-dfd2-49bc-9b4b-a93cd8e225d4",
            "name": "Water",
            "url": "https://haz-map.com/Agents/18668",
            "category": "agents"
          }
        ]
      },
      "biomedical_references": {
        "original_name": "Biomedical References",
        "value": "Search PubMed",
        "links": [
          {
            "text": "Search PubMed",
            "url": "https://www.ncbi.nlm.nih.gov/pubmed?term=3-(Triethoxysilyl)propylamine%20AND%20human%5Bmh%5D%20AND%20%28Occupational%20Diseases%20%5Bmh%5D%20OR%20Occupational%20Exposure%20%5Bmh%5D%29%20%20AND%20%28tox%5Bsb%5D%29&cmd=search"
          }
        ],
        "cross_references": []
      }
    },
    "exposure_assessment": {
      "vapor_pressure": {
        "original_name": "Vapor Pressure",
        "value": "0.015 mm Hg",
        "links": [],
        "cross_references": []
      }
    },
    "adverse_effects": {
      "toxic_pneumonitis": {
        "original_name": "Toxic Pneumonitis",
        "value": "Yes",
        "links": [],
        "cross_references": []
      },
      "hepatotoxin": {
        "original_name": "Hepatotoxin",
        "value": "Hepatoxic (a) from occupational exposure (secondary effect) or (b) in animal studies or in humans after ingestion",
        "links": [],
        "cross_references": []
      },
      "nephrotoxin": {
        "original_name": "Nephrotoxin",
        "value": "Yes",
        "links": [],
        "cross_references": []
      },
      "dermatotoxin": {
        "original_name": "Dermatotoxin",
        "value": "Skin burns",
        "links": [],
        "cross_references": [
          {
            "type": "name_match",
            "text": "burn",
            "confidence": 1.0,
            "uuid": "63665de5-6376-4918-8dbf-4c10c4d63837",
            "name": "burn",
            "url": "https://haz-map.com/Findings/204",
            "category": "findings"
          }
        ]
      }
    },
    "diseases_processes_and_activities_linked_to_this_agent": {
      "processes": {
        "original_name": "Processes",
        "value": "Industrial Processes with risk of exposure: Glass Manufacturing Molding and Core Making Working with Glues and Adhesives",
        "links": [
          {
            "text": "Glass Manufacturing",
            "url": "https://haz-map.com/Processes/260"
          },
          {
            "text": "Molding and Core Making",
            "url": "https://haz-map.com/Processes/22"
          },
          {
            "text": "Working with Glues and Adhesives",
            "url": "https://haz-map.com/Processes/155"
          }
        ],
        "cross_references": [
          {
            "type": "url_match",
            "text": "Molding and Core Making",
            "url": "https://haz-map.com/Processes/22",
            "confidence": 1.0,
            "uuid": "bacf6365-dcf3-4976-b887-a3a0e3fd8345",
            "name": "Molding and Core Making",
            "category": "processes"
          },
          {
            "type": "url_match",
            "text": "Working with Glues and Adhesives",
            "url": "https://haz-map.com/Processes/155",
            "confidence": 1.0,
            "uuid": "acb9084f-52e8-4687-bd6a-bced94bda834",
            "name": "Working with Glues and Adhesives",
            "category": "processes"
          }
        ]
      }
    }
  },
  "cross_references": [
    {
      "type": "url_match",
      "text": "Molding and Core Making",
      "url": "https://haz-map.com/Processes/22",
      "confidence": 1.0,
      "uuid": "bacf6365-dcf3-4976-b887-a3a0e3fd8345",
      "name": "Molding and Core Making",
      "category": "processes"
    },
    {
      "type": "url_match",
      "text": "Working with Glues and Adhesives",
      "url": "https://haz-map.com/Processes/155",
      "confidence": 1.0,
      "uuid": "acb9084f-52e8-4687-bd6a-bced94bda834",
      "name": "Working with Glues and Adhesives",
      "category": "processes"
    },
    {
      "type": "name_match",
      "text": "pulmonary edema",
      "confidence": 1.0,
      "uuid": "ee39114e-c922-40fd-9588-a532de404962",
      "name": "pulmonary edema",
      "url": "https://haz-map.com/Findings/186",
      "category": "findings"
    },
    {
      "type": "name_match",
      "text": "burn",
      "confidence": 1.0,
      "uuid": "63665de5-6376-4918-8dbf-4c10c4d63837",
      "name": "burn",
      "url": "https://haz-map.com/Findings/204",
      "category": "findings"
    },
    {
      "type": "name_match",
      "text": "mica",
      "confidence": 1.0,
      "uuid": "433f26f1-c399-4596-b179-ce3843cfd465",
      "name": "Mica",
      "url": "https://haz-map.com/Agents/621",
      "category": "agents"
    },
    {
      "type": "name_match",
      "text": "silicon",
      "confidence": 1.0,
      "uuid": "443f4405-7a1f-47db-bf43-809557f77483",
      "name": "Silicon",
      "url": "https://haz-map.com/Agents/623",
      "category": "agents"
    },
    {
      "type": "name_match",
      "text": "ht",
      "confidence": 1.0,
      "uuid": "764df367-8d53-4a11-81a2-31ccfe122a8d",
      "name": "HT",
      "url": "https://haz-map.com/Agents/2168",
      "category": "agents"
    },
    {
      "type": "name_match",
      "text": "triethoxysilane",
      "confidence": 1.0,
      "uuid": "cc2d9578-700b-45fc-a3d6-bd7b11d4c02b",
      "name": "Triethoxysilane",
      "url": "https://haz-map.com/Agents/7558",
      "category": "agents"
    },
    {
      "type": "name_match",
      "text": "3-(triethoxysilyl)propylamine",
      "confidence": 1.0,
      "uuid": "84c23e56-2340-48ac-877e-6599c11d930e",
      "name": "3-(Triethoxysilyl)propylamine",
      "url": "https://haz-map.com/Agents/7560",
      "category": "agents"
    },
    {
      "type": "name_match",
      "text": "water",
      "confidence": 1.0,
      "uuid": "6f2a7557-dfd2-49bc-9b4b-a93cd8e225d4",
      "name": "Water",
      "url": "https://haz-map.com/Agents/18668",
      "category": "agents"
    }
  ],
  "all_links": [
    {
      "text": "Search PubMed",
      "url": "https://www.ncbi.nlm.nih.gov/pubmed?term=3-(Triethoxysilyl)propylamine%20AND%20human%5Bmh%5D%20AND%20%28Occupational%20Diseases%20%5Bmh%5D%20OR%20Occupational%20Exposure%20%5Bmh%5D%29%20%20AND%20%28tox%5Bsb%5D%29&cmd=search"
    },
    {
      "text": "Glass Manufacturing",
      "url": "https://haz-map.com/Processes/260"
    },
    {
      "text": "Molding and Core Making",
      "url": "https://haz-map.com/Processes/22"
    },
    {
      "text": "Working with Glues and Adhesives",
      "url": "https://haz-map.com/Processes/155"
    }
  ]
}