{
  "metadata": {
    "scraped_from": "https://haz-map.com/Agents/6489",
    "entity_name": "Oxydisulfoton",
    "category": "agents",
    "uuid": "84c56b0a-0bb6-40be-bec2-e50492638a14",
    "scraped_at": "2025-07-23T20:02:28.751054"
  },
  "parsed_at": "2025-07-24T00:55:54.089532",
  "title": "Oxydisulfoton",
  "sections": {
    "general": {
      "agent_name": {
        "original_name": "Agent Name",
        "value": "Oxydisulfoton",
        "links": [],
        "cross_references": [
          {
            "type": "name_match",
            "text": "disulfoton",
            "confidence": 1.0,
            "uuid": "f7bd037e-0594-4b73-afc1-e26f32067b0a",
            "name": "Disulfoton",
            "url": "https://haz-map.com/Agents/266",
            "category": "agents"
          },
          {
            "type": "name_match",
            "text": "oxydisulfoton",
            "confidence": 1.0,
            "uuid": "84c56b0a-0bb6-40be-bec2-e50492638a14",
            "name": "Oxydisulfoton",
            "url": "https://haz-map.com/Agents/6489",
            "category": "agents"
          }
        ]
      },
      "cas_number": {
        "original_name": "CAS Number",
        "value": "2497-07-6",
        "links": [],
        "cross_references": []
      },
      "formula": {
        "original_name": "Formula",
        "value": "C8-H19-O3-P-S3",
        "links": [],
        "cross_references": []
      },
      "major_category": {
        "original_name": "Major Category",
        "value": "Pesticides",
        "links": [],
        "cross_references": []
      },
      "synonyms": {
        "original_name": "Synonyms",
        "value": "DEPD; Diston S; Disulfoton sulfoxide; Disyston S; Disyston sulfoxide; Disyston sulphoxide; Dithiophosphate de O,O-diethyle et de S-(2-ethylsulfinyl-ethyle) [French]; Ditiofosfato de O,O-dietilo y de S-(2-etilsulfinil)etilo [Spanish]; Ditiofosfato de O,O-dietiloe de S-(2-etilsulfiniletilo) [Portugese]; Ditiofosfato di O,O-dietile et di S-2-(etilsulfinil)-etile [Italian]; Ethylthiometon sulfoxide; L 16/184; O,O-Diethyl S-(2-(ethylsulfinyl)ethyl) phosphorodithioate; O,O-Diethyl S-2-((ethylsulfinyl)ethyl)phosphorodithioate; O,O-Diethyl-S-((ethylsulfinyl)ethyl)phosphorodithioate; O,O-Diethyl-S-(2-(ethylsulfinyl)-ethyl)dithiofosfaat [Netherlands]; O,O-Diethyl-S-2-ethylsulfinyl-ethyl-dithiophosphat (Deutsch); Oxidissulfotao [Portugese]; Oxidisulfoton [Spanish]; Oxydisulfoton [ISO]; Phosphorodithioic acid, O,O-diethyl S-(2-(ethylsulfinyl)ethyl) ester; S 309; [ChemIDplus]",
        "links": [],
        "cross_references": [
          {
            "type": "name_match",
            "text": "disulfoton",
            "confidence": 1.0,
            "uuid": "f7bd037e-0594-4b73-afc1-e26f32067b0a",
            "name": "Disulfoton",
            "url": "https://haz-map.com/Agents/266",
            "category": "agents"
          },
          {
            "type": "name_match",
            "text": "tali",
            "confidence": 1.0,
            "uuid": "8c3a0f99-2143-4122-b539-ec5cc49596b0",
            "name": "Tali",
            "url": "https://haz-map.com/Agents/1128",
            "category": "agents"
          },
          {
            "type": "name_match",
            "text": "oxydisulfoton",
            "confidence": 1.0,
            "uuid": "84c56b0a-0bb6-40be-bec2-e50492638a14",
            "name": "Oxydisulfoton",
            "url": "https://haz-map.com/Agents/6489",
            "category": "agents"
          },
          {
            "type": "name_match",
            "text": "thiometon",
            "confidence": 1.0,
            "uuid": "1c6b1449-fc89-43ed-92d7-96ca725f9b58",
            "name": "Thiometon",
            "url": "https://haz-map.com/Agents/7415",
            "category": "agents"
          }
        ]
      },
      "category": {
        "original_name": "Category",
        "value": "Organophosphate Insecticides",
        "links": [],
        "cross_references": []
      },
      "description": {
        "original_name": "Description",
        "value": "Liquid; [CAMEO] Colorless liquid; [MSDSonline]",
        "links": [],
        "cross_references": []
      },
      "sourcesuses": {
        "original_name": "Sources/Uses",
        "value": "Used as systemic insecticide and acaricide; [HSDB]",
        "links": [],
        "cross_references": []
      },
      "comments": {
        "original_name": "Comments",
        "value": "A highly toxic cholinesterase inhibitor; [CAMEO] “The average of two baseline respective cholinesterase activity determinations three days apart, with no exposures to enzyme inhibiting pesticides for at least 30 days, is recommended for each worker prior to exposure to cholinesterase inhibitors because of large inter-individual differences in published baseline values. To be established at least once a year. Removal from workplace exposures is recommended until the cholinesterase activity returns to within 20% of baseline.” [TLVs and BEIs]",
        "links": [],
        "cross_references": [
          {
            "type": "name_match",
            "text": "choline",
            "confidence": 1.0,
            "uuid": "a21a71e9-9d67-4563-9da2-98c4dcb1b766",
            "name": "Choline",
            "url": "https://haz-map.com/Agents/12978",
            "category": "agents"
          }
        ]
      },
      "biomedical_references": {
        "original_name": "Biomedical References",
        "value": "Search PubMed",
        "links": [
          {
            "text": "Search PubMed",
            "url": "https://www.ncbi.nlm.nih.gov/pubmed?term=Oxydisulfoton%20AND%20human%5Bmh%5D%20AND%20%28Occupational%20Diseases%20%5Bmh%5D%20OR%20Occupational%20Exposure%20%5Bmh%5D%29%20%20AND%20%28tox%5Bsb%5D%29&cmd=search"
          }
        ],
        "cross_references": []
      }
    },
    "exposure_assessment": {
      "bei": {
        "original_name": "BEI",
        "value": "Acetylcholinesterase activity in red blood cells = 70% of individual's baseline; Butylcholinesterase activity in serum or plasma = 60% of individual's baseline; Sample at end of shift; [TLVs and BEIs]",
        "links": [],
        "cross_references": [
          {
            "type": "name_match",
            "text": "choline",
            "confidence": 1.0,
            "uuid": "a21a71e9-9d67-4563-9da2-98c4dcb1b766",
            "name": "Choline",
            "url": "https://haz-map.com/Agents/12978",
            "category": "agents"
          }
        ]
      },
      "vapor_pressure": {
        "original_name": "Vapor Pressure",
        "value": "3.65E-05 mm Hg",
        "links": [],
        "cross_references": []
      }
    },
    "adverse_effects": {
      "other_poison": {
        "original_name": "Other Poison",
        "value": "Organophosphate",
        "links": [],
        "cross_references": []
      }
    },
    "diseases_processes_and_activities_linked_to_this_agent": {
      "diseases": {
        "original_name": "Diseases",
        "value": "Occupational diseases associated with exposure to this agent: Organophosphates & carbamates, acute poisoning",
        "links": [
          {
            "text": "Organophosphates & carbamates, acute poisoning",
            "url": "https://haz-map.com/Diseases/66"
          }
        ],
        "cross_references": [
          {
            "type": "url_match",
            "text": "Organophosphates & carbamates, acute poisoning",
            "url": "https://haz-map.com/Diseases/66",
            "confidence": 1.0,
            "uuid": "aea2cba9-fb36-463f-84d8-b819551bb327",
            "name": "Organophosphates & carbamates, acute poisoning",
            "category": "diseases"
          },
          {
            "type": "name_match",
            "text": "organophosphates",
            "confidence": 1.0,
            "uuid": "8d2d239c-20f9-4f02-9916-5e7667b9990c",
            "name": "ORGANOPHOSPHATES",
            "url": "https://haz-map.com/Agents/702",
            "category": "agents"
          }
        ]
      },
      "processes": {
        "original_name": "Processes",
        "value": "Industrial Processes with risk of exposure: Farming (Pesticides)",
        "links": [
          {
            "text": "Farming (Pesticides)",
            "url": "https://haz-map.com/Processes/218"
          }
        ],
        "cross_references": [
          {
            "type": "url_match",
            "text": "Farming (Pesticides)",
            "url": "https://haz-map.com/Processes/218",
            "confidence": 1.0,
            "uuid": "cf1e5815-c9bb-4917-82a5-391848170b7e",
            "name": "Farming (Pesticides)",
            "category": "processes"
          }
        ]
      }
    }
  },
  "cross_references": [
    {
      "type": "url_match",
      "text": "Organophosphates & carbamates, acute poisoning",
      "url": "https://haz-map.com/Diseases/66",
      "confidence": 1.0,
      "uuid": "aea2cba9-fb36-463f-84d8-b819551bb327",
      "name": "Organophosphates & carbamates, acute poisoning",
      "category": "diseases"
    },
    {
      "type": "url_match",
      "text": "Farming (Pesticides)",
      "url": "https://haz-map.com/Processes/218",
      "confidence": 1.0,
      "uuid": "cf1e5815-c9bb-4917-82a5-391848170b7e",
      "name": "Farming (Pesticides)",
      "category": "processes"
    },
    {
      "type": "name_match",
      "text": "disulfoton",
      "confidence": 1.0,
      "uuid": "f7bd037e-0594-4b73-afc1-e26f32067b0a",
      "name": "Disulfoton",
      "url": "https://haz-map.com/Agents/266",
      "category": "agents"
    },
    {
      "type": "name_match",
      "text": "organophosphates",
      "confidence": 1.0,
      "uuid": "8d2d239c-20f9-4f02-9916-5e7667b9990c",
      "name": "ORGANOPHOSPHATES",
      "url": "https://haz-map.com/Agents/702",
      "category": "agents"
    },
    {
      "type": "name_match",
      "text": "tali",
      "confidence": 1.0,
      "uuid": "8c3a0f99-2143-4122-b539-ec5cc49596b0",
      "name": "Tali",
      "url": "https://haz-map.com/Agents/1128",
      "category": "agents"
    },
    {
      "type": "name_match",
      "text": "oxydisulfoton",
      "confidence": 1.0,
      "uuid": "84c56b0a-0bb6-40be-bec2-e50492638a14",
      "name": "Oxydisulfoton",
      "url": "https://haz-map.com/Agents/6489",
      "category": "agents"
    },
    {
      "type": "name_match",
      "text": "thiometon",
      "confidence": 1.0,
      "uuid": "1c6b1449-fc89-43ed-92d7-96ca725f9b58",
      "name": "Thiometon",
      "url": "https://haz-map.com/Agents/7415",
      "category": "agents"
    },
    {
      "type": "name_match",
      "text": "choline",
      "confidence": 1.0,
      "uuid": "a21a71e9-9d67-4563-9da2-98c4dcb1b766",
      "name": "Choline",
      "url": "https://haz-map.com/Agents/12978",
      "category": "agents"
    }
  ],
  "all_links": [
    {
      "text": "Search PubMed",
      "url": "https://www.ncbi.nlm.nih.gov/pubmed?term=Oxydisulfoton%20AND%20human%5Bmh%5D%20AND%20%28Occupational%20Diseases%20%5Bmh%5D%20OR%20Occupational%20Exposure%20%5Bmh%5D%29%20%20AND%20%28tox%5Bsb%5D%29&cmd=search"
    },
    {
      "text": "Organophosphates & carbamates, acute poisoning",
      "url": "https://haz-map.com/Diseases/66"
    },
    {
      "text": "Farming (Pesticides)",
      "url": "https://haz-map.com/Processes/218"
    }
  ]
}