{
  "metadata": {
    "scraped_from": "https://haz-map.com/Agents/3834",
    "entity_name": "Estragole",
    "category": "agents",
    "uuid": "84d2c178-792b-4f07-b622-a395ff06a7a1",
    "scraped_at": "2025-07-23T19:33:33.550324"
  },
  "parsed_at": "2025-07-24T01:02:37.652953",
  "title": "Estragole",
  "sections": {
    "general": {
      "agent_name": {
        "original_name": "Agent Name",
        "value": "Estragole",
        "links": [],
        "cross_references": [
          {
            "type": "name_match",
            "text": "estragole",
            "confidence": 1.0,
            "uuid": "84d2c178-792b-4f07-b622-a395ff06a7a1",
            "name": "Estragole",
            "url": "https://haz-map.com/Agents/3834",
            "category": "agents"
          }
        ]
      },
      "alternative_name": {
        "original_name": "Alternative Name",
        "value": "1-Methoxy-4-(2-propenyl)benzene",
        "links": [],
        "cross_references": [
          {
            "type": "name_match",
            "text": "benzene",
            "confidence": 1.0,
            "uuid": "b05124de-5f34-4c14-8f04-ccb20c3780d9",
            "name": "Benzene",
            "url": "https://haz-map.com/Agents/5",
            "category": "agents"
          }
        ]
      },
      "cas_number": {
        "original_name": "CAS Number",
        "value": "140-67-0",
        "links": [],
        "cross_references": []
      },
      "formula": {
        "original_name": "Formula",
        "value": "C10-H12-O",
        "links": [],
        "cross_references": []
      },
      "major_category": {
        "original_name": "Major Category",
        "value": "Biological Agents",
        "links": [],
        "cross_references": []
      },
      "synonyms": {
        "original_name": "Synonyms",
        "value": "1-Methoxy-4-(2-propenyl)benzene; 1-Allyl-4-methoxybenzene; 1-Methoxy-4-(2-propen-1-yl)benzene; 3-(p-Methoxyphenyl)propene; 4-Allyl-1-methoxybenzene; 4-Allylanisole; 4-Allylmethoxybenzene; 4-Methoxyallylbenzene; Allylphenyl methyl ether, p-; Anisole, p-allyl-; Benzene, 1-methoxy-4-(2-propenyl)-; Chavicol methyl ether; Chavicol, O-methyl-; Chavicyl methyl ether; Esdragol; Esdragole; Esdragon; Estragole (natural); Isoanethole; Methyl chavicol; Tarragon; Terragon; p-Allylanisole; p-Allylmethoxybenzene; p-Methoxyallylbenzene; [ChemIDplus]",
        "links": [],
        "cross_references": [
          {
            "type": "name_match",
            "text": "benzene",
            "confidence": 1.0,
            "uuid": "b05124de-5f34-4c14-8f04-ccb20c3780d9",
            "name": "Benzene",
            "url": "https://haz-map.com/Agents/5",
            "category": "agents"
          },
          {
            "type": "name_match",
            "text": "ethyl ether",
            "confidence": 1.0,
            "uuid": "c95edddc-9ad3-44f8-bafa-78e0bd19db3a",
            "name": "Ethyl ether",
            "url": "https://haz-map.com/Agents/455",
            "category": "agents"
          },
          {
            "type": "name_match",
            "text": "anethole",
            "confidence": 1.0,
            "uuid": "85848fad-ea86-450c-95ed-02a8b0a58f83",
            "name": "Anethole",
            "url": "https://haz-map.com/Agents/3697",
            "category": "agents"
          },
          {
            "type": "name_match",
            "text": "anisole",
            "confidence": 1.0,
            "uuid": "f122d940-2dba-441c-9dbf-c185355d4cb0",
            "name": "Anisole",
            "url": "https://haz-map.com/Agents/3708",
            "category": "agents"
          },
          {
            "type": "name_match",
            "text": "estragole",
            "confidence": 1.0,
            "uuid": "84d2c178-792b-4f07-b622-a395ff06a7a1",
            "name": "Estragole",
            "url": "https://haz-map.com/Agents/3834",
            "category": "agents"
          },
          {
            "type": "name_match",
            "text": "allylbenzene",
            "confidence": 1.0,
            "uuid": "b007b983-fc24-44de-abf2-227c514f1069",
            "name": "Allylbenzene",
            "url": "https://haz-map.com/Agents/9700",
            "category": "agents"
          }
        ]
      },
      "category": {
        "original_name": "Category",
        "value": "Plant Oils and Extracts",
        "links": [],
        "cross_references": []
      },
      "description": {
        "original_name": "Description",
        "value": "Colorless liquid with an odor of anise; [Hawley]",
        "links": [],
        "cross_references": []
      },
      "sourcesuses": {
        "original_name": "Sources/Uses",
        "value": "Naturally occurs in tarragon oil, basil oils, anise bark oil, and others; [Hawley] Used as a flavoring ingredient and a fragrance in perfumes and soaps; [HSDB]",
        "links": [],
        "cross_references": []
      },
      "comments": {
        "original_name": "Comments",
        "value": "Emergency treatment: \"Essential oils\"; Essential oils can cause CNS depression and aspiration pneumonia after ingestion; Commercial products of essential oils usually contain concentrations of 1% to 20%, and a potentially toxic exposure is 5-15 mL; No sensitization when tested at 3% in petrolatum on 25 volunteers; Minor liver damage found in rats fed 605 mg/kg/day for four days; [HSDB] Moderate irritant on rabbit skin; Causes somnolence and coma at lethal doses in rats; [RTECS];",
        "links": [],
        "cross_references": [
          {
            "type": "name_match",
            "text": "petrolatum",
            "confidence": 1.0,
            "uuid": "3aa16d92-e402-405d-86f0-246be9009b2b",
            "name": "Petrolatum",
            "url": "https://haz-map.com/Agents/6605",
            "category": "agents"
          }
        ]
      },
      "biomedical_references": {
        "original_name": "Biomedical References",
        "value": "Search PubMed",
        "links": [
          {
            "text": "Search PubMed",
            "url": "https://www.ncbi.nlm.nih.gov/pubmed?term=Estragole%20AND%20human%5Bmh%5D%20AND%20%28Occupational%20Diseases%20%5Bmh%5D%20OR%20Occupational%20Exposure%20%5Bmh%5D%29%20%20AND%20%28tox%5Bsb%5D%29&cmd=search"
          }
        ],
        "cross_references": []
      }
    },
    "exposure_assessment": {
      "vapor_pressure": {
        "original_name": "Vapor Pressure",
        "value": "0.05 mm Hg",
        "links": [],
        "cross_references": []
      }
    },
    "adverse_effects": {
      "neurotoxin": {
        "original_name": "Neurotoxin",
        "value": "Acute solvent syndrome",
        "links": [],
        "cross_references": []
      },
      "hepatotoxin": {
        "original_name": "Hepatotoxin",
        "value": "Hepatoxic (a) from occupational exposure (secondary effect) or (b) in animal studies or in humans after ingestion",
        "links": [],
        "cross_references": []
      }
    },
    "diseases_processes_and_activities_linked_to_this_agent": {
      "diseases": {
        "original_name": "Diseases",
        "value": "Occupational diseases associated with exposure to this agent: Solvents, acute toxic effect",
        "links": [
          {
            "text": "Solvents, acute toxic effect",
            "url": "https://haz-map.com/Diseases/326"
          }
        ],
        "cross_references": [
          {
            "type": "url_match",
            "text": "Solvents, acute toxic effect",
            "url": "https://haz-map.com/Diseases/326",
            "confidence": 1.0,
            "uuid": "581e90e3-9d0c-45f0-aa6c-3468c28da129",
            "name": "Solvents, acute toxic effect",
            "category": "diseases"
          }
        ]
      }
    }
  },
  "cross_references": [
    {
      "type": "url_match",
      "text": "Solvents, acute toxic effect",
      "url": "https://haz-map.com/Diseases/326",
      "confidence": 1.0,
      "uuid": "581e90e3-9d0c-45f0-aa6c-3468c28da129",
      "name": "Solvents, acute toxic effect",
      "category": "diseases"
    },
    {
      "type": "name_match",
      "text": "benzene",
      "confidence": 1.0,
      "uuid": "b05124de-5f34-4c14-8f04-ccb20c3780d9",
      "name": "Benzene",
      "url": "https://haz-map.com/Agents/5",
      "category": "agents"
    },
    {
      "type": "name_match",
      "text": "ethyl ether",
      "confidence": 1.0,
      "uuid": "c95edddc-9ad3-44f8-bafa-78e0bd19db3a",
      "name": "Ethyl ether",
      "url": "https://haz-map.com/Agents/455",
      "category": "agents"
    },
    {
      "type": "name_match",
      "text": "anethole",
      "confidence": 1.0,
      "uuid": "85848fad-ea86-450c-95ed-02a8b0a58f83",
      "name": "Anethole",
      "url": "https://haz-map.com/Agents/3697",
      "category": "agents"
    },
    {
      "type": "name_match",
      "text": "anisole",
      "confidence": 1.0,
      "uuid": "f122d940-2dba-441c-9dbf-c185355d4cb0",
      "name": "Anisole",
      "url": "https://haz-map.com/Agents/3708",
      "category": "agents"
    },
    {
      "type": "name_match",
      "text": "estragole",
      "confidence": 1.0,
      "uuid": "84d2c178-792b-4f07-b622-a395ff06a7a1",
      "name": "Estragole",
      "url": "https://haz-map.com/Agents/3834",
      "category": "agents"
    },
    {
      "type": "name_match",
      "text": "petrolatum",
      "confidence": 1.0,
      "uuid": "3aa16d92-e402-405d-86f0-246be9009b2b",
      "name": "Petrolatum",
      "url": "https://haz-map.com/Agents/6605",
      "category": "agents"
    },
    {
      "type": "name_match",
      "text": "allylbenzene",
      "confidence": 1.0,
      "uuid": "b007b983-fc24-44de-abf2-227c514f1069",
      "name": "Allylbenzene",
      "url": "https://haz-map.com/Agents/9700",
      "category": "agents"
    }
  ],
  "all_links": [
    {
      "text": "Search PubMed",
      "url": "https://www.ncbi.nlm.nih.gov/pubmed?term=Estragole%20AND%20human%5Bmh%5D%20AND%20%28Occupational%20Diseases%20%5Bmh%5D%20OR%20Occupational%20Exposure%20%5Bmh%5D%29%20%20AND%20%28tox%5Bsb%5D%29&cmd=search"
    },
    {
      "text": "Solvents, acute toxic effect",
      "url": "https://haz-map.com/Diseases/326"
    }
  ]
}