{
  "metadata": {
    "scraped_from": "https://haz-map.com/Agents/1884",
    "entity_name": "Benzaldehyde",
    "category": "agents",
    "uuid": "8546358a-fcfc-48f8-83d6-bf7adb438729",
    "scraped_at": "2025-07-23T19:06:00.453437"
  },
  "parsed_at": "2025-07-24T01:04:12.331324",
  "title": "Benzaldehyde",
  "sections": {
    "general": {
      "agent_name": {
        "original_name": "Agent Name",
        "value": "Benzaldehyde",
        "links": [],
        "cross_references": [
          {
            "type": "name_match",
            "text": "benzaldehyde",
            "confidence": 1.0,
            "uuid": "8546358a-fcfc-48f8-83d6-bf7adb438729",
            "name": "Benzaldehyde",
            "url": "https://haz-map.com/Agents/1884",
            "category": "agents"
          }
        ]
      },
      "cas_number": {
        "original_name": "CAS Number",
        "value": "100-52-7",
        "links": [],
        "cross_references": []
      },
      "formula": {
        "original_name": "Formula",
        "value": "C7-H6-O",
        "links": [],
        "cross_references": []
      },
      "major_category": {
        "original_name": "Major Category",
        "value": "Other Classes",
        "links": [],
        "cross_references": []
      },
      "synonyms": {
        "original_name": "Synonyms",
        "value": "Almond artificial essential oil; Artificial almond oil; Artificial essential oil of almond; Benzaldehyde; Benzaldehyde (natural); Benzaldehyde FFC; Benzene carbaldehyde; Benzene carboxaldehyde; Benzenecarbonal; Benzenecarboxaldehyde; Benzenemethylal; Benzoic aldehyde; Bitter almond oil, synthetic; Oil Of bitter almond; Phenylmethanal; Synthetic oil of bitter almond; UN1990; [ChemIDplus]",
        "links": [],
        "cross_references": [
          {
            "type": "name_match",
            "text": "benzene",
            "confidence": 1.0,
            "uuid": "b05124de-5f34-4c14-8f04-ccb20c3780d9",
            "name": "Benzene",
            "url": "https://haz-map.com/Agents/5",
            "category": "agents"
          },
          {
            "type": "name_match",
            "text": "methylal",
            "confidence": 1.0,
            "uuid": "27aa92c4-7ed1-4f60-8903-41e72d99556f",
            "name": "Methylal",
            "url": "https://haz-map.com/Agents/555",
            "category": "agents"
          },
          {
            "type": "name_match",
            "text": "benzaldehyde",
            "confidence": 1.0,
            "uuid": "8546358a-fcfc-48f8-83d6-bf7adb438729",
            "name": "Benzaldehyde",
            "url": "https://haz-map.com/Agents/1884",
            "category": "agents"
          },
          {
            "type": "name_match",
            "text": "carbon",
            "confidence": 1.0,
            "uuid": "b53f8815-ee80-40ef-b4aa-3b000e17dab5",
            "name": "Carbon",
            "url": "https://haz-map.com/Agents/1891",
            "category": "agents"
          }
        ]
      },
      "category": {
        "original_name": "Category",
        "value": "Benzaldehydes",
        "links": [],
        "cross_references": [
          {
            "type": "name_match",
            "text": "aldehydes",
            "confidence": 1.0,
            "uuid": "60ff52e0-7c53-4dd0-99cf-f775cfcfed59",
            "name": "ALDEHYDES",
            "url": "https://haz-map.com/Agents/719",
            "category": "agents"
          },
          {
            "type": "name_match",
            "text": "benzaldehyde",
            "confidence": 1.0,
            "uuid": "8546358a-fcfc-48f8-83d6-bf7adb438729",
            "name": "Benzaldehyde",
            "url": "https://haz-map.com/Agents/1884",
            "category": "agents"
          }
        ]
      },
      "description": {
        "original_name": "Description",
        "value": "Colorless to yellowish liquid with an odor of almond oil; [AIHA] In air, readily oxidizes to benzoic acid; [CAMEO]",
        "links": [],
        "cross_references": [
          {
            "type": "name_match",
            "text": "benzoic acid",
            "confidence": 1.0,
            "uuid": "d2c5d3be-d826-4f55-bc32-7b16821aef40",
            "name": "Benzoic acid",
            "url": "https://haz-map.com/Agents/1883",
            "category": "agents"
          }
        ]
      },
      "sourcesuses": {
        "original_name": "Sources/Uses",
        "value": "Used as a chemical intermediate and a solvent for resins and oils; [HSDB] Used as a flavoring agent in food and perfume additive (FDA-approved); [AIHA]",
        "links": [],
        "cross_references": [
          {
            "type": "name_match",
            "text": "mica",
            "confidence": 1.0,
            "uuid": "433f26f1-c399-4596-b179-ce3843cfd465",
            "name": "Mica",
            "url": "https://haz-map.com/Agents/621",
            "category": "agents"
          }
        ]
      },
      "comments": {
        "original_name": "Comments",
        "value": "An eye irritant; [ICSC] At a concentration of 2 ppm, there is a strong penetrating odor without marked irritation; [AIHA] Included in list of \"established contact allergens in humans\"; [EC: Scientific Committee on Consumer Safety: Fragrance allergens in cosmetic products (2011)] Benzaldehyde can cause contact urticaria. [Kanerva, p. 221]",
        "links": [],
        "cross_references": [
          {
            "type": "name_match",
            "text": "contact urticaria",
            "confidence": 1.0,
            "uuid": "465e908f-02ad-4f45-a29b-fd09224d5874",
            "name": "Contact urticaria",
            "url": "https://haz-map.com/Diseases/266",
            "category": "diseases"
          },
          {
            "type": "name_match",
            "text": "urticaria",
            "confidence": 1.0,
            "uuid": "077e5bcd-975f-45ad-a136-d3c876b10a30",
            "name": "urticaria",
            "url": "https://haz-map.com/Findings/113",
            "category": "findings"
          },
          {
            "type": "name_match",
            "text": "benzaldehyde",
            "confidence": 1.0,
            "uuid": "8546358a-fcfc-48f8-83d6-bf7adb438729",
            "name": "Benzaldehyde",
            "url": "https://haz-map.com/Agents/1884",
            "category": "agents"
          }
        ]
      },
      "restricted": {
        "original_name": "Restricted",
        "value": "No longer registered by EPA for use in any pesticide products; [HSDB]",
        "links": [],
        "cross_references": []
      },
      "biomedical_references": {
        "original_name": "Biomedical References",
        "value": "Search PubMed",
        "links": [
          {
            "text": "Search PubMed",
            "url": "https://www.ncbi.nlm.nih.gov/pubmed?term=Benzaldehyde%20AND%20human%5Bmh%5D%20AND%20%28Occupational%20Diseases%20%5Bmh%5D%20OR%20Occupational%20Exposure%20%5Bmh%5D%29%20%20AND%20%28tox%5Bsb%5D%29&cmd=search"
          }
        ],
        "cross_references": []
      }
    },
    "exposure_assessment": {
      "vapor_pressure": {
        "original_name": "Vapor Pressure",
        "value": "0.127 mm Hg",
        "links": [],
        "cross_references": []
      },
      "lethal_concentration": {
        "original_name": "Lethal Concentration",
        "value": "LC (rat) = >500 mg/m3",
        "links": [],
        "cross_references": []
      },
      "explanatory_notes": {
        "original_name": "Explanatory Notes",
        "value": "mp = -26 degrees C; bp = 179 degrees C; [ChemIDplus] VP from ChemIDplus;",
        "links": [],
        "cross_references": []
      },
      "nfpa": {
        "original_name": "NFPA",
        "value": "high ambient temp required",
        "links": [],
        "cross_references": []
      },
      "weel": {
        "original_name": "WEEL",
        "value": "2 ppm, STEL = 4 ppm",
        "links": [],
        "cross_references": []
      }
    },
    "adverse_effects": {
      "skin_sensitizer": {
        "original_name": "Skin Sensitizer",
        "value": "Yes",
        "links": [],
        "cross_references": []
      }
    },
    "diseases_processes_and_activities_linked_to_this_agent": {
      "diseases": {
        "original_name": "Diseases",
        "value": "Occupational diseases associated with exposure to this agent: Contact dermatitis, allergic Contact urticaria",
        "links": [
          {
            "text": "Contact dermatitis, allergic",
            "url": "https://haz-map.com/Diseases/18"
          },
          {
            "text": "Contact urticaria",
            "url": "https://haz-map.com/Diseases/266"
          }
        ],
        "cross_references": [
          {
            "type": "url_match",
            "text": "Contact dermatitis, allergic",
            "url": "https://haz-map.com/Diseases/18",
            "confidence": 1.0,
            "uuid": "c9499de0-9aa1-41bf-8753-cd5b28a63e29",
            "name": "Contact dermatitis, allergic",
            "category": "diseases"
          },
          {
            "type": "url_match",
            "text": "Contact urticaria",
            "url": "https://haz-map.com/Diseases/266",
            "confidence": 1.0,
            "uuid": "465e908f-02ad-4f45-a29b-fd09224d5874",
            "name": "Contact urticaria",
            "category": "diseases"
          },
          {
            "type": "name_match",
            "text": "dermatitis",
            "confidence": 1.0,
            "uuid": "fe9c05f2-b19f-4ceb-ac7a-ffb7d7a0cae0",
            "name": "dermatitis",
            "url": "https://haz-map.com/Findings/59",
            "category": "findings"
          },
          {
            "type": "name_match",
            "text": "urticaria",
            "confidence": 1.0,
            "uuid": "077e5bcd-975f-45ad-a136-d3c876b10a30",
            "name": "urticaria",
            "url": "https://haz-map.com/Findings/113",
            "category": "findings"
          }
        ]
      }
    }
  },
  "cross_references": [
    {
      "type": "url_match",
      "text": "Contact dermatitis, allergic",
      "url": "https://haz-map.com/Diseases/18",
      "confidence": 1.0,
      "uuid": "c9499de0-9aa1-41bf-8753-cd5b28a63e29",
      "name": "Contact dermatitis, allergic",
      "category": "diseases"
    },
    {
      "type": "url_match",
      "text": "Contact urticaria",
      "url": "https://haz-map.com/Diseases/266",
      "confidence": 1.0,
      "uuid": "465e908f-02ad-4f45-a29b-fd09224d5874",
      "name": "Contact urticaria",
      "category": "diseases"
    },
    {
      "type": "name_match",
      "text": "dermatitis",
      "confidence": 1.0,
      "uuid": "fe9c05f2-b19f-4ceb-ac7a-ffb7d7a0cae0",
      "name": "dermatitis",
      "url": "https://haz-map.com/Findings/59",
      "category": "findings"
    },
    {
      "type": "name_match",
      "text": "urticaria",
      "confidence": 1.0,
      "uuid": "077e5bcd-975f-45ad-a136-d3c876b10a30",
      "name": "urticaria",
      "url": "https://haz-map.com/Findings/113",
      "category": "findings"
    },
    {
      "type": "name_match",
      "text": "benzene",
      "confidence": 1.0,
      "uuid": "b05124de-5f34-4c14-8f04-ccb20c3780d9",
      "name": "Benzene",
      "url": "https://haz-map.com/Agents/5",
      "category": "agents"
    },
    {
      "type": "name_match",
      "text": "methylal",
      "confidence": 1.0,
      "uuid": "27aa92c4-7ed1-4f60-8903-41e72d99556f",
      "name": "Methylal",
      "url": "https://haz-map.com/Agents/555",
      "category": "agents"
    },
    {
      "type": "name_match",
      "text": "mica",
      "confidence": 1.0,
      "uuid": "433f26f1-c399-4596-b179-ce3843cfd465",
      "name": "Mica",
      "url": "https://haz-map.com/Agents/621",
      "category": "agents"
    },
    {
      "type": "name_match",
      "text": "aldehydes",
      "confidence": 1.0,
      "uuid": "60ff52e0-7c53-4dd0-99cf-f775cfcfed59",
      "name": "ALDEHYDES",
      "url": "https://haz-map.com/Agents/719",
      "category": "agents"
    },
    {
      "type": "name_match",
      "text": "benzoic acid",
      "confidence": 1.0,
      "uuid": "d2c5d3be-d826-4f55-bc32-7b16821aef40",
      "name": "Benzoic acid",
      "url": "https://haz-map.com/Agents/1883",
      "category": "agents"
    },
    {
      "type": "name_match",
      "text": "benzaldehyde",
      "confidence": 1.0,
      "uuid": "8546358a-fcfc-48f8-83d6-bf7adb438729",
      "name": "Benzaldehyde",
      "url": "https://haz-map.com/Agents/1884",
      "category": "agents"
    },
    {
      "type": "name_match",
      "text": "carbon",
      "confidence": 1.0,
      "uuid": "b53f8815-ee80-40ef-b4aa-3b000e17dab5",
      "name": "Carbon",
      "url": "https://haz-map.com/Agents/1891",
      "category": "agents"
    }
  ],
  "all_links": [
    {
      "text": "Search PubMed",
      "url": "https://www.ncbi.nlm.nih.gov/pubmed?term=Benzaldehyde%20AND%20human%5Bmh%5D%20AND%20%28Occupational%20Diseases%20%5Bmh%5D%20OR%20Occupational%20Exposure%20%5Bmh%5D%29%20%20AND%20%28tox%5Bsb%5D%29&cmd=search"
    },
    {
      "text": "Contact dermatitis, allergic",
      "url": "https://haz-map.com/Diseases/18"
    },
    {
      "text": "Contact urticaria",
      "url": "https://haz-map.com/Diseases/266"
    }
  ]
}