{
  "metadata": {
    "scraped_from": "https://haz-map.com/Agents/18112",
    "entity_name": "trans-4-Octene",
    "category": "agents",
    "uuid": "855f188a-7c9c-4f96-ae19-94da0d85985b",
    "scraped_at": "2025-07-23T21:52:54.267410"
  },
  "parsed_at": "2025-07-24T01:14:09.898987",
  "title": "trans-4-Octene",
  "sections": {
    "general": {
      "agent_name": {
        "original_name": "Agent Name",
        "value": "trans-4-Octene",
        "links": [],
        "cross_references": [
          {
            "type": "name_match",
            "text": "octene",
            "confidence": 1.0,
            "uuid": "27cad3f1-2dc5-4f69-b1a8-bd463c7c9774",
            "name": "Octene",
            "url": "https://haz-map.com/Agents/8582",
            "category": "agents"
          },
          {
            "type": "name_match",
            "text": "trans-4-octene",
            "confidence": 1.0,
            "uuid": "855f188a-7c9c-4f96-ae19-94da0d85985b",
            "name": "trans-4-Octene",
            "url": "https://haz-map.com/Agents/18112",
            "category": "agents"
          }
        ]
      },
      "cas_number": {
        "original_name": "CAS Number",
        "value": "14850-23-8",
        "links": [],
        "cross_references": []
      },
      "formula": {
        "original_name": "Formula",
        "value": "C8-H16",
        "links": [],
        "cross_references": []
      },
      "major_category": {
        "original_name": "Major Category",
        "value": "Other Classes",
        "links": [],
        "cross_references": []
      },
      "synonyms": {
        "original_name": "Synonyms",
        "value": "(E)-4-Octene; trans-n-4-Octene; 4-Octene, (E)- (8CI)(9CI); trans-Oct-4-ene; [ChemIDplus] UN3295",
        "links": [],
        "cross_references": [
          {
            "type": "name_match",
            "text": "octene",
            "confidence": 1.0,
            "uuid": "27cad3f1-2dc5-4f69-b1a8-bd463c7c9774",
            "name": "Octene",
            "url": "https://haz-map.com/Agents/8582",
            "category": "agents"
          }
        ]
      },
      "category": {
        "original_name": "Category",
        "value": "Aliphatics, Unsaturated",
        "links": [],
        "cross_references": []
      },
      "description": {
        "original_name": "Description",
        "value": "Clear colorless liquid; [Sigma-Aldrich MSDS]",
        "links": [],
        "cross_references": []
      },
      "comments": {
        "original_name": "Comments",
        "value": "May cause irritation; An aspiration hazard by ingestion (may cause lung injury); [Sigma-Aldrich MSDS]",
        "links": [],
        "cross_references": []
      },
      "biomedical_references": {
        "original_name": "Biomedical References",
        "value": "Search PubMed",
        "links": [
          {
            "text": "Search PubMed",
            "url": "https://www.ncbi.nlm.nih.gov/pubmed?term=trans-4-Octene%20AND%20human%5Bmh%5D%20AND%20%28Occupational%20Diseases%20%5Bmh%5D%20OR%20Occupational%20Exposure%20%5Bmh%5D%29%20%20AND%20%28tox%5Bsb%5D%29&cmd=search"
          }
        ],
        "cross_references": []
      }
    },
    "exposure_assessment": {
      "vapor_pressure": {
        "original_name": "Vapor Pressure",
        "value": "17.8 mm Hg",
        "links": [],
        "cross_references": []
      },
      "explanatory_notes": {
        "original_name": "Explanatory Notes",
        "value": "The Guide in the Emergency Response Guidebook is for \"Hydrocarbons, liquid, n.o.s.\"",
        "links": [],
        "cross_references": [
          {
            "type": "name_match",
            "text": "carbon",
            "confidence": 1.0,
            "uuid": "b53f8815-ee80-40ef-b4aa-3b000e17dab5",
            "name": "Carbon",
            "url": "https://haz-map.com/Agents/1891",
            "category": "agents"
          },
          {
            "type": "fuzzy_match",
            "text": "hydrocarbons",
            "matched_name": "Hydrocarbons, C>3",
            "confidence": 0.7100840336134454,
            "uuid": "8eaa37ac-3931-44e4-9242-2734127fd661",
            "category": "agents",
            "url": "https://haz-map.com/Agents/14795"
          }
        ]
      }
    },
    "diseases_processes_and_activities_linked_to_this_agent": {
      "other_information": {
        "original_name": "Other Information",
        "value": "No other related information on this agent was found.",
        "links": [],
        "cross_references": []
      }
    }
  },
  "cross_references": [
    {
      "type": "name_match",
      "text": "carbon",
      "confidence": 1.0,
      "uuid": "b53f8815-ee80-40ef-b4aa-3b000e17dab5",
      "name": "Carbon",
      "url": "https://haz-map.com/Agents/1891",
      "category": "agents"
    },
    {
      "type": "name_match",
      "text": "octene",
      "confidence": 1.0,
      "uuid": "27cad3f1-2dc5-4f69-b1a8-bd463c7c9774",
      "name": "Octene",
      "url": "https://haz-map.com/Agents/8582",
      "category": "agents"
    },
    {
      "type": "name_match",
      "text": "trans-4-octene",
      "confidence": 1.0,
      "uuid": "855f188a-7c9c-4f96-ae19-94da0d85985b",
      "name": "trans-4-Octene",
      "url": "https://haz-map.com/Agents/18112",
      "category": "agents"
    },
    {
      "type": "fuzzy_match",
      "text": "hydrocarbons",
      "matched_name": "Hydrocarbons, C>3",
      "confidence": 0.7100840336134454,
      "uuid": "8eaa37ac-3931-44e4-9242-2734127fd661",
      "category": "agents",
      "url": "https://haz-map.com/Agents/14795"
    }
  ],
  "all_links": [
    {
      "text": "Search PubMed",
      "url": "https://www.ncbi.nlm.nih.gov/pubmed?term=trans-4-Octene%20AND%20human%5Bmh%5D%20AND%20%28Occupational%20Diseases%20%5Bmh%5D%20OR%20Occupational%20Exposure%20%5Bmh%5D%29%20%20AND%20%28tox%5Bsb%5D%29&cmd=search"
    }
  ]
}