{
  "metadata": {
    "scraped_from": "https://haz-map.com/Agents/15536",
    "entity_name": "Ethyl methylphosphonate",
    "category": "agents",
    "uuid": "857e0fbc-0e5d-4936-9be9-3a9076ca604d",
    "scraped_at": "2025-07-23T21:30:38.018007"
  },
  "parsed_at": "2025-07-24T00:51:06.680770",
  "title": "Ethyl methylphosphonate",
  "sections": {
    "general": {
      "agent_name": {
        "original_name": "Agent Name",
        "value": "Ethyl methylphosphonate",
        "links": [],
        "cross_references": [
          {
            "type": "name_match",
            "text": "ethyl methylphosphonate",
            "confidence": 1.0,
            "uuid": "857e0fbc-0e5d-4936-9be9-3a9076ca604d",
            "name": "Ethyl methylphosphonate",
            "url": "https://haz-map.com/Agents/15536",
            "category": "agents"
          }
        ]
      },
      "cas_number": {
        "original_name": "CAS Number",
        "value": "1832-53-7",
        "links": [],
        "cross_references": []
      },
      "formula": {
        "original_name": "Formula",
        "value": "C3-H9-O3-P",
        "links": [],
        "cross_references": []
      },
      "major_category": {
        "original_name": "Major Category",
        "value": "Toxic Gases & Vapors",
        "links": [],
        "cross_references": []
      },
      "synonyms": {
        "original_name": "Synonyms",
        "value": "Ethyl methylphosphonic acid; Phosphonic acid, methyl-, monoethyl ester; [ChemIDplus] EMPA; Methylphosphonic acid monoethyl ester; [Merck Index]",
        "links": [],
        "cross_references": [
          {
            "type": "name_match",
            "text": "methylphosphonic acid",
            "confidence": 1.0,
            "uuid": "3fb05f69-115d-4eb5-87b4-71aa8574aabc",
            "name": "Methylphosphonic acid",
            "url": "https://haz-map.com/Agents/6137",
            "category": "agents"
          }
        ]
      },
      "category": {
        "original_name": "Category",
        "value": "Chemical Weapons",
        "links": [],
        "cross_references": [
          {
            "type": "name_match",
            "text": "mica",
            "confidence": 1.0,
            "uuid": "433f26f1-c399-4596-b179-ce3843cfd465",
            "name": "Mica",
            "url": "https://haz-map.com/Agents/621",
            "category": "agents"
          }
        ]
      },
      "description": {
        "original_name": "Description",
        "value": "Liquid; [Sigma-Aldrich MSDS]",
        "links": [],
        "cross_references": []
      },
      "sourcesuses": {
        "original_name": "Sources/Uses",
        "value": "A degradation product of VX (chemical warfare agent); Used to detect VX; [Merck Index] Urinary metabolite of sarin; [ChemIDplus]",
        "links": [],
        "cross_references": [
          {
            "type": "name_match",
            "text": "mica",
            "confidence": 1.0,
            "uuid": "433f26f1-c399-4596-b179-ce3843cfd465",
            "name": "Mica",
            "url": "https://haz-map.com/Agents/621",
            "category": "agents"
          },
          {
            "type": "name_match",
            "text": "sarin",
            "confidence": 1.0,
            "uuid": "0b2477bd-5683-4fa1-a959-0f0b278d6300",
            "name": "Sarin",
            "url": "https://haz-map.com/Agents/1452",
            "category": "agents"
          },
          {
            "type": "name_match",
            "text": "vx",
            "confidence": 1.0,
            "uuid": "b7218a14-b130-4ca0-a815-ba4b69602337",
            "name": "VX",
            "url": "https://haz-map.com/Agents/1455",
            "category": "agents"
          }
        ]
      },
      "comments": {
        "original_name": "Comments",
        "value": "A skin and strong eye irritant; Toxic by ingestion; [Sigma-Aldrich MSDS] See \"Sarin\" and \"VX.\"",
        "links": [],
        "cross_references": [
          {
            "type": "name_match",
            "text": "sarin",
            "confidence": 1.0,
            "uuid": "0b2477bd-5683-4fa1-a959-0f0b278d6300",
            "name": "Sarin",
            "url": "https://haz-map.com/Agents/1452",
            "category": "agents"
          },
          {
            "type": "name_match",
            "text": "vx",
            "confidence": 1.0,
            "uuid": "b7218a14-b130-4ca0-a815-ba4b69602337",
            "name": "VX",
            "url": "https://haz-map.com/Agents/1455",
            "category": "agents"
          }
        ]
      },
      "biomedical_references": {
        "original_name": "Biomedical References",
        "value": "Search PubMed",
        "links": [
          {
            "text": "Search PubMed",
            "url": "https://www.ncbi.nlm.nih.gov/pubmed?term=Ethyl+methylphosphonate%20AND%20human%5Bmh%5D%20AND%20%28Occupational%20Diseases%20%5Bmh%5D%20OR%20Occupational%20Exposure%20%5Bmh%5D%29%20%20AND%20%28tox%5Bsb%5D%29&cmd=search"
          }
        ],
        "cross_references": []
      }
    },
    "exposure_assessment": {
      "vapor_pressure": {
        "original_name": "Vapor Pressure",
        "value": "0.019 mm Hg",
        "links": [],
        "cross_references": []
      }
    },
    "diseases_processes_and_activities_linked_to_this_agent": {
      "other_information": {
        "original_name": "Other Information",
        "value": "No other related information on this agent was found.",
        "links": [],
        "cross_references": []
      }
    }
  },
  "cross_references": [
    {
      "type": "name_match",
      "text": "mica",
      "confidence": 1.0,
      "uuid": "433f26f1-c399-4596-b179-ce3843cfd465",
      "name": "Mica",
      "url": "https://haz-map.com/Agents/621",
      "category": "agents"
    },
    {
      "type": "name_match",
      "text": "sarin",
      "confidence": 1.0,
      "uuid": "0b2477bd-5683-4fa1-a959-0f0b278d6300",
      "name": "Sarin",
      "url": "https://haz-map.com/Agents/1452",
      "category": "agents"
    },
    {
      "type": "name_match",
      "text": "vx",
      "confidence": 1.0,
      "uuid": "b7218a14-b130-4ca0-a815-ba4b69602337",
      "name": "VX",
      "url": "https://haz-map.com/Agents/1455",
      "category": "agents"
    },
    {
      "type": "name_match",
      "text": "methylphosphonic acid",
      "confidence": 1.0,
      "uuid": "3fb05f69-115d-4eb5-87b4-71aa8574aabc",
      "name": "Methylphosphonic acid",
      "url": "https://haz-map.com/Agents/6137",
      "category": "agents"
    },
    {
      "type": "name_match",
      "text": "ethyl methylphosphonate",
      "confidence": 1.0,
      "uuid": "857e0fbc-0e5d-4936-9be9-3a9076ca604d",
      "name": "Ethyl methylphosphonate",
      "url": "https://haz-map.com/Agents/15536",
      "category": "agents"
    }
  ],
  "all_links": [
    {
      "text": "Search PubMed",
      "url": "https://www.ncbi.nlm.nih.gov/pubmed?term=Ethyl+methylphosphonate%20AND%20human%5Bmh%5D%20AND%20%28Occupational%20Diseases%20%5Bmh%5D%20OR%20Occupational%20Exposure%20%5Bmh%5D%29%20%20AND%20%28tox%5Bsb%5D%29&cmd=search"
    }
  ]
}