{
  "metadata": {
    "scraped_from": "https://haz-map.com/Agents/2926",
    "entity_name": "1-Tridecanol",
    "category": "agents",
    "uuid": "85802fbc-169c-433b-b1fd-50f991301a86",
    "scraped_at": "2025-07-23T19:21:07.374346"
  },
  "parsed_at": "2025-07-24T01:06:47.268873",
  "title": "1-Tridecanol",
  "sections": {
    "general": {
      "agent_name": {
        "original_name": "Agent Name",
        "value": "1-Tridecanol",
        "links": [],
        "cross_references": [
          {
            "type": "name_match",
            "text": "1-tridecanol",
            "confidence": 1.0,
            "uuid": "85802fbc-169c-433b-b1fd-50f991301a86",
            "name": "1-Tridecanol",
            "url": "https://haz-map.com/Agents/2926",
            "category": "agents"
          },
          {
            "type": "name_match",
            "text": "tridecanol",
            "confidence": 1.0,
            "uuid": "e15b8b67-424f-4912-945c-3fe1e695a73f",
            "name": "Tridecanol",
            "url": "https://haz-map.com/Agents/7549",
            "category": "agents"
          }
        ]
      },
      "alternative_name": {
        "original_name": "Alternative Name",
        "value": "Tridecyl alcohol",
        "links": [],
        "cross_references": []
      },
      "cas_number": {
        "original_name": "CAS Number",
        "value": "112-70-9",
        "links": [],
        "cross_references": []
      },
      "formula": {
        "original_name": "Formula",
        "value": "C13-H28-O",
        "links": [],
        "cross_references": []
      },
      "major_category": {
        "original_name": "Major Category",
        "value": "Other Classes",
        "links": [],
        "cross_references": []
      },
      "synonyms": {
        "original_name": "Synonyms",
        "value": "Tridecyl alcohol; Tridecanol; n-Tridecan-1-ol; n-Tridecanol; n-Tridecyl alcohol; [ChemIDplus]",
        "links": [],
        "cross_references": [
          {
            "type": "name_match",
            "text": "tridecanol",
            "confidence": 1.0,
            "uuid": "e15b8b67-424f-4912-945c-3fe1e695a73f",
            "name": "Tridecanol",
            "url": "https://haz-map.com/Agents/7549",
            "category": "agents"
          }
        ]
      },
      "category": {
        "original_name": "Category",
        "value": "Alcohols and Polyols, Other",
        "links": [],
        "cross_references": []
      },
      "description": {
        "original_name": "Description",
        "value": "Colorless liquid or solid; [ICSC] White solid; [MSDSonline]",
        "links": [],
        "cross_references": []
      },
      "sourcesuses": {
        "original_name": "Sources/Uses",
        "value": "Used as a lubricant, antifoam agent, and chemical intermediate for detergents and other products; [HSDB]",
        "links": [],
        "cross_references": [
          {
            "type": "name_match",
            "text": "mica",
            "confidence": 1.0,
            "uuid": "433f26f1-c399-4596-b179-ce3843cfd465",
            "name": "Mica",
            "url": "https://haz-map.com/Agents/621",
            "category": "agents"
          }
        ]
      },
      "comments": {
        "original_name": "Comments",
        "value": "A skin and eye irritant; [ICSC] A mild skin irritant, based on animal studies; [MSDSonline] See \"1-Decanol.\"",
        "links": [],
        "cross_references": [
          {
            "type": "name_match",
            "text": "1-decanol",
            "confidence": 1.0,
            "uuid": "4ce953ac-6e07-4bed-a15a-d6a3b0298a28",
            "name": "1-Decanol",
            "url": "https://haz-map.com/Agents/1895",
            "category": "agents"
          }
        ]
      },
      "biomedical_references": {
        "original_name": "Biomedical References",
        "value": "Search PubMed",
        "links": [
          {
            "text": "Search PubMed",
            "url": "https://www.ncbi.nlm.nih.gov/pubmed?term=1-Tridecanol%20AND%20human%5Bmh%5D%20AND%20%28Occupational%20Diseases%20%5Bmh%5D%20OR%20Occupational%20Exposure%20%5Bmh%5D%29%20%20AND%20%28tox%5Bsb%5D%29&cmd=search"
          }
        ],
        "cross_references": []
      }
    },
    "exposure_assessment": {
      "vapor_pressure": {
        "original_name": "Vapor Pressure",
        "value": "0.000436 mm Hg",
        "links": [],
        "cross_references": []
      },
      "explanatory_notes": {
        "original_name": "Explanatory Notes",
        "value": "Flash point = 121 deg C; [ICSC] VP from ChemIDplus;",
        "links": [],
        "cross_references": [
          {
            "type": "name_match",
            "text": "ash",
            "confidence": 1.0,
            "uuid": "68b360f1-5ad0-4337-bea0-d7adca2961b5",
            "name": "Ash",
            "url": "https://haz-map.com/Agents/965",
            "category": "agents"
          }
        ]
      },
      "nfpa": {
        "original_name": "NFPA",
        "value": "must be preheated",
        "links": [],
        "cross_references": []
      }
    },
    "diseases_processes_and_activities_linked_to_this_agent": {
      "other_information": {
        "original_name": "Other Information",
        "value": "No other related information on this agent was found.",
        "links": [],
        "cross_references": []
      }
    }
  },
  "cross_references": [
    {
      "type": "name_match",
      "text": "mica",
      "confidence": 1.0,
      "uuid": "433f26f1-c399-4596-b179-ce3843cfd465",
      "name": "Mica",
      "url": "https://haz-map.com/Agents/621",
      "category": "agents"
    },
    {
      "type": "name_match",
      "text": "ash",
      "confidence": 1.0,
      "uuid": "68b360f1-5ad0-4337-bea0-d7adca2961b5",
      "name": "Ash",
      "url": "https://haz-map.com/Agents/965",
      "category": "agents"
    },
    {
      "type": "name_match",
      "text": "1-decanol",
      "confidence": 1.0,
      "uuid": "4ce953ac-6e07-4bed-a15a-d6a3b0298a28",
      "name": "1-Decanol",
      "url": "https://haz-map.com/Agents/1895",
      "category": "agents"
    },
    {
      "type": "name_match",
      "text": "1-tridecanol",
      "confidence": 1.0,
      "uuid": "85802fbc-169c-433b-b1fd-50f991301a86",
      "name": "1-Tridecanol",
      "url": "https://haz-map.com/Agents/2926",
      "category": "agents"
    },
    {
      "type": "name_match",
      "text": "tridecanol",
      "confidence": 1.0,
      "uuid": "e15b8b67-424f-4912-945c-3fe1e695a73f",
      "name": "Tridecanol",
      "url": "https://haz-map.com/Agents/7549",
      "category": "agents"
    }
  ],
  "all_links": [
    {
      "text": "Search PubMed",
      "url": "https://www.ncbi.nlm.nih.gov/pubmed?term=1-Tridecanol%20AND%20human%5Bmh%5D%20AND%20%28Occupational%20Diseases%20%5Bmh%5D%20OR%20Occupational%20Exposure%20%5Bmh%5D%29%20%20AND%20%28tox%5Bsb%5D%29&cmd=search"
    }
  ]
}