{
  "metadata": {
    "scraped_from": "https://haz-map.com/Agents/3962",
    "entity_name": "Bis(2-ethylhexyl) phosphorodithioate",
    "category": "agents",
    "uuid": "859ccd9b-14fc-431b-870e-1c6255adc143",
    "scraped_at": "2025-07-23T19:35:17.759066"
  },
  "parsed_at": "2025-07-24T01:02:36.585564",
  "title": "Bis(2-ethylhexyl) phosphorodithioate",
  "sections": {
    "general": {
      "agent_name": {
        "original_name": "Agent Name",
        "value": "Bis(2-ethylhexyl) phosphorodithioate",
        "links": [],
        "cross_references": [
          {
            "type": "name_match",
            "text": "bis(2-ethylhexyl) phosphorodithioate",
            "confidence": 1.0,
            "uuid": "859ccd9b-14fc-431b-870e-1c6255adc143",
            "name": "Bis(2-ethylhexyl) phosphorodithioate",
            "url": "https://haz-map.com/Agents/3962",
            "category": "agents"
          }
        ]
      },
      "cas_number": {
        "original_name": "CAS Number",
        "value": "5810-88-8",
        "links": [],
        "cross_references": []
      },
      "formula": {
        "original_name": "Formula",
        "value": "C16-H35-O2-P-S2",
        "links": [],
        "cross_references": []
      },
      "major_category": {
        "original_name": "Major Category",
        "value": "Other Classes",
        "links": [],
        "cross_references": []
      },
      "synonyms": {
        "original_name": "Synonyms",
        "value": "Bis(2-ethylhexyl) dithiophosphate; Bis(2-ethylhexyl) hydrogen dithiophosphate; Di-2-ethylhexylphosphorodithioic acid; O,O'-Di(2-ethylhexyl) dithiophosphoric acid; O,O-Bis(2-ethylhexyl) dithiophosphate; O,O-Bis(2-ethylhexyl) hydrogen phosphorothioate; O,O-Bis(2-ethylhexyl) phosphorodithioate; Phoslex DT 8; Phosphorodithioic acid, O,O-bis(2-ethylhexyl) ester; [ChemIDplus]",
        "links": [],
        "cross_references": [
          {
            "type": "name_match",
            "text": "phosphoric acid",
            "confidence": 1.0,
            "uuid": "9049e74c-22b3-4fb1-8e7f-53f17c0ec74a",
            "name": "Phosphoric acid",
            "url": "https://haz-map.com/Agents/595",
            "category": "agents"
          },
          {
            "type": "name_match",
            "text": "hydrogen",
            "confidence": 1.0,
            "uuid": "e2d9645f-5559-4d88-b820-fc4710c154f2",
            "name": "Hydrogen",
            "url": "https://haz-map.com/Agents/1070",
            "category": "agents"
          },
          {
            "type": "name_match",
            "text": "bis(2-ethylhexyl) phosphorodithioate",
            "confidence": 1.0,
            "uuid": "859ccd9b-14fc-431b-870e-1c6255adc143",
            "name": "Bis(2-ethylhexyl) phosphorodithioate",
            "url": "https://haz-map.com/Agents/3962",
            "category": "agents"
          }
        ]
      },
      "category": {
        "original_name": "Category",
        "value": "Organophosphates, Other",
        "links": [],
        "cross_references": [
          {
            "type": "name_match",
            "text": "organophosphates",
            "confidence": 1.0,
            "uuid": "8d2d239c-20f9-4f02-9916-5e7667b9990c",
            "name": "ORGANOPHOSPHATES",
            "url": "https://haz-map.com/Agents/702",
            "category": "agents"
          }
        ]
      },
      "description": {
        "original_name": "Description",
        "value": "Liquid; [IUCLID] Viscous amber liquid; [EPA]",
        "links": [],
        "cross_references": []
      },
      "sourcesuses": {
        "original_name": "Sources/Uses",
        "value": "Used formerly as a lubricating oil additive, rust inhibitor, and for separation of actinide and lanthanide series compounds; [HSDB] Used by lubricant additive manufacturers as intermediate; May be found in commercial/consumer lubricants, greases, and fuel additives; 1-10 million pounds imported or manufactured in the US in 2005; [EPA]",
        "links": [],
        "cross_references": [
          {
            "type": "name_match",
            "text": "grease",
            "confidence": 1.0,
            "uuid": "bf476c67-9302-4215-a263-a67d337ab9ef",
            "name": "Grease",
            "url": "https://haz-map.com/Agents/21033",
            "category": "agents"
          }
        ]
      },
      "comments": {
        "original_name": "Comments",
        "value": "External application to rabbit eyes scored 8 on a scale of 1-10 (10 being most severe) for degree of injury after 24 hours; Emergency treatment: Acids; [HSDB] Highly acidic; [EPA] Severely irritating to skin and eyes; [RTECS]",
        "links": [],
        "cross_references": []
      },
      "restricted": {
        "original_name": "Restricted",
        "value": "Emergency treatment: Acids;",
        "links": [],
        "cross_references": []
      },
      "biomedical_references": {
        "original_name": "Biomedical References",
        "value": "Search PubMed",
        "links": [
          {
            "text": "Search PubMed",
            "url": "https://www.ncbi.nlm.nih.gov/pubmed?term=Bis(2-ethylhexyl)+phosphorodithioate%20AND%20human%5Bmh%5D%20AND%20%28Occupational%20Diseases%20%5Bmh%5D%20OR%20Occupational%20Exposure%20%5Bmh%5D%29%20%20AND%20%28tox%5Bsb%5D%29&cmd=search"
          }
        ],
        "cross_references": []
      }
    },
    "exposure_assessment": {
      "vapor_pressure": {
        "original_name": "Vapor Pressure",
        "value": "1.9E-05 mm Hg",
        "links": [],
        "cross_references": []
      }
    },
    "adverse_effects": {
      "dermatotoxin": {
        "original_name": "Dermatotoxin",
        "value": "Skin burns",
        "links": [],
        "cross_references": [
          {
            "type": "name_match",
            "text": "burn",
            "confidence": 1.0,
            "uuid": "63665de5-6376-4918-8dbf-4c10c4d63837",
            "name": "burn",
            "url": "https://haz-map.com/Findings/204",
            "category": "findings"
          }
        ]
      }
    },
    "diseases_processes_and_activities_linked_to_this_agent": {
      "other_information": {
        "original_name": "Other Information",
        "value": "No other related information on this agent was found.",
        "links": [],
        "cross_references": []
      }
    }
  },
  "cross_references": [
    {
      "type": "name_match",
      "text": "burn",
      "confidence": 1.0,
      "uuid": "63665de5-6376-4918-8dbf-4c10c4d63837",
      "name": "burn",
      "url": "https://haz-map.com/Findings/204",
      "category": "findings"
    },
    {
      "type": "name_match",
      "text": "phosphoric acid",
      "confidence": 1.0,
      "uuid": "9049e74c-22b3-4fb1-8e7f-53f17c0ec74a",
      "name": "Phosphoric acid",
      "url": "https://haz-map.com/Agents/595",
      "category": "agents"
    },
    {
      "type": "name_match",
      "text": "organophosphates",
      "confidence": 1.0,
      "uuid": "8d2d239c-20f9-4f02-9916-5e7667b9990c",
      "name": "ORGANOPHOSPHATES",
      "url": "https://haz-map.com/Agents/702",
      "category": "agents"
    },
    {
      "type": "name_match",
      "text": "hydrogen",
      "confidence": 1.0,
      "uuid": "e2d9645f-5559-4d88-b820-fc4710c154f2",
      "name": "Hydrogen",
      "url": "https://haz-map.com/Agents/1070",
      "category": "agents"
    },
    {
      "type": "name_match",
      "text": "bis(2-ethylhexyl) phosphorodithioate",
      "confidence": 1.0,
      "uuid": "859ccd9b-14fc-431b-870e-1c6255adc143",
      "name": "Bis(2-ethylhexyl) phosphorodithioate",
      "url": "https://haz-map.com/Agents/3962",
      "category": "agents"
    },
    {
      "type": "name_match",
      "text": "grease",
      "confidence": 1.0,
      "uuid": "bf476c67-9302-4215-a263-a67d337ab9ef",
      "name": "Grease",
      "url": "https://haz-map.com/Agents/21033",
      "category": "agents"
    }
  ],
  "all_links": [
    {
      "text": "Search PubMed",
      "url": "https://www.ncbi.nlm.nih.gov/pubmed?term=Bis(2-ethylhexyl)+phosphorodithioate%20AND%20human%5Bmh%5D%20AND%20%28Occupational%20Diseases%20%5Bmh%5D%20OR%20Occupational%20Exposure%20%5Bmh%5D%29%20%20AND%20%28tox%5Bsb%5D%29&cmd=search"
    }
  ]
}