{
  "metadata": {
    "scraped_from": "https://haz-map.com/Agents/1551",
    "entity_name": "Chlorotrifluoromethane",
    "category": "agents",
    "uuid": "85e23aba-d129-442b-9660-5e3c15e6fa06",
    "scraped_at": "2025-07-23T19:01:02.149903"
  },
  "parsed_at": "2025-07-24T01:13:12.941243",
  "title": "Chlorotrifluoromethane",
  "sections": {
    "general": {
      "agent_name": {
        "original_name": "Agent Name",
        "value": "Chlorotrifluoromethane",
        "links": [],
        "cross_references": [
          {
            "type": "name_match",
            "text": "methane",
            "confidence": 1.0,
            "uuid": "5018bf73-24be-4353-8643-c351d5f52186",
            "name": "Methane",
            "url": "https://haz-map.com/Agents/1074",
            "category": "agents"
          },
          {
            "type": "name_match",
            "text": "ethane",
            "confidence": 1.0,
            "uuid": "5162cc8c-dfb9-4060-81ac-38a8cec7f9dd",
            "name": "Ethane",
            "url": "https://haz-map.com/Agents/1075",
            "category": "agents"
          },
          {
            "type": "name_match",
            "text": "trifluoromethane",
            "confidence": 1.0,
            "uuid": "296989b6-c9a5-49ac-bccd-41b72547b13d",
            "name": "Trifluoromethane",
            "url": "https://haz-map.com/Agents/1538",
            "category": "agents"
          },
          {
            "type": "name_match",
            "text": "chlorotrifluoromethane",
            "confidence": 1.0,
            "uuid": "85e23aba-d129-442b-9660-5e3c15e6fa06",
            "name": "Chlorotrifluoromethane",
            "url": "https://haz-map.com/Agents/1551",
            "category": "agents"
          },
          {
            "type": "name_match",
            "text": "fluoromethane",
            "confidence": 1.0,
            "uuid": "c299ba98-15e9-4c6a-a5c2-5efb3b88eb71",
            "name": "Fluoromethane",
            "url": "https://haz-map.com/Agents/8543",
            "category": "agents"
          }
        ]
      },
      "cas_number": {
        "original_name": "CAS Number",
        "value": "75-72-9",
        "links": [],
        "cross_references": []
      },
      "formula": {
        "original_name": "Formula",
        "value": "C-Cl-F3",
        "links": [],
        "cross_references": []
      },
      "major_category": {
        "original_name": "Major Category",
        "value": "Solvents",
        "links": [],
        "cross_references": []
      },
      "synonyms": {
        "original_name": "Synonyms",
        "value": "Arcton 3; F 13; FC 13; Fluorocarbon 13; Freon 13; Frigen 13; Genetron 13; Halocarbon 13/ucon 13; Methane, chlorotrifluoro-; Methane, monochlorotrifluoro-; Monochlorotrifluoromethane; R 13; Trifluorochloromethane; Trifluoromethyl chloride; Trifluoromonochlorocarbon; UN1022; [ChemIDplus]",
        "links": [],
        "cross_references": [
          {
            "type": "name_match",
            "text": "ethyl chloride",
            "confidence": 1.0,
            "uuid": "5beffaec-7903-4a06-87c6-d5a754bd0575",
            "name": "Ethyl chloride",
            "url": "https://haz-map.com/Agents/59",
            "category": "agents"
          },
          {
            "type": "name_match",
            "text": "methyl chloride",
            "confidence": 1.0,
            "uuid": "aca74000-c56c-44e7-b27d-5d7d3e056f5d",
            "name": "Methyl chloride",
            "url": "https://haz-map.com/Agents/153",
            "category": "agents"
          },
          {
            "type": "name_match",
            "text": "methane",
            "confidence": 1.0,
            "uuid": "5018bf73-24be-4353-8643-c351d5f52186",
            "name": "Methane",
            "url": "https://haz-map.com/Agents/1074",
            "category": "agents"
          },
          {
            "type": "name_match",
            "text": "ethane",
            "confidence": 1.0,
            "uuid": "5162cc8c-dfb9-4060-81ac-38a8cec7f9dd",
            "name": "Ethane",
            "url": "https://haz-map.com/Agents/1075",
            "category": "agents"
          },
          {
            "type": "name_match",
            "text": "trifluoromethane",
            "confidence": 1.0,
            "uuid": "296989b6-c9a5-49ac-bccd-41b72547b13d",
            "name": "Trifluoromethane",
            "url": "https://haz-map.com/Agents/1538",
            "category": "agents"
          },
          {
            "type": "name_match",
            "text": "chlorotrifluoromethane",
            "confidence": 1.0,
            "uuid": "85e23aba-d129-442b-9660-5e3c15e6fa06",
            "name": "Chlorotrifluoromethane",
            "url": "https://haz-map.com/Agents/1551",
            "category": "agents"
          },
          {
            "type": "name_match",
            "text": "carbon",
            "confidence": 1.0,
            "uuid": "b53f8815-ee80-40ef-b4aa-3b000e17dab5",
            "name": "Carbon",
            "url": "https://haz-map.com/Agents/1891",
            "category": "agents"
          },
          {
            "type": "name_match",
            "text": "fluoromethane",
            "confidence": 1.0,
            "uuid": "c299ba98-15e9-4c6a-a5c2-5efb3b88eb71",
            "name": "Fluoromethane",
            "url": "https://haz-map.com/Agents/8543",
            "category": "agents"
          }
        ]
      },
      "category": {
        "original_name": "Category",
        "value": "Chlorofluorocarbons",
        "links": [],
        "cross_references": [
          {
            "type": "name_match",
            "text": "chlorofluorocarbons",
            "confidence": 1.0,
            "uuid": "c53ddd7f-3e80-4621-be68-94100ed642c8",
            "name": "CHLOROFLUOROCARBONS",
            "url": "https://haz-map.com/Agents/706",
            "category": "agents"
          },
          {
            "type": "name_match",
            "text": "carbon",
            "confidence": 1.0,
            "uuid": "b53f8815-ee80-40ef-b4aa-3b000e17dab5",
            "name": "Carbon",
            "url": "https://haz-map.com/Agents/1891",
            "category": "agents"
          }
        ]
      },
      "description": {
        "original_name": "Description",
        "value": "Colorless, odorless gas; [CHRIS]",
        "links": [],
        "cross_references": []
      },
      "sourcesuses": {
        "original_name": "Sources/Uses",
        "value": "Used as a refrigerant, coolant, dielectic, metal hardener, and etching gas; [HSDB]",
        "links": [],
        "cross_references": []
      },
      "comments": {
        "original_name": "Comments",
        "value": "Liquid contact may cause frostbite; [CHRIS] See \"CHLOROFLUOROCARBONS.\"",
        "links": [],
        "cross_references": [
          {
            "type": "name_match",
            "text": "chlorofluorocarbons",
            "confidence": 1.0,
            "uuid": "c53ddd7f-3e80-4621-be68-94100ed642c8",
            "name": "CHLOROFLUOROCARBONS",
            "url": "https://haz-map.com/Agents/706",
            "category": "agents"
          },
          {
            "type": "name_match",
            "text": "carbon",
            "confidence": 1.0,
            "uuid": "b53f8815-ee80-40ef-b4aa-3b000e17dab5",
            "name": "Carbon",
            "url": "https://haz-map.com/Agents/1891",
            "category": "agents"
          }
        ]
      },
      "biomedical_references": {
        "original_name": "Biomedical References",
        "value": "Search PubMed",
        "links": [
          {
            "text": "Search PubMed",
            "url": "https://www.ncbi.nlm.nih.gov/pubmed?term=Chlorotrifluoromethane%20AND%20human%5Bmh%5D%20AND%20%28Occupational%20Diseases%20%5Bmh%5D%20OR%20Occupational%20Exposure%20%5Bmh%5D%29%20%20AND%20%28tox%5Bsb%5D%29&cmd=search"
          }
        ],
        "cross_references": []
      }
    },
    "exposure_assessment": {
      "mak": {
        "original_name": "MAK",
        "value": "1000 ppm",
        "links": [],
        "cross_references": []
      },
      "vapor_pressure": {
        "original_name": "Vapor Pressure",
        "value": "21400 mm Hg",
        "links": [],
        "cross_references": []
      }
    },
    "adverse_effects": {
      "neurotoxin": {
        "original_name": "Neurotoxin",
        "value": "Acute solvent syndrome",
        "links": [],
        "cross_references": []
      },
      "other_poison": {
        "original_name": "Other Poison",
        "value": "Simple Asphyxiant",
        "links": [],
        "cross_references": []
      }
    },
    "diseases_processes_and_activities_linked_to_this_agent": {
      "diseases": {
        "original_name": "Diseases",
        "value": "Occupational diseases associated with exposure to this agent: Asphyxiation, simple Solvents, acute toxic effect",
        "links": [
          {
            "text": "Asphyxiation, simple",
            "url": "https://haz-map.com/Diseases/350"
          },
          {
            "text": "Solvents, acute toxic effect",
            "url": "https://haz-map.com/Diseases/326"
          }
        ],
        "cross_references": [
          {
            "type": "url_match",
            "text": "Asphyxiation, simple",
            "url": "https://haz-map.com/Diseases/350",
            "confidence": 1.0,
            "uuid": "f9936602-4ce5-4b46-944a-f9aa73462bfd",
            "name": "Asphyxiation, simple",
            "category": "diseases"
          },
          {
            "type": "url_match",
            "text": "Solvents, acute toxic effect",
            "url": "https://haz-map.com/Diseases/326",
            "confidence": 1.0,
            "uuid": "581e90e3-9d0c-45f0-aa6c-3468c28da129",
            "name": "Solvents, acute toxic effect",
            "category": "diseases"
          }
        ]
      }
    }
  },
  "cross_references": [
    {
      "type": "url_match",
      "text": "Asphyxiation, simple",
      "url": "https://haz-map.com/Diseases/350",
      "confidence": 1.0,
      "uuid": "f9936602-4ce5-4b46-944a-f9aa73462bfd",
      "name": "Asphyxiation, simple",
      "category": "diseases"
    },
    {
      "type": "url_match",
      "text": "Solvents, acute toxic effect",
      "url": "https://haz-map.com/Diseases/326",
      "confidence": 1.0,
      "uuid": "581e90e3-9d0c-45f0-aa6c-3468c28da129",
      "name": "Solvents, acute toxic effect",
      "category": "diseases"
    },
    {
      "type": "name_match",
      "text": "ethyl chloride",
      "confidence": 1.0,
      "uuid": "5beffaec-7903-4a06-87c6-d5a754bd0575",
      "name": "Ethyl chloride",
      "url": "https://haz-map.com/Agents/59",
      "category": "agents"
    },
    {
      "type": "name_match",
      "text": "methyl chloride",
      "confidence": 1.0,
      "uuid": "aca74000-c56c-44e7-b27d-5d7d3e056f5d",
      "name": "Methyl chloride",
      "url": "https://haz-map.com/Agents/153",
      "category": "agents"
    },
    {
      "type": "name_match",
      "text": "chlorofluorocarbons",
      "confidence": 1.0,
      "uuid": "c53ddd7f-3e80-4621-be68-94100ed642c8",
      "name": "CHLOROFLUOROCARBONS",
      "url": "https://haz-map.com/Agents/706",
      "category": "agents"
    },
    {
      "type": "name_match",
      "text": "methane",
      "confidence": 1.0,
      "uuid": "5018bf73-24be-4353-8643-c351d5f52186",
      "name": "Methane",
      "url": "https://haz-map.com/Agents/1074",
      "category": "agents"
    },
    {
      "type": "name_match",
      "text": "ethane",
      "confidence": 1.0,
      "uuid": "5162cc8c-dfb9-4060-81ac-38a8cec7f9dd",
      "name": "Ethane",
      "url": "https://haz-map.com/Agents/1075",
      "category": "agents"
    },
    {
      "type": "name_match",
      "text": "trifluoromethane",
      "confidence": 1.0,
      "uuid": "296989b6-c9a5-49ac-bccd-41b72547b13d",
      "name": "Trifluoromethane",
      "url": "https://haz-map.com/Agents/1538",
      "category": "agents"
    },
    {
      "type": "name_match",
      "text": "chlorotrifluoromethane",
      "confidence": 1.0,
      "uuid": "85e23aba-d129-442b-9660-5e3c15e6fa06",
      "name": "Chlorotrifluoromethane",
      "url": "https://haz-map.com/Agents/1551",
      "category": "agents"
    },
    {
      "type": "name_match",
      "text": "carbon",
      "confidence": 1.0,
      "uuid": "b53f8815-ee80-40ef-b4aa-3b000e17dab5",
      "name": "Carbon",
      "url": "https://haz-map.com/Agents/1891",
      "category": "agents"
    },
    {
      "type": "name_match",
      "text": "fluoromethane",
      "confidence": 1.0,
      "uuid": "c299ba98-15e9-4c6a-a5c2-5efb3b88eb71",
      "name": "Fluoromethane",
      "url": "https://haz-map.com/Agents/8543",
      "category": "agents"
    }
  ],
  "all_links": [
    {
      "text": "Search PubMed",
      "url": "https://www.ncbi.nlm.nih.gov/pubmed?term=Chlorotrifluoromethane%20AND%20human%5Bmh%5D%20AND%20%28Occupational%20Diseases%20%5Bmh%5D%20OR%20Occupational%20Exposure%20%5Bmh%5D%29%20%20AND%20%28tox%5Bsb%5D%29&cmd=search"
    },
    {
      "text": "Asphyxiation, simple",
      "url": "https://haz-map.com/Diseases/350"
    },
    {
      "text": "Solvents, acute toxic effect",
      "url": "https://haz-map.com/Diseases/326"
    }
  ]
}