{
  "metadata": {
    "scraped_from": "https://haz-map.com/Agents/13912",
    "entity_name": "Isobutyl formate",
    "category": "agents",
    "uuid": "860e121f-745e-478f-85c2-8873c65b95e5",
    "scraped_at": "2025-07-23T21:19:16.962930"
  },
  "parsed_at": "2025-07-24T00:57:27.031817",
  "title": "Isobutyl formate",
  "sections": {
    "general": {
      "agent_name": {
        "original_name": "Agent Name",
        "value": "Isobutyl formate",
        "links": [],
        "cross_references": [
          {
            "type": "name_match",
            "text": "isobutyl formate",
            "confidence": 1.0,
            "uuid": "860e121f-745e-478f-85c2-8873c65b95e5",
            "name": "Isobutyl formate",
            "url": "https://haz-map.com/Agents/13912",
            "category": "agents"
          },
          {
            "type": "name_match",
            "text": "butyl formate",
            "confidence": 1.0,
            "uuid": "73fb81f6-1407-458a-a7b7-65981cf8b29a",
            "name": "Butyl formate",
            "url": "https://haz-map.com/Agents/13913",
            "category": "agents"
          }
        ]
      },
      "cas_number": {
        "original_name": "CAS Number",
        "value": "542-55-2",
        "links": [],
        "cross_references": []
      },
      "formula": {
        "original_name": "Formula",
        "value": "C5-H10-O2",
        "links": [],
        "cross_references": []
      },
      "major_category": {
        "original_name": "Major Category",
        "value": "Solvents",
        "links": [],
        "cross_references": []
      },
      "synonyms": {
        "original_name": "Synonyms",
        "value": "2-Methyl-1-propyl formate; 2-Methylpropyl formate; Formic acid, 2-methylpropyl ester; Formic acid, isobutyl ester; Iso-butyl formate; Isobutyl formate (natural); Isobutyl methanoate; Isobutyl methanote; Isobutylester kyseliny mravenci [Czech]; Tetryl formate; [ChemIDplus] UN2393",
        "links": [],
        "cross_references": [
          {
            "type": "name_match",
            "text": "formic acid",
            "confidence": 1.0,
            "uuid": "5de50e8b-f1d4-40c0-a85a-79ed7fd08ea8",
            "name": "Formic acid",
            "url": "https://haz-map.com/Agents/497",
            "category": "agents"
          },
          {
            "type": "name_match",
            "text": "tetryl",
            "confidence": 1.0,
            "uuid": "925c90c0-2787-4096-af21-4891139000d4",
            "name": "Tetryl",
            "url": "https://haz-map.com/Agents/652",
            "category": "agents"
          },
          {
            "type": "name_match",
            "text": "isobutyl formate",
            "confidence": 1.0,
            "uuid": "860e121f-745e-478f-85c2-8873c65b95e5",
            "name": "Isobutyl formate",
            "url": "https://haz-map.com/Agents/13912",
            "category": "agents"
          },
          {
            "type": "name_match",
            "text": "butyl formate",
            "confidence": 1.0,
            "uuid": "73fb81f6-1407-458a-a7b7-65981cf8b29a",
            "name": "Butyl formate",
            "url": "https://haz-map.com/Agents/13913",
            "category": "agents"
          },
          {
            "type": "name_match",
            "text": "propyl formate",
            "confidence": 1.0,
            "uuid": "fe75da5d-6043-4300-9cc9-364039ad53ec",
            "name": "Propyl formate",
            "url": "https://haz-map.com/Agents/16965",
            "category": "agents"
          }
        ]
      },
      "category": {
        "original_name": "Category",
        "value": "Esters (<C12)",
        "links": [],
        "cross_references": []
      },
      "description": {
        "original_name": "Description",
        "value": "Colorless liquid; [CAMEO] Clear light yellow liquid; [Acros Organics MSDS]",
        "links": [],
        "cross_references": [
          {
            "type": "name_match",
            "text": "ht",
            "confidence": 1.0,
            "uuid": "764df367-8d53-4a11-81a2-31ccfe122a8d",
            "name": "HT",
            "url": "https://haz-map.com/Agents/2168",
            "category": "agents"
          }
        ]
      },
      "sourcesuses": {
        "original_name": "Sources/Uses",
        "value": "Used as a solvent and to make perfumes; [CAMEO] Used as flavoring agent or adjuvant; [FDA] \"Isobutyl formate (2-methylpropyl methanoate) is an organic ester with the chemical formula C5H10O2. It is formed by diluting isobutanol with formic acid; sulfuric acid can serve as a catalyst. It is used as a flavor and fragrance ingredient because of its odor which is sweet, ethereal, and slightly fruity.\" [Wikipedia]",
        "links": [],
        "cross_references": [
          {
            "type": "name_match",
            "text": "formic acid",
            "confidence": 1.0,
            "uuid": "5de50e8b-f1d4-40c0-a85a-79ed7fd08ea8",
            "name": "Formic acid",
            "url": "https://haz-map.com/Agents/497",
            "category": "agents"
          },
          {
            "type": "name_match",
            "text": "mica",
            "confidence": 1.0,
            "uuid": "433f26f1-c399-4596-b179-ce3843cfd465",
            "name": "Mica",
            "url": "https://haz-map.com/Agents/621",
            "category": "agents"
          },
          {
            "type": "name_match",
            "text": "sulfuric acid",
            "confidence": 1.0,
            "uuid": "68b10130-8bd0-4778-a4f8-832c880d23aa",
            "name": "Sulfuric acid",
            "url": "https://haz-map.com/Agents/635",
            "category": "agents"
          },
          {
            "type": "name_match",
            "text": "sulfur",
            "confidence": 1.0,
            "uuid": "5aabdef6-71c8-44c8-b762-feaabff50696",
            "name": "Sulfur",
            "url": "https://haz-map.com/Agents/1942",
            "category": "agents"
          },
          {
            "type": "name_match",
            "text": "ht",
            "confidence": 1.0,
            "uuid": "764df367-8d53-4a11-81a2-31ccfe122a8d",
            "name": "HT",
            "url": "https://haz-map.com/Agents/2168",
            "category": "agents"
          },
          {
            "type": "name_match",
            "text": "isobutyl formate",
            "confidence": 1.0,
            "uuid": "860e121f-745e-478f-85c2-8873c65b95e5",
            "name": "Isobutyl formate",
            "url": "https://haz-map.com/Agents/13912",
            "category": "agents"
          },
          {
            "type": "name_match",
            "text": "butyl formate",
            "confidence": 1.0,
            "uuid": "73fb81f6-1407-458a-a7b7-65981cf8b29a",
            "name": "Butyl formate",
            "url": "https://haz-map.com/Agents/13913",
            "category": "agents"
          },
          {
            "type": "name_match",
            "text": "uric acid",
            "confidence": 1.0,
            "uuid": "bd67e9b1-899e-4f1c-95f0-d25380f3c966",
            "name": "Uric acid",
            "url": "https://haz-map.com/Agents/18587",
            "category": "agents"
          }
        ]
      },
      "comments": {
        "original_name": "Comments",
        "value": "High vapor concentrations may cause irritation and narcotic effects; [CAMEO] Safe when used as a flavoring agent in food; [JECFA] May cause irritation; [Acros Organics MSDS]",
        "links": [],
        "cross_references": []
      },
      "biomedical_references": {
        "original_name": "Biomedical References",
        "value": "Search PubMed",
        "links": [
          {
            "text": "Search PubMed",
            "url": "https://www.ncbi.nlm.nih.gov/pubmed?term=Isobutyl+formate%20AND%20human%5Bmh%5D%20AND%20%28Occupational%20Diseases%20%5Bmh%5D%20OR%20Occupational%20Exposure%20%5Bmh%5D%29%20%20AND%20%28tox%5Bsb%5D%29&cmd=search"
          }
        ],
        "cross_references": []
      }
    },
    "exposure_assessment": {
      "vapor_pressure": {
        "original_name": "Vapor Pressure",
        "value": "40.1 mm Hg",
        "links": [],
        "cross_references": []
      },
      "nfpa": {
        "original_name": "NFPA",
        "value": "may ignite at ambient temp",
        "links": [],
        "cross_references": []
      }
    },
    "adverse_effects": {
      "neurotoxin": {
        "original_name": "Neurotoxin",
        "value": "Acute solvent syndrome",
        "links": [],
        "cross_references": []
      }
    },
    "diseases_processes_and_activities_linked_to_this_agent": {
      "diseases": {
        "original_name": "Diseases",
        "value": "Occupational diseases associated with exposure to this agent: Solvents, acute toxic effect",
        "links": [
          {
            "text": "Solvents, acute toxic effect",
            "url": "https://haz-map.com/Diseases/326"
          }
        ],
        "cross_references": [
          {
            "type": "url_match",
            "text": "Solvents, acute toxic effect",
            "url": "https://haz-map.com/Diseases/326",
            "confidence": 1.0,
            "uuid": "581e90e3-9d0c-45f0-aa6c-3468c28da129",
            "name": "Solvents, acute toxic effect",
            "category": "diseases"
          }
        ]
      }
    }
  },
  "cross_references": [
    {
      "type": "url_match",
      "text": "Solvents, acute toxic effect",
      "url": "https://haz-map.com/Diseases/326",
      "confidence": 1.0,
      "uuid": "581e90e3-9d0c-45f0-aa6c-3468c28da129",
      "name": "Solvents, acute toxic effect",
      "category": "diseases"
    },
    {
      "type": "name_match",
      "text": "formic acid",
      "confidence": 1.0,
      "uuid": "5de50e8b-f1d4-40c0-a85a-79ed7fd08ea8",
      "name": "Formic acid",
      "url": "https://haz-map.com/Agents/497",
      "category": "agents"
    },
    {
      "type": "name_match",
      "text": "mica",
      "confidence": 1.0,
      "uuid": "433f26f1-c399-4596-b179-ce3843cfd465",
      "name": "Mica",
      "url": "https://haz-map.com/Agents/621",
      "category": "agents"
    },
    {
      "type": "name_match",
      "text": "sulfuric acid",
      "confidence": 1.0,
      "uuid": "68b10130-8bd0-4778-a4f8-832c880d23aa",
      "name": "Sulfuric acid",
      "url": "https://haz-map.com/Agents/635",
      "category": "agents"
    },
    {
      "type": "name_match",
      "text": "tetryl",
      "confidence": 1.0,
      "uuid": "925c90c0-2787-4096-af21-4891139000d4",
      "name": "Tetryl",
      "url": "https://haz-map.com/Agents/652",
      "category": "agents"
    },
    {
      "type": "name_match",
      "text": "sulfur",
      "confidence": 1.0,
      "uuid": "5aabdef6-71c8-44c8-b762-feaabff50696",
      "name": "Sulfur",
      "url": "https://haz-map.com/Agents/1942",
      "category": "agents"
    },
    {
      "type": "name_match",
      "text": "ht",
      "confidence": 1.0,
      "uuid": "764df367-8d53-4a11-81a2-31ccfe122a8d",
      "name": "HT",
      "url": "https://haz-map.com/Agents/2168",
      "category": "agents"
    },
    {
      "type": "name_match",
      "text": "isobutyl formate",
      "confidence": 1.0,
      "uuid": "860e121f-745e-478f-85c2-8873c65b95e5",
      "name": "Isobutyl formate",
      "url": "https://haz-map.com/Agents/13912",
      "category": "agents"
    },
    {
      "type": "name_match",
      "text": "butyl formate",
      "confidence": 1.0,
      "uuid": "73fb81f6-1407-458a-a7b7-65981cf8b29a",
      "name": "Butyl formate",
      "url": "https://haz-map.com/Agents/13913",
      "category": "agents"
    },
    {
      "type": "name_match",
      "text": "propyl formate",
      "confidence": 1.0,
      "uuid": "fe75da5d-6043-4300-9cc9-364039ad53ec",
      "name": "Propyl formate",
      "url": "https://haz-map.com/Agents/16965",
      "category": "agents"
    },
    {
      "type": "name_match",
      "text": "uric acid",
      "confidence": 1.0,
      "uuid": "bd67e9b1-899e-4f1c-95f0-d25380f3c966",
      "name": "Uric acid",
      "url": "https://haz-map.com/Agents/18587",
      "category": "agents"
    }
  ],
  "all_links": [
    {
      "text": "Search PubMed",
      "url": "https://www.ncbi.nlm.nih.gov/pubmed?term=Isobutyl+formate%20AND%20human%5Bmh%5D%20AND%20%28Occupational%20Diseases%20%5Bmh%5D%20OR%20Occupational%20Exposure%20%5Bmh%5D%29%20%20AND%20%28tox%5Bsb%5D%29&cmd=search"
    },
    {
      "text": "Solvents, acute toxic effect",
      "url": "https://haz-map.com/Diseases/326"
    }
  ]
}