{
  "metadata": {
    "scraped_from": "https://haz-map.com/Agents/20423",
    "entity_name": "2-Chloroacetal",
    "category": "agents",
    "uuid": "869d1eca-a238-43d4-9083-5835cf7222d5",
    "scraped_at": "2025-07-23T22:25:04.477787"
  },
  "parsed_at": "2025-07-24T01:04:04.642629",
  "title": "2-Chloroacetal",
  "sections": {
    "general": {
      "agent_name": {
        "original_name": "Agent Name",
        "value": "2-Chloroacetal",
        "links": [],
        "cross_references": [
          {
            "type": "name_match",
            "text": "acetal",
            "confidence": 1.0,
            "uuid": "1ee09b5b-04fd-47c0-ab34-a2d9db740bcb",
            "name": "Acetal",
            "url": "https://haz-map.com/Agents/3381",
            "category": "agents"
          },
          {
            "type": "name_match",
            "text": "2-chloroacetal",
            "confidence": 1.0,
            "uuid": "869d1eca-a238-43d4-9083-5835cf7222d5",
            "name": "2-Chloroacetal",
            "url": "https://haz-map.com/Agents/20423",
            "category": "agents"
          }
        ]
      },
      "cas_number": {
        "original_name": "CAS Number",
        "value": "621-62-5",
        "links": [],
        "cross_references": []
      },
      "formula": {
        "original_name": "Formula",
        "value": "C6-H13-Cl-O2",
        "links": [],
        "cross_references": []
      },
      "major_category": {
        "original_name": "Major Category",
        "value": "Other Classes",
        "links": [],
        "cross_references": []
      },
      "synonyms": {
        "original_name": "Synonyms",
        "value": "1,1-Diethoxy-2-chloroethane; 2-Chloro-1,1-diethoxyethane; 2-Chloroacetaldehyde diethyl acetal; Chloroacetaldehyde diethyl acetal; Diethoxyethyl chloride; Monochloroacetaldehyde diethyl acetal; Acetaldehyde, chloro-, diethyl acetal (8CI); Ethane, 2-chloro-1,1-diethoxy-; [ChemIDplus] UN1993",
        "links": [],
        "cross_references": [
          {
            "type": "name_match",
            "text": "ethyl chloride",
            "confidence": 1.0,
            "uuid": "5beffaec-7903-4a06-87c6-d5a754bd0575",
            "name": "Ethyl chloride",
            "url": "https://haz-map.com/Agents/59",
            "category": "agents"
          },
          {
            "type": "name_match",
            "text": "acetaldehyde",
            "confidence": 1.0,
            "uuid": "fe4656a6-c05e-430a-bdd9-e053a298707a",
            "name": "Acetaldehyde",
            "url": "https://haz-map.com/Agents/94",
            "category": "agents"
          },
          {
            "type": "name_match",
            "text": "chloroacetaldehyde",
            "confidence": 1.0,
            "uuid": "8930a242-f2a9-49d2-8066-66b542f4e5c0",
            "name": "Chloroacetaldehyde",
            "url": "https://haz-map.com/Agents/352",
            "category": "agents"
          },
          {
            "type": "name_match",
            "text": "ethane",
            "confidence": 1.0,
            "uuid": "5162cc8c-dfb9-4060-81ac-38a8cec7f9dd",
            "name": "Ethane",
            "url": "https://haz-map.com/Agents/1075",
            "category": "agents"
          },
          {
            "type": "name_match",
            "text": "acetal",
            "confidence": 1.0,
            "uuid": "1ee09b5b-04fd-47c0-ab34-a2d9db740bcb",
            "name": "Acetal",
            "url": "https://haz-map.com/Agents/3381",
            "category": "agents"
          },
          {
            "type": "name_match",
            "text": "2-chloroacetal",
            "confidence": 1.0,
            "uuid": "869d1eca-a238-43d4-9083-5835cf7222d5",
            "name": "2-Chloroacetal",
            "url": "https://haz-map.com/Agents/20423",
            "category": "agents"
          }
        ]
      },
      "category": {
        "original_name": "Category",
        "value": "Acetals",
        "links": [],
        "cross_references": [
          {
            "type": "name_match",
            "text": "acetal",
            "confidence": 1.0,
            "uuid": "1ee09b5b-04fd-47c0-ab34-a2d9db740bcb",
            "name": "Acetal",
            "url": "https://haz-map.com/Agents/3381",
            "category": "agents"
          }
        ]
      },
      "description": {
        "original_name": "Description",
        "value": "Colorless liquid; [Alfa Aesar MSDS]",
        "links": [],
        "cross_references": []
      },
      "comments": {
        "original_name": "Comments",
        "value": "May cause irritation; Toxic by ingestion; [Alfa Aesar MSDS] See \"Bis(2-chloro-1-methylethyl) ether\" and \"Chloromethyl ethyl ether.\" See \"Acetal.\"",
        "links": [],
        "cross_references": [
          {
            "type": "name_match",
            "text": "ethyl ether",
            "confidence": 1.0,
            "uuid": "c95edddc-9ad3-44f8-bafa-78e0bd19db3a",
            "name": "Ethyl ether",
            "url": "https://haz-map.com/Agents/455",
            "category": "agents"
          },
          {
            "type": "name_match",
            "text": "acetal",
            "confidence": 1.0,
            "uuid": "1ee09b5b-04fd-47c0-ab34-a2d9db740bcb",
            "name": "Acetal",
            "url": "https://haz-map.com/Agents/3381",
            "category": "agents"
          },
          {
            "type": "name_match",
            "text": "bis(2-chloro-1-methylethyl) ether",
            "confidence": 1.0,
            "uuid": "bfc489b7-4326-47f6-8443-8a87604b7cc1",
            "name": "Bis(2-chloro-1-methylethyl) ether",
            "url": "https://haz-map.com/Agents/3938",
            "category": "agents"
          },
          {
            "type": "name_match",
            "text": "chloromethyl ethyl ether",
            "confidence": 1.0,
            "uuid": "fa41e3c1-3cc1-4800-b347-f5b0a6939096",
            "name": "Chloromethyl ethyl ether",
            "url": "https://haz-map.com/Agents/4346",
            "category": "agents"
          }
        ]
      },
      "biomedical_references": {
        "original_name": "Biomedical References",
        "value": "Search PubMed",
        "links": [
          {
            "text": "Search PubMed",
            "url": "https://www.ncbi.nlm.nih.gov/pubmed?term=2-Chloroacetal%20AND%20human%5Bmh%5D%20AND%20%28Occupational%20Diseases%20%5Bmh%5D%20OR%20Occupational%20Exposure%20%5Bmh%5D%29%20%20AND%20%28tox%5Bsb%5D%29&cmd=search"
          }
        ],
        "cross_references": []
      }
    },
    "exposure_assessment": {
      "vapor_pressure": {
        "original_name": "Vapor Pressure",
        "value": "5 mm Hg",
        "links": [],
        "cross_references": []
      },
      "explanatory_notes": {
        "original_name": "Explanatory Notes",
        "value": "The Guide in the Emergency Response Guidebook is for \"Flammable liquid, n.o.s.\"",
        "links": [],
        "cross_references": []
      }
    },
    "diseases_processes_and_activities_linked_to_this_agent": {
      "other_information": {
        "original_name": "Other Information",
        "value": "No other related information on this agent was found.",
        "links": [],
        "cross_references": []
      }
    }
  },
  "cross_references": [
    {
      "type": "name_match",
      "text": "ethyl chloride",
      "confidence": 1.0,
      "uuid": "5beffaec-7903-4a06-87c6-d5a754bd0575",
      "name": "Ethyl chloride",
      "url": "https://haz-map.com/Agents/59",
      "category": "agents"
    },
    {
      "type": "name_match",
      "text": "acetaldehyde",
      "confidence": 1.0,
      "uuid": "fe4656a6-c05e-430a-bdd9-e053a298707a",
      "name": "Acetaldehyde",
      "url": "https://haz-map.com/Agents/94",
      "category": "agents"
    },
    {
      "type": "name_match",
      "text": "chloroacetaldehyde",
      "confidence": 1.0,
      "uuid": "8930a242-f2a9-49d2-8066-66b542f4e5c0",
      "name": "Chloroacetaldehyde",
      "url": "https://haz-map.com/Agents/352",
      "category": "agents"
    },
    {
      "type": "name_match",
      "text": "ethyl ether",
      "confidence": 1.0,
      "uuid": "c95edddc-9ad3-44f8-bafa-78e0bd19db3a",
      "name": "Ethyl ether",
      "url": "https://haz-map.com/Agents/455",
      "category": "agents"
    },
    {
      "type": "name_match",
      "text": "ethane",
      "confidence": 1.0,
      "uuid": "5162cc8c-dfb9-4060-81ac-38a8cec7f9dd",
      "name": "Ethane",
      "url": "https://haz-map.com/Agents/1075",
      "category": "agents"
    },
    {
      "type": "name_match",
      "text": "acetal",
      "confidence": 1.0,
      "uuid": "1ee09b5b-04fd-47c0-ab34-a2d9db740bcb",
      "name": "Acetal",
      "url": "https://haz-map.com/Agents/3381",
      "category": "agents"
    },
    {
      "type": "name_match",
      "text": "bis(2-chloro-1-methylethyl) ether",
      "confidence": 1.0,
      "uuid": "bfc489b7-4326-47f6-8443-8a87604b7cc1",
      "name": "Bis(2-chloro-1-methylethyl) ether",
      "url": "https://haz-map.com/Agents/3938",
      "category": "agents"
    },
    {
      "type": "name_match",
      "text": "chloromethyl ethyl ether",
      "confidence": 1.0,
      "uuid": "fa41e3c1-3cc1-4800-b347-f5b0a6939096",
      "name": "Chloromethyl ethyl ether",
      "url": "https://haz-map.com/Agents/4346",
      "category": "agents"
    },
    {
      "type": "name_match",
      "text": "2-chloroacetal",
      "confidence": 1.0,
      "uuid": "869d1eca-a238-43d4-9083-5835cf7222d5",
      "name": "2-Chloroacetal",
      "url": "https://haz-map.com/Agents/20423",
      "category": "agents"
    }
  ],
  "all_links": [
    {
      "text": "Search PubMed",
      "url": "https://www.ncbi.nlm.nih.gov/pubmed?term=2-Chloroacetal%20AND%20human%5Bmh%5D%20AND%20%28Occupational%20Diseases%20%5Bmh%5D%20OR%20Occupational%20Exposure%20%5Bmh%5D%29%20%20AND%20%28tox%5Bsb%5D%29&cmd=search"
    }
  ]
}