{
  "metadata": {
    "scraped_from": "https://haz-map.com/Agents/21466",
    "entity_name": "DL-Phenylalanine",
    "category": "agents",
    "uuid": "86bbde24-784e-4437-940c-cde38ab1bbd0",
    "scraped_at": "2025-07-23T22:44:29.991991"
  },
  "parsed_at": "2025-07-24T00:54:05.933550",
  "title": "DL-Phenylalanine",
  "sections": {
    "general": {
      "agent_name": {
        "original_name": "Agent Name",
        "value": "DL-Phenylalanine",
        "links": [],
        "cross_references": [
          {
            "type": "name_match",
            "text": "alanine",
            "confidence": 1.0,
            "uuid": "0829012c-76c4-4cb5-91ac-cacb73278dc5",
            "name": "Alanine",
            "url": "https://haz-map.com/Agents/11406",
            "category": "agents"
          },
          {
            "type": "name_match",
            "text": "phenylalanine",
            "confidence": 1.0,
            "uuid": "8be416e5-4a8c-41fd-bcc7-d2a9217599fb",
            "name": "Phenylalanine",
            "url": "https://haz-map.com/Agents/16561",
            "category": "agents"
          },
          {
            "type": "name_match",
            "text": "dl-phenylalanine",
            "confidence": 1.0,
            "uuid": "86bbde24-784e-4437-940c-cde38ab1bbd0",
            "name": "DL-Phenylalanine",
            "url": "https://haz-map.com/Agents/21466",
            "category": "agents"
          }
        ]
      },
      "cas_number": {
        "original_name": "CAS Number",
        "value": "150-30-1",
        "links": [],
        "cross_references": []
      },
      "formula": {
        "original_name": "Formula",
        "value": "C9-H11-N-O2",
        "links": [],
        "cross_references": []
      },
      "major_category": {
        "original_name": "Major Category",
        "value": "Biological Agents",
        "links": [],
        "cross_references": []
      },
      "synonyms": {
        "original_name": "Synonyms",
        "value": "Phenylalanine DL-form; Phenylalanine, dl-; 2-Amino-3-phenylpropionic acid, dl-; Alanine, phenyl-, dl-; alpha-Aminohydrocinnamic acid, dl-; DL-2-Amino-3-phenylpropanoic acid; DL-3-Phenylalanine; DL-alpha-Amino-beta-phenylpropionic acid; DLPA; Alanine, phenyl-, DL- (8CI); [ChemIDplus] (+/-)-2-Amino-3-phenylpropionic acid; [Sigma-Aldrich MSDS]",
        "links": [],
        "cross_references": [
          {
            "type": "name_match",
            "text": "propionic acid",
            "confidence": 1.0,
            "uuid": "519c4d0a-ac6f-4f79-a08f-47ebc278e0b4",
            "name": "Propionic acid",
            "url": "https://haz-map.com/Agents/609",
            "category": "agents"
          },
          {
            "type": "name_match",
            "text": "hydrocinnamic acid",
            "confidence": 1.0,
            "uuid": "28fc8081-c387-4095-b941-c137a15eb862",
            "name": "Hydrocinnamic acid",
            "url": "https://haz-map.com/Agents/10825",
            "category": "agents"
          },
          {
            "type": "name_match",
            "text": "alanine",
            "confidence": 1.0,
            "uuid": "0829012c-76c4-4cb5-91ac-cacb73278dc5",
            "name": "Alanine",
            "url": "https://haz-map.com/Agents/11406",
            "category": "agents"
          },
          {
            "type": "name_match",
            "text": "cinnamic acid",
            "confidence": 1.0,
            "uuid": "36c7cc13-9a22-4833-a693-400904298b8e",
            "name": "Cinnamic acid",
            "url": "https://haz-map.com/Agents/13034",
            "category": "agents"
          },
          {
            "type": "name_match",
            "text": "phenylalanine",
            "confidence": 1.0,
            "uuid": "8be416e5-4a8c-41fd-bcc7-d2a9217599fb",
            "name": "Phenylalanine",
            "url": "https://haz-map.com/Agents/16561",
            "category": "agents"
          }
        ]
      },
      "category": {
        "original_name": "Category",
        "value": "Amino Acids and Derivatives",
        "links": [],
        "cross_references": []
      },
      "description": {
        "original_name": "Description",
        "value": "Solid; [Merck Index] White powder; [Sigma-Aldrich MSDS]",
        "links": [],
        "cross_references": []
      },
      "sourcesuses": {
        "original_name": "Sources/Uses",
        "value": "Used as a component of aspartame and as a nutrient; [Merck Index] Used as a flavoring agent; [FDA]",
        "links": [],
        "cross_references": [
          {
            "type": "name_match",
            "text": "aspartame",
            "confidence": 1.0,
            "uuid": "2e0b2946-5d6a-4bab-a558-268e73380c1c",
            "name": "Aspartame",
            "url": "https://haz-map.com/Agents/20264",
            "category": "agents"
          }
        ]
      },
      "comments": {
        "original_name": "Comments",
        "value": "Safe when used as a flavoring agent in food; [EFSA] Not considered hazardous by GHS classification; [Sigma-Aldrich MSDS] See \"Phenylalanine.\"",
        "links": [],
        "cross_references": [
          {
            "type": "name_match",
            "text": "alanine",
            "confidence": 1.0,
            "uuid": "0829012c-76c4-4cb5-91ac-cacb73278dc5",
            "name": "Alanine",
            "url": "https://haz-map.com/Agents/11406",
            "category": "agents"
          },
          {
            "type": "name_match",
            "text": "phenylalanine",
            "confidence": 1.0,
            "uuid": "8be416e5-4a8c-41fd-bcc7-d2a9217599fb",
            "name": "Phenylalanine",
            "url": "https://haz-map.com/Agents/16561",
            "category": "agents"
          }
        ]
      },
      "biomedical_references": {
        "original_name": "Biomedical References",
        "value": "Search PubMed",
        "links": [
          {
            "text": "Search PubMed",
            "url": "https://www.ncbi.nlm.nih.gov/pubmed?term=DL-Phenylalanine%20AND%20human%5Bmh%5D%20AND%20%28Occupational%20Diseases%20%5Bmh%5D%20OR%20Occupational%20Exposure%20%5Bmh%5D%29%20%20AND%20%28tox%5Bsb%5D%29&cmd=search"
          }
        ],
        "cross_references": []
      }
    },
    "exposure_assessment": {
      "vapor_pressure": {
        "original_name": "Vapor Pressure",
        "value": "4.65E-08 mm Hg",
        "links": [],
        "cross_references": []
      }
    },
    "diseases_processes_and_activities_linked_to_this_agent": {
      "other_information": {
        "original_name": "Other Information",
        "value": "No other related information on this agent was found.",
        "links": [],
        "cross_references": []
      }
    }
  },
  "cross_references": [
    {
      "type": "name_match",
      "text": "propionic acid",
      "confidence": 1.0,
      "uuid": "519c4d0a-ac6f-4f79-a08f-47ebc278e0b4",
      "name": "Propionic acid",
      "url": "https://haz-map.com/Agents/609",
      "category": "agents"
    },
    {
      "type": "name_match",
      "text": "hydrocinnamic acid",
      "confidence": 1.0,
      "uuid": "28fc8081-c387-4095-b941-c137a15eb862",
      "name": "Hydrocinnamic acid",
      "url": "https://haz-map.com/Agents/10825",
      "category": "agents"
    },
    {
      "type": "name_match",
      "text": "alanine",
      "confidence": 1.0,
      "uuid": "0829012c-76c4-4cb5-91ac-cacb73278dc5",
      "name": "Alanine",
      "url": "https://haz-map.com/Agents/11406",
      "category": "agents"
    },
    {
      "type": "name_match",
      "text": "cinnamic acid",
      "confidence": 1.0,
      "uuid": "36c7cc13-9a22-4833-a693-400904298b8e",
      "name": "Cinnamic acid",
      "url": "https://haz-map.com/Agents/13034",
      "category": "agents"
    },
    {
      "type": "name_match",
      "text": "phenylalanine",
      "confidence": 1.0,
      "uuid": "8be416e5-4a8c-41fd-bcc7-d2a9217599fb",
      "name": "Phenylalanine",
      "url": "https://haz-map.com/Agents/16561",
      "category": "agents"
    },
    {
      "type": "name_match",
      "text": "aspartame",
      "confidence": 1.0,
      "uuid": "2e0b2946-5d6a-4bab-a558-268e73380c1c",
      "name": "Aspartame",
      "url": "https://haz-map.com/Agents/20264",
      "category": "agents"
    },
    {
      "type": "name_match",
      "text": "dl-phenylalanine",
      "confidence": 1.0,
      "uuid": "86bbde24-784e-4437-940c-cde38ab1bbd0",
      "name": "DL-Phenylalanine",
      "url": "https://haz-map.com/Agents/21466",
      "category": "agents"
    }
  ],
  "all_links": [
    {
      "text": "Search PubMed",
      "url": "https://www.ncbi.nlm.nih.gov/pubmed?term=DL-Phenylalanine%20AND%20human%5Bmh%5D%20AND%20%28Occupational%20Diseases%20%5Bmh%5D%20OR%20Occupational%20Exposure%20%5Bmh%5D%29%20%20AND%20%28tox%5Bsb%5D%29&cmd=search"
    }
  ]
}