{
  "metadata": {
    "scraped_from": "https://haz-map.com/Agents/9815",
    "entity_name": "Disiloxane, 1,3-dimethyl-1,1,3,3-tetraphenyl-",
    "category": "agents",
    "uuid": "875b5f54-14fb-4d32-ae13-4c9195dcbc06",
    "scraped_at": "2025-07-23T20:42:37.266833"
  },
  "parsed_at": "2025-07-24T01:03:29.834262",
  "title": "Disiloxane, 1,3-dimethyl-1,1,3,3-tetraphenyl-",
  "sections": {
    "general": {
      "agent_name": {
        "original_name": "Agent Name",
        "value": "Disiloxane, 1,3-dimethyl-1,1,3,3-tetraphenyl-",
        "links": [],
        "cross_references": [
          {
            "type": "name_match",
            "text": "disiloxane, 1,3-dimethyl-1,1,3,3-tetraphenyl-",
            "confidence": 1.0,
            "uuid": "875b5f54-14fb-4d32-ae13-4c9195dcbc06",
            "name": "Disiloxane, 1,3-dimethyl-1,1,3,3-tetraphenyl-",
            "url": "https://haz-map.com/Agents/9815",
            "category": "agents"
          }
        ]
      },
      "cas_number": {
        "original_name": "CAS Number",
        "value": "807-28-3",
        "links": [],
        "cross_references": []
      },
      "formula": {
        "original_name": "Formula",
        "value": "C26-H26-O-Si2",
        "links": [],
        "cross_references": []
      },
      "major_category": {
        "original_name": "Major Category",
        "value": "Metals",
        "links": [],
        "cross_references": []
      },
      "synonyms": {
        "original_name": "Synonyms",
        "value": "1,1,3,3-Tetraphenyl-1,3-dimethyldisiloxane; 1,3-Dimethyl-1,1,3,3-tetraphenyldisiloxane; [ChemIDplus]",
        "links": [],
        "cross_references": []
      },
      "category": {
        "original_name": "Category",
        "value": "Metalloid Compounds (Silicon)",
        "links": [],
        "cross_references": [
          {
            "type": "name_match",
            "text": "silicon",
            "confidence": 1.0,
            "uuid": "443f4405-7a1f-47db-bf43-809557f77483",
            "name": "Silicon",
            "url": "https://haz-map.com/Agents/623",
            "category": "agents"
          }
        ]
      },
      "description": {
        "original_name": "Description",
        "value": "White solid; [Aldrich MSDS]",
        "links": [],
        "cross_references": []
      },
      "comments": {
        "original_name": "Comments",
        "value": "An irritant; [Aldrich MSDS] See \"Hexamethyldisiloxane.\"",
        "links": [],
        "cross_references": [
          {
            "type": "name_match",
            "text": "hexamethyldisiloxane",
            "confidence": 1.0,
            "uuid": "152d69f7-dd66-4d09-a6fb-55394a7f25d4",
            "name": "Hexamethyldisiloxane",
            "url": "https://haz-map.com/Agents/5523",
            "category": "agents"
          }
        ]
      },
      "biomedical_references": {
        "original_name": "Biomedical References",
        "value": "Search PubMed",
        "links": [
          {
            "text": "Search PubMed",
            "url": "https://www.ncbi.nlm.nih.gov/pubmed?term=Disiloxane%2c+1%2c3-dimethyl-1%2c1%2c3%2c3-tetraphenyl-%20AND%20human%5Bmh%5D%20AND%20%28Occupational%20Diseases%20%5Bmh%5D%20OR%20Occupational%20Exposure%20%5Bmh%5D%29%20%20AND%20%28tox%5Bsb%5D%29&cmd=search"
          }
        ],
        "cross_references": []
      }
    },
    "exposure_assessment": {
      "vapor_pressure": {
        "original_name": "Vapor Pressure",
        "value": "3.35E-09 mm Hg",
        "links": [],
        "cross_references": []
      }
    },
    "diseases_processes_and_activities_linked_to_this_agent": {
      "other_information": {
        "original_name": "Other Information",
        "value": "No other related information on this agent was found.",
        "links": [],
        "cross_references": []
      }
    }
  },
  "cross_references": [
    {
      "type": "name_match",
      "text": "silicon",
      "confidence": 1.0,
      "uuid": "443f4405-7a1f-47db-bf43-809557f77483",
      "name": "Silicon",
      "url": "https://haz-map.com/Agents/623",
      "category": "agents"
    },
    {
      "type": "name_match",
      "text": "hexamethyldisiloxane",
      "confidence": 1.0,
      "uuid": "152d69f7-dd66-4d09-a6fb-55394a7f25d4",
      "name": "Hexamethyldisiloxane",
      "url": "https://haz-map.com/Agents/5523",
      "category": "agents"
    },
    {
      "type": "name_match",
      "text": "disiloxane, 1,3-dimethyl-1,1,3,3-tetraphenyl-",
      "confidence": 1.0,
      "uuid": "875b5f54-14fb-4d32-ae13-4c9195dcbc06",
      "name": "Disiloxane, 1,3-dimethyl-1,1,3,3-tetraphenyl-",
      "url": "https://haz-map.com/Agents/9815",
      "category": "agents"
    }
  ],
  "all_links": [
    {
      "text": "Search PubMed",
      "url": "https://www.ncbi.nlm.nih.gov/pubmed?term=Disiloxane%2c+1%2c3-dimethyl-1%2c1%2c3%2c3-tetraphenyl-%20AND%20human%5Bmh%5D%20AND%20%28Occupational%20Diseases%20%5Bmh%5D%20OR%20Occupational%20Exposure%20%5Bmh%5D%29%20%20AND%20%28tox%5Bsb%5D%29&cmd=search"
    }
  ]
}