{
  "metadata": {
    "scraped_from": "https://haz-map.com/Agents/2074",
    "entity_name": "Mercury(II) acetate",
    "category": "agents",
    "uuid": "876d704c-048a-49ec-9d7d-7dec95a4d218",
    "scraped_at": "2025-07-23T19:09:44.316549"
  },
  "parsed_at": "2025-07-24T01:00:10.911306",
  "title": "Mercury(II) acetate",
  "sections": {
    "general": {
      "agent_name": {
        "original_name": "Agent Name",
        "value": "Mercury(II) acetate",
        "links": [],
        "cross_references": [
          {
            "type": "name_match",
            "text": "mercury",
            "confidence": 1.0,
            "uuid": "1ccd7713-d752-4728-b246-fed6633c4405",
            "name": "Mercury",
            "url": "https://haz-map.com/Agents/6",
            "category": "agents"
          },
          {
            "type": "name_match",
            "text": "mercury(ii) acetate",
            "confidence": 1.0,
            "uuid": "876d704c-048a-49ec-9d7d-7dec95a4d218",
            "name": "Mercury(II) acetate",
            "url": "https://haz-map.com/Agents/2074",
            "category": "agents"
          }
        ]
      },
      "cas_number": {
        "original_name": "CAS Number",
        "value": "1600-27-7",
        "links": [],
        "cross_references": []
      },
      "formula": {
        "original_name": "Formula",
        "value": "C2-H4-O2.1/2Hg",
        "links": [],
        "cross_references": []
      },
      "major_category": {
        "original_name": "Major Category",
        "value": "Metals",
        "links": [],
        "cross_references": []
      },
      "synonyms": {
        "original_name": "Synonyms",
        "value": "Acetic acid, mercuridi-; Acetic acid, mercury(2+) salt; Anthracene, 1,4-dihydro-, compd. with mercury diacetate; (1:1); Bis(acetyloxy)mercury; Diacetoxymercury; Mercuriacetate; Mercuric acetate; Mercuric diacetate; Mercury acetate; Mercury acetate (Hg(CH3CO2)2); Mercury acetate (Hg(O2C2H3)2); Mercury diacetate; Mercury(2+) acetate; Mercury(II) acetate; Mercuryl acetate; [ChemIDplus] UN 1629",
        "links": [],
        "cross_references": [
          {
            "type": "name_match",
            "text": "mercury",
            "confidence": 1.0,
            "uuid": "1ccd7713-d752-4728-b246-fed6633c4405",
            "name": "Mercury",
            "url": "https://haz-map.com/Agents/6",
            "category": "agents"
          },
          {
            "type": "name_match",
            "text": "acetic acid",
            "confidence": 1.0,
            "uuid": "0905c6e4-df84-4895-a92d-658819239bbd",
            "name": "Acetic acid",
            "url": "https://haz-map.com/Agents/207",
            "category": "agents"
          },
          {
            "type": "name_match",
            "text": "mercury(ii) acetate",
            "confidence": 1.0,
            "uuid": "876d704c-048a-49ec-9d7d-7dec95a4d218",
            "name": "Mercury(II) acetate",
            "url": "https://haz-map.com/Agents/2074",
            "category": "agents"
          },
          {
            "type": "name_match",
            "text": "anthracene",
            "confidence": 1.0,
            "uuid": "f11a62e4-1e69-4f6d-a8b7-240c9de086ff",
            "name": "Anthracene",
            "url": "https://haz-map.com/Agents/7821",
            "category": "agents"
          }
        ]
      },
      "category": {
        "original_name": "Category",
        "value": "Mercury Compounds, Inorganic",
        "links": [],
        "cross_references": [
          {
            "type": "name_match",
            "text": "mercury",
            "confidence": 1.0,
            "uuid": "1ccd7713-d752-4728-b246-fed6633c4405",
            "name": "Mercury",
            "url": "https://haz-map.com/Agents/6",
            "category": "agents"
          }
        ]
      },
      "description": {
        "original_name": "Description",
        "value": "Water soluble white crystals with vinegar odor; [CAMEO]",
        "links": [],
        "cross_references": [
          {
            "type": "name_match",
            "text": "vinegar",
            "confidence": 1.0,
            "uuid": "505372f8-6247-4963-8c62-da0ab4f69a0e",
            "name": "Vinegar",
            "url": "https://haz-map.com/Agents/18639",
            "category": "agents"
          },
          {
            "type": "name_match",
            "text": "water",
            "confidence": 1.0,
            "uuid": "6f2a7557-dfd2-49bc-9b4b-a93cd8e225d4",
            "name": "Water",
            "url": "https://haz-map.com/Agents/18668",
            "category": "agents"
          }
        ]
      },
      "sourcesuses": {
        "original_name": "Sources/Uses",
        "value": "Used as a chemical intermediate and catalyst in the production of organic mercury compounds and a chemical reagent; [HSDB]",
        "links": [],
        "cross_references": [
          {
            "type": "name_match",
            "text": "mercury",
            "confidence": 1.0,
            "uuid": "1ccd7713-d752-4728-b246-fed6633c4405",
            "name": "Mercury",
            "url": "https://haz-map.com/Agents/6",
            "category": "agents"
          },
          {
            "type": "name_match",
            "text": "mica",
            "confidence": 1.0,
            "uuid": "433f26f1-c399-4596-b179-ce3843cfd465",
            "name": "Mica",
            "url": "https://haz-map.com/Agents/621",
            "category": "agents"
          }
        ]
      },
      "comments": {
        "original_name": "Comments",
        "value": "Corrosive to the skin, eyes, and respiratory tract; May have effects on the kidneys, CNS, and peripheral nervous system; May cause skin sensitization; [ICSC] See \"Mercury, inorganic compounds\" and the linked occupational disease.",
        "links": [],
        "cross_references": [
          {
            "type": "name_match",
            "text": "mercury",
            "confidence": 1.0,
            "uuid": "1ccd7713-d752-4728-b246-fed6633c4405",
            "name": "Mercury",
            "url": "https://haz-map.com/Agents/6",
            "category": "agents"
          },
          {
            "type": "name_match",
            "text": "mercury, inorganic compounds",
            "confidence": 1.0,
            "uuid": "4b03e512-ea73-428b-aa40-cfb4b29e3cd6",
            "name": "Mercury, inorganic compounds",
            "url": "https://haz-map.com/Agents/1954",
            "category": "agents"
          },
          {
            "type": "fuzzy_match",
            "text": "organic compounds",
            "matched_name": "Tin, organic compounds",
            "confidence": 0.8196969696969697,
            "uuid": "e027d413-8869-4308-9eb2-27d768b011ea",
            "category": "agents",
            "url": "https://haz-map.com/Agents/656"
          },
          {
            "type": "fuzzy_match",
            "text": "inorganic compounds",
            "matched_name": "Tin and inorganic compounds",
            "confidence": 0.8161375661375662,
            "uuid": "f9a072ab-0fbc-477a-88a2-1389e762d773",
            "category": "agents",
            "url": "https://haz-map.com/Agents/42"
          }
        ]
      },
      "restricted": {
        "original_name": "Restricted",
        "value": "Not registered for pesticide use in the United States; [HSDB]",
        "links": [],
        "cross_references": []
      },
      "biomedical_references": {
        "original_name": "Biomedical References",
        "value": "Search PubMed",
        "links": [
          {
            "text": "Search PubMed",
            "url": "https://www.ncbi.nlm.nih.gov/pubmed?term=Mercury(II)+acetate%20AND%20human%5Bmh%5D%20AND%20%28Occupational%20Diseases%20%5Bmh%5D%20OR%20Occupational%20Exposure%20%5Bmh%5D%29%20%20AND%20%28tox%5Bsb%5D%29&cmd=search"
          }
        ],
        "cross_references": []
      }
    },
    "exposure_assessment": {
      "skin_designation_acgih": {
        "original_name": "Skin Designation (ACGIH)",
        "value": "Yes",
        "links": [],
        "cross_references": []
      },
      "tlv_acgih": {
        "original_name": "TLV (ACGIH)",
        "value": "0.025 mg/m3, as Hg",
        "links": [],
        "cross_references": []
      },
      "pel_osha": {
        "original_name": "PEL (OSHA)",
        "value": "0.1 mg/m3, as Hg",
        "links": [],
        "cross_references": []
      },
      "mak": {
        "original_name": "MAK",
        "value": "0.02 mg/m3, as Hg, inhalable fraction",
        "links": [],
        "cross_references": []
      },
      "idlh_niosh": {
        "original_name": "IDLH (NIOSH)",
        "value": "10 mg/m3, as Hg",
        "links": [],
        "cross_references": []
      },
      "vapor_pressure": {
        "original_name": "Vapor Pressure",
        "value": "0.177 mm Hg",
        "links": [],
        "cross_references": []
      },
      "explanatory_notes": {
        "original_name": "Explanatory Notes",
        "value": "VP from ChemIDplus;",
        "links": [],
        "cross_references": []
      }
    },
    "adverse_effects": {
      "skin_sensitizer": {
        "original_name": "Skin Sensitizer",
        "value": "Yes",
        "links": [],
        "cross_references": []
      },
      "neurotoxin": {
        "original_name": "Neurotoxin",
        "value": "Sensorimotor",
        "links": [],
        "cross_references": []
      },
      "hepatotoxin": {
        "original_name": "Hepatotoxin",
        "value": "Hepatoxic (a) from occupational exposure (secondary effect) or (b) in animal studies or in humans after ingestion",
        "links": [],
        "cross_references": []
      },
      "nephrotoxin": {
        "original_name": "Nephrotoxin",
        "value": "Yes",
        "links": [],
        "cross_references": []
      },
      "reproductive_toxin": {
        "original_name": "Reproductive Toxin",
        "value": "Yes",
        "links": [],
        "cross_references": []
      }
    },
    "diseases_processes_and_activities_linked_to_this_agent": {
      "diseases": {
        "original_name": "Diseases",
        "value": "Occupational diseases associated with exposure to this agent: Contact dermatitis, allergic",
        "links": [
          {
            "text": "Contact dermatitis, allergic",
            "url": "https://haz-map.com/Diseases/18"
          }
        ],
        "cross_references": [
          {
            "type": "url_match",
            "text": "Contact dermatitis, allergic",
            "url": "https://haz-map.com/Diseases/18",
            "confidence": 1.0,
            "uuid": "c9499de0-9aa1-41bf-8753-cd5b28a63e29",
            "name": "Contact dermatitis, allergic",
            "category": "diseases"
          },
          {
            "type": "name_match",
            "text": "dermatitis",
            "confidence": 1.0,
            "uuid": "fe9c05f2-b19f-4ceb-ac7a-ffb7d7a0cae0",
            "name": "dermatitis",
            "url": "https://haz-map.com/Findings/59",
            "category": "findings"
          }
        ]
      }
    }
  },
  "cross_references": [
    {
      "type": "url_match",
      "text": "Contact dermatitis, allergic",
      "url": "https://haz-map.com/Diseases/18",
      "confidence": 1.0,
      "uuid": "c9499de0-9aa1-41bf-8753-cd5b28a63e29",
      "name": "Contact dermatitis, allergic",
      "category": "diseases"
    },
    {
      "type": "name_match",
      "text": "dermatitis",
      "confidence": 1.0,
      "uuid": "fe9c05f2-b19f-4ceb-ac7a-ffb7d7a0cae0",
      "name": "dermatitis",
      "url": "https://haz-map.com/Findings/59",
      "category": "findings"
    },
    {
      "type": "name_match",
      "text": "mercury",
      "confidence": 1.0,
      "uuid": "1ccd7713-d752-4728-b246-fed6633c4405",
      "name": "Mercury",
      "url": "https://haz-map.com/Agents/6",
      "category": "agents"
    },
    {
      "type": "name_match",
      "text": "acetic acid",
      "confidence": 1.0,
      "uuid": "0905c6e4-df84-4895-a92d-658819239bbd",
      "name": "Acetic acid",
      "url": "https://haz-map.com/Agents/207",
      "category": "agents"
    },
    {
      "type": "name_match",
      "text": "mica",
      "confidence": 1.0,
      "uuid": "433f26f1-c399-4596-b179-ce3843cfd465",
      "name": "Mica",
      "url": "https://haz-map.com/Agents/621",
      "category": "agents"
    },
    {
      "type": "name_match",
      "text": "mercury, inorganic compounds",
      "confidence": 1.0,
      "uuid": "4b03e512-ea73-428b-aa40-cfb4b29e3cd6",
      "name": "Mercury, inorganic compounds",
      "url": "https://haz-map.com/Agents/1954",
      "category": "agents"
    },
    {
      "type": "name_match",
      "text": "mercury(ii) acetate",
      "confidence": 1.0,
      "uuid": "876d704c-048a-49ec-9d7d-7dec95a4d218",
      "name": "Mercury(II) acetate",
      "url": "https://haz-map.com/Agents/2074",
      "category": "agents"
    },
    {
      "type": "name_match",
      "text": "anthracene",
      "confidence": 1.0,
      "uuid": "f11a62e4-1e69-4f6d-a8b7-240c9de086ff",
      "name": "Anthracene",
      "url": "https://haz-map.com/Agents/7821",
      "category": "agents"
    },
    {
      "type": "name_match",
      "text": "vinegar",
      "confidence": 1.0,
      "uuid": "505372f8-6247-4963-8c62-da0ab4f69a0e",
      "name": "Vinegar",
      "url": "https://haz-map.com/Agents/18639",
      "category": "agents"
    },
    {
      "type": "name_match",
      "text": "water",
      "confidence": 1.0,
      "uuid": "6f2a7557-dfd2-49bc-9b4b-a93cd8e225d4",
      "name": "Water",
      "url": "https://haz-map.com/Agents/18668",
      "category": "agents"
    },
    {
      "type": "fuzzy_match",
      "text": "organic compounds",
      "matched_name": "Tin, organic compounds",
      "confidence": 0.8196969696969697,
      "uuid": "e027d413-8869-4308-9eb2-27d768b011ea",
      "category": "agents",
      "url": "https://haz-map.com/Agents/656"
    },
    {
      "type": "fuzzy_match",
      "text": "inorganic compounds",
      "matched_name": "Tin and inorganic compounds",
      "confidence": 0.8161375661375662,
      "uuid": "f9a072ab-0fbc-477a-88a2-1389e762d773",
      "category": "agents",
      "url": "https://haz-map.com/Agents/42"
    }
  ],
  "all_links": [
    {
      "text": "Search PubMed",
      "url": "https://www.ncbi.nlm.nih.gov/pubmed?term=Mercury(II)+acetate%20AND%20human%5Bmh%5D%20AND%20%28Occupational%20Diseases%20%5Bmh%5D%20OR%20Occupational%20Exposure%20%5Bmh%5D%29%20%20AND%20%28tox%5Bsb%5D%29&cmd=search"
    },
    {
      "text": "Contact dermatitis, allergic",
      "url": "https://haz-map.com/Diseases/18"
    }
  ]
}