{
  "metadata": {
    "scraped_from": "https://haz-map.com/Agents/20640",
    "entity_name": "Diphenylacetonitrile",
    "category": "agents",
    "uuid": "878e118d-d3a5-49ed-bf8a-ad8000af5a7d",
    "scraped_at": "2025-07-23T22:29:05.019162"
  },
  "parsed_at": "2025-07-24T01:13:18.034460",
  "title": "Diphenylacetonitrile",
  "sections": {
    "general": {
      "agent_name": {
        "original_name": "Agent Name",
        "value": "Diphenylacetonitrile",
        "links": [],
        "cross_references": [
          {
            "type": "name_match",
            "text": "acetonitrile",
            "confidence": 1.0,
            "uuid": "84f1210b-94c6-4b35-8215-ba63f2fe4c64",
            "name": "Acetonitrile",
            "url": "https://haz-map.com/Agents/159",
            "category": "agents"
          },
          {
            "type": "name_match",
            "text": "diphenylacetonitrile",
            "confidence": 1.0,
            "uuid": "878e118d-d3a5-49ed-bf8a-ad8000af5a7d",
            "name": "Diphenylacetonitrile",
            "url": "https://haz-map.com/Agents/20640",
            "category": "agents"
          }
        ]
      },
      "cas_number": {
        "original_name": "CAS Number",
        "value": "86-29-3",
        "links": [],
        "cross_references": []
      },
      "formula": {
        "original_name": "Formula",
        "value": "C14-H11-N",
        "links": [],
        "cross_references": []
      },
      "major_category": {
        "original_name": "Major Category",
        "value": "Nitrogen Compounds",
        "links": [],
        "cross_references": [
          {
            "type": "name_match",
            "text": "nitrogen",
            "confidence": 1.0,
            "uuid": "db5e90a9-06d2-45b9-8b81-f345a89b0bc0",
            "name": "Nitrogen",
            "url": "https://haz-map.com/Agents/1072",
            "category": "agents"
          }
        ]
      },
      "synonyms": {
        "original_name": "Synonyms",
        "value": "alpha-Cyanodiphenylmethane; alpha-Phenylbenzeneacetonitrile; alpha-Phenylbenzylcyanide; alpha-Phenylphenylacetonitrile; Benzhydrylcyanide; Difenylacetonitril [Czech]; Dipan; Diphenatrile; Diphenyl-alpha-cyanomethane; Diphenylmethylcyanide; Acetonitrile, diphenyl-; Benzeneacetonitrile, alpha-phenyl-; [ChemIDplus]",
        "links": [],
        "cross_references": [
          {
            "type": "name_match",
            "text": "benzene",
            "confidence": 1.0,
            "uuid": "b05124de-5f34-4c14-8f04-ccb20c3780d9",
            "name": "Benzene",
            "url": "https://haz-map.com/Agents/5",
            "category": "agents"
          },
          {
            "type": "name_match",
            "text": "acetonitrile",
            "confidence": 1.0,
            "uuid": "84f1210b-94c6-4b35-8215-ba63f2fe4c64",
            "name": "Acetonitrile",
            "url": "https://haz-map.com/Agents/159",
            "category": "agents"
          },
          {
            "type": "name_match",
            "text": "methane",
            "confidence": 1.0,
            "uuid": "5018bf73-24be-4353-8643-c351d5f52186",
            "name": "Methane",
            "url": "https://haz-map.com/Agents/1074",
            "category": "agents"
          },
          {
            "type": "name_match",
            "text": "ethane",
            "confidence": 1.0,
            "uuid": "5162cc8c-dfb9-4060-81ac-38a8cec7f9dd",
            "name": "Ethane",
            "url": "https://haz-map.com/Agents/1075",
            "category": "agents"
          },
          {
            "type": "name_match",
            "text": "diphenylmethane",
            "confidence": 1.0,
            "uuid": "c9ade740-3515-4581-86c9-0a45936d5f72",
            "name": "Diphenylmethane",
            "url": "https://haz-map.com/Agents/2699",
            "category": "agents"
          },
          {
            "type": "name_match",
            "text": "cyanide",
            "confidence": 1.0,
            "uuid": "0b4d38ba-cc5c-4386-8079-9e7ff8fb2d3a",
            "name": "Cyanide",
            "url": "https://haz-map.com/Agents/13350",
            "category": "agents"
          }
        ]
      },
      "category": {
        "original_name": "Category",
        "value": "Nitriles",
        "links": [],
        "cross_references": [
          {
            "type": "name_match",
            "text": "nitriles",
            "confidence": 1.0,
            "uuid": "41430895-c07a-4421-888b-3d7122a4cd55",
            "name": "NITRILES",
            "url": "https://haz-map.com/Agents/715",
            "category": "agents"
          }
        ]
      },
      "description": {
        "original_name": "Description",
        "value": "Cream or white solid; [Alfa Aesar MSDS]",
        "links": [],
        "cross_references": []
      },
      "sourcesuses": {
        "original_name": "Sources/Uses",
        "value": "Used as an herbicide; [Merck Index] No active product registrations in the US; [NPIRS]",
        "links": [],
        "cross_references": []
      },
      "comments": {
        "original_name": "Comments",
        "value": "An irritant; Tumors observed in experimental animals; [Alfa Aesar MSDS] See \"Diphenylacetic acid.\" See \"m-Phthalodinitrile,\" \"Benzonitrile,\" and \"NITRILES.\"",
        "links": [],
        "cross_references": [
          {
            "type": "name_match",
            "text": "acetic acid",
            "confidence": 1.0,
            "uuid": "0905c6e4-df84-4895-a92d-658819239bbd",
            "name": "Acetic acid",
            "url": "https://haz-map.com/Agents/207",
            "category": "agents"
          },
          {
            "type": "name_match",
            "text": "m-phthalodinitrile",
            "confidence": 1.0,
            "uuid": "88329e77-1bd7-4c92-a878-a6854a5c299a",
            "name": "m-Phthalodinitrile",
            "url": "https://haz-map.com/Agents/600",
            "category": "agents"
          },
          {
            "type": "name_match",
            "text": "nitriles",
            "confidence": 1.0,
            "uuid": "41430895-c07a-4421-888b-3d7122a4cd55",
            "name": "NITRILES",
            "url": "https://haz-map.com/Agents/715",
            "category": "agents"
          },
          {
            "type": "name_match",
            "text": "benzonitrile",
            "confidence": 1.0,
            "uuid": "aa9c2a5f-3153-4fc9-85dc-410619ef96a4",
            "name": "Benzonitrile",
            "url": "https://haz-map.com/Agents/1378",
            "category": "agents"
          },
          {
            "type": "name_match",
            "text": "ht",
            "confidence": 1.0,
            "uuid": "764df367-8d53-4a11-81a2-31ccfe122a8d",
            "name": "HT",
            "url": "https://haz-map.com/Agents/2168",
            "category": "agents"
          },
          {
            "type": "name_match",
            "text": "phenylacetic acid",
            "confidence": 1.0,
            "uuid": "9fd56a07-b965-4725-89f1-49d42ccba118",
            "name": "Phenylacetic acid",
            "url": "https://haz-map.com/Agents/6638",
            "category": "agents"
          },
          {
            "type": "name_match",
            "text": "diphenylacetic acid",
            "confidence": 1.0,
            "uuid": "7325a6a5-617b-4a35-8a39-6119fcc92e79",
            "name": "Diphenylacetic acid",
            "url": "https://haz-map.com/Agents/20639",
            "category": "agents"
          }
        ]
      },
      "biomedical_references": {
        "original_name": "Biomedical References",
        "value": "Search PubMed",
        "links": [
          {
            "text": "Search PubMed",
            "url": "https://www.ncbi.nlm.nih.gov/pubmed?term=Diphenylacetonitrile%20AND%20human%5Bmh%5D%20AND%20%28Occupational%20Diseases%20%5Bmh%5D%20OR%20Occupational%20Exposure%20%5Bmh%5D%29%20%20AND%20%28tox%5Bsb%5D%29&cmd=search"
          }
        ],
        "cross_references": []
      }
    },
    "exposure_assessment": {
      "vapor_pressure": {
        "original_name": "Vapor Pressure",
        "value": "0.000102 mm Hg",
        "links": [],
        "cross_references": []
      }
    },
    "diseases_processes_and_activities_linked_to_this_agent": {
      "other_information": {
        "original_name": "Other Information",
        "value": "No other related information on this agent was found.",
        "links": [],
        "cross_references": []
      }
    }
  },
  "cross_references": [
    {
      "type": "name_match",
      "text": "benzene",
      "confidence": 1.0,
      "uuid": "b05124de-5f34-4c14-8f04-ccb20c3780d9",
      "name": "Benzene",
      "url": "https://haz-map.com/Agents/5",
      "category": "agents"
    },
    {
      "type": "name_match",
      "text": "acetonitrile",
      "confidence": 1.0,
      "uuid": "84f1210b-94c6-4b35-8215-ba63f2fe4c64",
      "name": "Acetonitrile",
      "url": "https://haz-map.com/Agents/159",
      "category": "agents"
    },
    {
      "type": "name_match",
      "text": "acetic acid",
      "confidence": 1.0,
      "uuid": "0905c6e4-df84-4895-a92d-658819239bbd",
      "name": "Acetic acid",
      "url": "https://haz-map.com/Agents/207",
      "category": "agents"
    },
    {
      "type": "name_match",
      "text": "m-phthalodinitrile",
      "confidence": 1.0,
      "uuid": "88329e77-1bd7-4c92-a878-a6854a5c299a",
      "name": "m-Phthalodinitrile",
      "url": "https://haz-map.com/Agents/600",
      "category": "agents"
    },
    {
      "type": "name_match",
      "text": "nitriles",
      "confidence": 1.0,
      "uuid": "41430895-c07a-4421-888b-3d7122a4cd55",
      "name": "NITRILES",
      "url": "https://haz-map.com/Agents/715",
      "category": "agents"
    },
    {
      "type": "name_match",
      "text": "nitrogen",
      "confidence": 1.0,
      "uuid": "db5e90a9-06d2-45b9-8b81-f345a89b0bc0",
      "name": "Nitrogen",
      "url": "https://haz-map.com/Agents/1072",
      "category": "agents"
    },
    {
      "type": "name_match",
      "text": "methane",
      "confidence": 1.0,
      "uuid": "5018bf73-24be-4353-8643-c351d5f52186",
      "name": "Methane",
      "url": "https://haz-map.com/Agents/1074",
      "category": "agents"
    },
    {
      "type": "name_match",
      "text": "ethane",
      "confidence": 1.0,
      "uuid": "5162cc8c-dfb9-4060-81ac-38a8cec7f9dd",
      "name": "Ethane",
      "url": "https://haz-map.com/Agents/1075",
      "category": "agents"
    },
    {
      "type": "name_match",
      "text": "benzonitrile",
      "confidence": 1.0,
      "uuid": "aa9c2a5f-3153-4fc9-85dc-410619ef96a4",
      "name": "Benzonitrile",
      "url": "https://haz-map.com/Agents/1378",
      "category": "agents"
    },
    {
      "type": "name_match",
      "text": "ht",
      "confidence": 1.0,
      "uuid": "764df367-8d53-4a11-81a2-31ccfe122a8d",
      "name": "HT",
      "url": "https://haz-map.com/Agents/2168",
      "category": "agents"
    },
    {
      "type": "name_match",
      "text": "diphenylmethane",
      "confidence": 1.0,
      "uuid": "c9ade740-3515-4581-86c9-0a45936d5f72",
      "name": "Diphenylmethane",
      "url": "https://haz-map.com/Agents/2699",
      "category": "agents"
    },
    {
      "type": "name_match",
      "text": "phenylacetic acid",
      "confidence": 1.0,
      "uuid": "9fd56a07-b965-4725-89f1-49d42ccba118",
      "name": "Phenylacetic acid",
      "url": "https://haz-map.com/Agents/6638",
      "category": "agents"
    },
    {
      "type": "name_match",
      "text": "cyanide",
      "confidence": 1.0,
      "uuid": "0b4d38ba-cc5c-4386-8079-9e7ff8fb2d3a",
      "name": "Cyanide",
      "url": "https://haz-map.com/Agents/13350",
      "category": "agents"
    },
    {
      "type": "name_match",
      "text": "diphenylacetic acid",
      "confidence": 1.0,
      "uuid": "7325a6a5-617b-4a35-8a39-6119fcc92e79",
      "name": "Diphenylacetic acid",
      "url": "https://haz-map.com/Agents/20639",
      "category": "agents"
    },
    {
      "type": "name_match",
      "text": "diphenylacetonitrile",
      "confidence": 1.0,
      "uuid": "878e118d-d3a5-49ed-bf8a-ad8000af5a7d",
      "name": "Diphenylacetonitrile",
      "url": "https://haz-map.com/Agents/20640",
      "category": "agents"
    }
  ],
  "all_links": [
    {
      "text": "Search PubMed",
      "url": "https://www.ncbi.nlm.nih.gov/pubmed?term=Diphenylacetonitrile%20AND%20human%5Bmh%5D%20AND%20%28Occupational%20Diseases%20%5Bmh%5D%20OR%20Occupational%20Exposure%20%5Bmh%5D%29%20%20AND%20%28tox%5Bsb%5D%29&cmd=search"
    }
  ]
}