{
  "metadata": {
    "scraped_from": "https://haz-map.com/Agents/19587",
    "entity_name": "2-Chloropropionyl chloride",
    "category": "agents",
    "uuid": "87b116ff-e8e1-45ab-8bc1-d1ccbd41bffb",
    "scraped_at": "2025-07-23T22:08:59.352478"
  },
  "parsed_at": "2025-07-24T01:13:37.269990",
  "title": "2-Chloropropionyl chloride",
  "sections": {
    "general": {
      "agent_name": {
        "original_name": "Agent Name",
        "value": "2-Chloropropionyl chloride",
        "links": [],
        "cross_references": [
          {
            "type": "name_match",
            "text": "propionyl chloride",
            "confidence": 1.0,
            "uuid": "3f906524-ddb7-4dad-a2c7-aff18755fb0c",
            "name": "Propionyl chloride",
            "url": "https://haz-map.com/Agents/19049",
            "category": "agents"
          },
          {
            "type": "name_match",
            "text": "2-chloropropionyl chloride",
            "confidence": 1.0,
            "uuid": "87b116ff-e8e1-45ab-8bc1-d1ccbd41bffb",
            "name": "2-Chloropropionyl chloride",
            "url": "https://haz-map.com/Agents/19587",
            "category": "agents"
          }
        ]
      },
      "cas_number": {
        "original_name": "CAS Number",
        "value": "7623-09-8",
        "links": [],
        "cross_references": []
      },
      "formula": {
        "original_name": "Formula",
        "value": "C3-H4-Cl2-O",
        "links": [],
        "cross_references": []
      },
      "major_category": {
        "original_name": "Major Category",
        "value": "Toxic Gases & Vapors",
        "links": [],
        "cross_references": []
      },
      "synonyms": {
        "original_name": "Synonyms",
        "value": "Propanoyl chloride, 2-chloro-; [ChemIDplus] UN2920",
        "links": [],
        "cross_references": []
      },
      "category": {
        "original_name": "Category",
        "value": "Acid Halides",
        "links": [],
        "cross_references": []
      },
      "description": {
        "original_name": "Description",
        "value": "Colorless or pale yellow liquid; [Alfa Aesar MSDS]",
        "links": [],
        "cross_references": []
      },
      "comments": {
        "original_name": "Comments",
        "value": "Reacts with water; Causes burns; Inhalation may cause corrosive injuries to upper respiratory tract and lungs; Toxic by ingestion; [Alfa Aesar MSDS] A lachrymator; [Sigma-Aldrich MSDS]",
        "links": [],
        "cross_references": [
          {
            "type": "name_match",
            "text": "burn",
            "confidence": 1.0,
            "uuid": "63665de5-6376-4918-8dbf-4c10c4d63837",
            "name": "burn",
            "url": "https://haz-map.com/Findings/204",
            "category": "findings"
          },
          {
            "type": "name_match",
            "text": "water",
            "confidence": 1.0,
            "uuid": "6f2a7557-dfd2-49bc-9b4b-a93cd8e225d4",
            "name": "Water",
            "url": "https://haz-map.com/Agents/18668",
            "category": "agents"
          }
        ]
      },
      "biomedical_references": {
        "original_name": "Biomedical References",
        "value": "Search PubMed",
        "links": [
          {
            "text": "Search PubMed",
            "url": "https://www.ncbi.nlm.nih.gov/pubmed?term=2-Chloropropionyl+chloride%20AND%20human%5Bmh%5D%20AND%20%28Occupational%20Diseases%20%5Bmh%5D%20OR%20Occupational%20Exposure%20%5Bmh%5D%29%20%20AND%20%28tox%5Bsb%5D%29&cmd=search"
          }
        ],
        "cross_references": []
      }
    },
    "exposure_assessment": {
      "vapor_pressure": {
        "original_name": "Vapor Pressure",
        "value": "19 mm Hg",
        "links": [],
        "cross_references": []
      },
      "explanatory_notes": {
        "original_name": "Explanatory Notes",
        "value": "The Guide in the Emergency Response Guidebook is for \"Corrosive liquid, flammable, n.o.s.\"",
        "links": [],
        "cross_references": []
      }
    },
    "adverse_effects": {
      "lachrymator": {
        "original_name": "Lachrymator",
        "value": "Yes",
        "links": [],
        "cross_references": []
      },
      "toxic_pneumonitis": {
        "original_name": "Toxic Pneumonitis",
        "value": "Yes",
        "links": [],
        "cross_references": []
      },
      "dermatotoxin": {
        "original_name": "Dermatotoxin",
        "value": "Skin burns",
        "links": [],
        "cross_references": [
          {
            "type": "name_match",
            "text": "burn",
            "confidence": 1.0,
            "uuid": "63665de5-6376-4918-8dbf-4c10c4d63837",
            "name": "burn",
            "url": "https://haz-map.com/Findings/204",
            "category": "findings"
          }
        ]
      }
    },
    "diseases_processes_and_activities_linked_to_this_agent": {
      "other_information": {
        "original_name": "Other Information",
        "value": "No other related information on this agent was found.",
        "links": [],
        "cross_references": []
      }
    }
  },
  "cross_references": [
    {
      "type": "name_match",
      "text": "burn",
      "confidence": 1.0,
      "uuid": "63665de5-6376-4918-8dbf-4c10c4d63837",
      "name": "burn",
      "url": "https://haz-map.com/Findings/204",
      "category": "findings"
    },
    {
      "type": "name_match",
      "text": "water",
      "confidence": 1.0,
      "uuid": "6f2a7557-dfd2-49bc-9b4b-a93cd8e225d4",
      "name": "Water",
      "url": "https://haz-map.com/Agents/18668",
      "category": "agents"
    },
    {
      "type": "name_match",
      "text": "propionyl chloride",
      "confidence": 1.0,
      "uuid": "3f906524-ddb7-4dad-a2c7-aff18755fb0c",
      "name": "Propionyl chloride",
      "url": "https://haz-map.com/Agents/19049",
      "category": "agents"
    },
    {
      "type": "name_match",
      "text": "2-chloropropionyl chloride",
      "confidence": 1.0,
      "uuid": "87b116ff-e8e1-45ab-8bc1-d1ccbd41bffb",
      "name": "2-Chloropropionyl chloride",
      "url": "https://haz-map.com/Agents/19587",
      "category": "agents"
    }
  ],
  "all_links": [
    {
      "text": "Search PubMed",
      "url": "https://www.ncbi.nlm.nih.gov/pubmed?term=2-Chloropropionyl+chloride%20AND%20human%5Bmh%5D%20AND%20%28Occupational%20Diseases%20%5Bmh%5D%20OR%20Occupational%20Exposure%20%5Bmh%5D%29%20%20AND%20%28tox%5Bsb%5D%29&cmd=search"
    }
  ]
}