{
  "metadata": {
    "scraped_from": "https://haz-map.com/Agents/4242",
    "entity_name": "Carvone",
    "category": "agents",
    "uuid": "87e1d737-e3f5-4fc8-9b0d-20ad62d77af5",
    "scraped_at": "2025-07-23T19:39:11.540702"
  },
  "parsed_at": "2025-07-24T01:13:18.552746",
  "title": "Carvone",
  "sections": {
    "general": {
      "agent_name": {
        "original_name": "Agent Name",
        "value": "Carvone",
        "links": [],
        "cross_references": [
          {
            "type": "name_match",
            "text": "carvone",
            "confidence": 1.0,
            "uuid": "87e1d737-e3f5-4fc8-9b0d-20ad62d77af5",
            "name": "Carvone",
            "url": "https://haz-map.com/Agents/4242",
            "category": "agents"
          }
        ]
      },
      "cas_number": {
        "original_name": "CAS Number",
        "value": "99-49-0",
        "links": [],
        "cross_references": []
      },
      "formula": {
        "original_name": "Formula",
        "value": "C10-H14-O",
        "links": [],
        "cross_references": []
      },
      "major_category": {
        "original_name": "Major Category",
        "value": "Biological Agents",
        "links": [],
        "cross_references": []
      },
      "synonyms": {
        "original_name": "Synonyms",
        "value": "1-Carvone; 2-Cyclohexen-1-one, 2-methyl-5-(1-methylethenyl)-; 2-Methyl-5-(1-methylethenyl)-2-cyclohexen-1-one; 2-Methyl-5-isopropenyl-2-cyclohexenone; 6,8(9)-p-Menthadien-2-one; 6,8-p-Menthadien-2-on; Carvol; Carvone (natural); Karvon; delta(sup 6,8)-(9)-terpadienone-2; delta-1-Methyl-4-isopropenyl-6-cyclohexen-2-one; p-Mentha-6,8-dien-2-one; [ChemIDplus]",
        "links": [],
        "cross_references": [
          {
            "type": "name_match",
            "text": "xenon",
            "confidence": 1.0,
            "uuid": "a5e7fda5-d6a7-4721-8621-e01c04ce8213",
            "name": "Xenon",
            "url": "https://haz-map.com/Agents/2011",
            "category": "agents"
          },
          {
            "type": "name_match",
            "text": "carvone",
            "confidence": 1.0,
            "uuid": "87e1d737-e3f5-4fc8-9b0d-20ad62d77af5",
            "name": "Carvone",
            "url": "https://haz-map.com/Agents/4242",
            "category": "agents"
          },
          {
            "type": "name_match",
            "text": "2-cyclohexen-1-one",
            "confidence": 1.0,
            "uuid": "10a34102-b651-4367-bf82-9b8452fa23fe",
            "name": "2-Cyclohexen-1-one",
            "url": "https://haz-map.com/Agents/10020",
            "category": "agents"
          }
        ]
      },
      "category": {
        "original_name": "Category",
        "value": "Plant Oils and Extracts",
        "links": [],
        "cross_references": []
      },
      "description": {
        "original_name": "Description",
        "value": "Colorless or pale yellowish liquid; [Hawley] White powder;",
        "links": [],
        "cross_references": []
      },
      "sourcesuses": {
        "original_name": "Sources/Uses",
        "value": "Used as oil of caraway, for flavoring liqueurs and foods, in perfumery and soaps, and to enhance mint flavors (dentifrices, confections, pharmaceuticals, and odorants); [HSDB]",
        "links": [],
        "cross_references": [
          {
            "type": "name_match",
            "text": "pharmaceuticals",
            "confidence": 1.0,
            "uuid": "713c3c30-b67e-4a2f-a90f-b32f8a306332",
            "name": "PHARMACEUTICALS",
            "url": "https://haz-map.com/Agents/1000",
            "category": "agents"
          }
        ]
      },
      "comments": {
        "original_name": "Comments",
        "value": "Included in list of \"established contact allergens in humans\"; [EC: Scientific Committee on Consumer Safety: Fragrance allergens in cosmetic products (2011)] Emergency treatment: \"Essential oils\"; Essential oils can cause CNS depression and aspiration pneumonia after ingestion; Commercial products of essential oils usually contain concentrations of 1% to 20%, and a potentially toxic exposure is 5-15 mL; [HSDB] Causes somnolence and ataxia in lethal-dose feeding studies of rats; [RTECS]",
        "links": [],
        "cross_references": []
      },
      "biomedical_references": {
        "original_name": "Biomedical References",
        "value": "Search PubMed",
        "links": [
          {
            "text": "Search PubMed",
            "url": "https://www.ncbi.nlm.nih.gov/pubmed?term=Carvone%20AND%20human%5Bmh%5D%20AND%20%28Occupational%20Diseases%20%5Bmh%5D%20OR%20Occupational%20Exposure%20%5Bmh%5D%29%20%20AND%20%28tox%5Bsb%5D%29&cmd=search"
          }
        ],
        "cross_references": []
      }
    },
    "exposure_assessment": {
      "vapor_pressure": {
        "original_name": "Vapor Pressure",
        "value": "0.16 mm Hg",
        "links": [],
        "cross_references": []
      },
      "explanatory_notes": {
        "original_name": "Explanatory Notes",
        "value": "VP from ChemIDplus;",
        "links": [],
        "cross_references": []
      }
    },
    "adverse_effects": {
      "skin_sensitizer": {
        "original_name": "Skin Sensitizer",
        "value": "Yes",
        "links": [],
        "cross_references": []
      },
      "neurotoxin": {
        "original_name": "Neurotoxin",
        "value": "Acute solvent syndrome",
        "links": [],
        "cross_references": []
      }
    },
    "diseases_processes_and_activities_linked_to_this_agent": {
      "diseases": {
        "original_name": "Diseases",
        "value": "Occupational diseases associated with exposure to this agent: Contact dermatitis, allergic Solvents, acute toxic effect",
        "links": [
          {
            "text": "Contact dermatitis, allergic",
            "url": "https://haz-map.com/Diseases/18"
          },
          {
            "text": "Solvents, acute toxic effect",
            "url": "https://haz-map.com/Diseases/326"
          }
        ],
        "cross_references": [
          {
            "type": "url_match",
            "text": "Contact dermatitis, allergic",
            "url": "https://haz-map.com/Diseases/18",
            "confidence": 1.0,
            "uuid": "c9499de0-9aa1-41bf-8753-cd5b28a63e29",
            "name": "Contact dermatitis, allergic",
            "category": "diseases"
          },
          {
            "type": "url_match",
            "text": "Solvents, acute toxic effect",
            "url": "https://haz-map.com/Diseases/326",
            "confidence": 1.0,
            "uuid": "581e90e3-9d0c-45f0-aa6c-3468c28da129",
            "name": "Solvents, acute toxic effect",
            "category": "diseases"
          },
          {
            "type": "name_match",
            "text": "dermatitis",
            "confidence": 1.0,
            "uuid": "fe9c05f2-b19f-4ceb-ac7a-ffb7d7a0cae0",
            "name": "dermatitis",
            "url": "https://haz-map.com/Findings/59",
            "category": "findings"
          }
        ]
      }
    }
  },
  "cross_references": [
    {
      "type": "url_match",
      "text": "Contact dermatitis, allergic",
      "url": "https://haz-map.com/Diseases/18",
      "confidence": 1.0,
      "uuid": "c9499de0-9aa1-41bf-8753-cd5b28a63e29",
      "name": "Contact dermatitis, allergic",
      "category": "diseases"
    },
    {
      "type": "url_match",
      "text": "Solvents, acute toxic effect",
      "url": "https://haz-map.com/Diseases/326",
      "confidence": 1.0,
      "uuid": "581e90e3-9d0c-45f0-aa6c-3468c28da129",
      "name": "Solvents, acute toxic effect",
      "category": "diseases"
    },
    {
      "type": "name_match",
      "text": "dermatitis",
      "confidence": 1.0,
      "uuid": "fe9c05f2-b19f-4ceb-ac7a-ffb7d7a0cae0",
      "name": "dermatitis",
      "url": "https://haz-map.com/Findings/59",
      "category": "findings"
    },
    {
      "type": "name_match",
      "text": "pharmaceuticals",
      "confidence": 1.0,
      "uuid": "713c3c30-b67e-4a2f-a90f-b32f8a306332",
      "name": "PHARMACEUTICALS",
      "url": "https://haz-map.com/Agents/1000",
      "category": "agents"
    },
    {
      "type": "name_match",
      "text": "xenon",
      "confidence": 1.0,
      "uuid": "a5e7fda5-d6a7-4721-8621-e01c04ce8213",
      "name": "Xenon",
      "url": "https://haz-map.com/Agents/2011",
      "category": "agents"
    },
    {
      "type": "name_match",
      "text": "carvone",
      "confidence": 1.0,
      "uuid": "87e1d737-e3f5-4fc8-9b0d-20ad62d77af5",
      "name": "Carvone",
      "url": "https://haz-map.com/Agents/4242",
      "category": "agents"
    },
    {
      "type": "name_match",
      "text": "2-cyclohexen-1-one",
      "confidence": 1.0,
      "uuid": "10a34102-b651-4367-bf82-9b8452fa23fe",
      "name": "2-Cyclohexen-1-one",
      "url": "https://haz-map.com/Agents/10020",
      "category": "agents"
    }
  ],
  "all_links": [
    {
      "text": "Search PubMed",
      "url": "https://www.ncbi.nlm.nih.gov/pubmed?term=Carvone%20AND%20human%5Bmh%5D%20AND%20%28Occupational%20Diseases%20%5Bmh%5D%20OR%20Occupational%20Exposure%20%5Bmh%5D%29%20%20AND%20%28tox%5Bsb%5D%29&cmd=search"
    },
    {
      "text": "Contact dermatitis, allergic",
      "url": "https://haz-map.com/Diseases/18"
    },
    {
      "text": "Solvents, acute toxic effect",
      "url": "https://haz-map.com/Diseases/326"
    }
  ]
}