{
  "metadata": {
    "scraped_from": "https://haz-map.com/Agents/3284",
    "entity_name": "4-Chloro-2-nitroaniline",
    "category": "agents",
    "uuid": "87fecc71-dbf6-4280-82cf-23ca57b39928",
    "scraped_at": "2025-07-23T19:26:56.243716"
  },
  "parsed_at": "2025-07-24T01:09:30.777879",
  "title": "4-Chloro-2-nitroaniline",
  "sections": {
    "general": {
      "agent_name": {
        "original_name": "Agent Name",
        "value": "4-Chloro-2-nitroaniline",
        "links": [],
        "cross_references": [
          {
            "type": "name_match",
            "text": "aniline",
            "confidence": 1.0,
            "uuid": "e4932692-8d9c-4a98-8c5c-81e55b12aedf",
            "name": "Aniline",
            "url": "https://haz-map.com/Agents/296",
            "category": "agents"
          },
          {
            "type": "name_match",
            "text": "2-nitroaniline",
            "confidence": 1.0,
            "uuid": "6d7d6515-4d7d-48cf-be15-e1f1ce18006a",
            "name": "2-Nitroaniline",
            "url": "https://haz-map.com/Agents/3149",
            "category": "agents"
          },
          {
            "type": "name_match",
            "text": "4-chloro-2-nitroaniline",
            "confidence": 1.0,
            "uuid": "87fecc71-dbf6-4280-82cf-23ca57b39928",
            "name": "4-Chloro-2-nitroaniline",
            "url": "https://haz-map.com/Agents/3284",
            "category": "agents"
          }
        ]
      },
      "cas_number": {
        "original_name": "CAS Number",
        "value": "89-63-4",
        "links": [],
        "cross_references": []
      },
      "formula": {
        "original_name": "Formula",
        "value": "C6-H5-Cl-N2-O2",
        "links": [],
        "cross_references": []
      },
      "major_category": {
        "original_name": "Major Category",
        "value": "Nitrogen Compounds",
        "links": [],
        "cross_references": [
          {
            "type": "name_match",
            "text": "nitrogen",
            "confidence": 1.0,
            "uuid": "db5e90a9-06d2-45b9-8b81-f345a89b0bc0",
            "name": "Nitrogen",
            "url": "https://haz-map.com/Agents/1072",
            "category": "agents"
          }
        ]
      },
      "synonyms": {
        "original_name": "Synonyms",
        "value": "2-Nitro-4-chloroaniline; 4-Chloro-2-nitrobenzenamine; Aniline, 4-chloro-2-nitro-; Azoene Fast Red 3GL Base; Azoene Fast Red 3GL Salt; Azofix Red 3GL Salt; Azofly Red 3GL Salt; Azoic Diazo Component 9; Benzenamide, 4-chloro-2-nitro-; C.I. 37040; C.I. Azoic Diazo Component 9; CI 37040; Daito Red Base 3GL; Daito Red Salt 3GL; Devol Red F; Devol Red Salt F; Diazo Fast Red 3GL; Fast Red 2NC Base; Fast Red 2NC Salt; Fast Red 3GL Base; Fast Red 3GL Salt; Fast Red 3GL Special Base; Fast Red 3GL Special Salt; Fast Red Base 3GL Special; Fast Red Base 3JL; Fast Red Salt 3GL; Fast Red Salt 3JL; Hiltonil Fast Red 3GL Base; Hiltosal Fast Red 3GL Salt; Kayaku Fast Red 3GL Base; Kayaku Red Salt 3GL; Kayaku Red Salt GL; Mitsui Red 3GL Base; Mitsui Red 3GL Salt; Naphthanil Red 3G Base; Naphtoelan Fast Red 3GL Base; Naphtoelan Fast Red 3GL Salt; Naptoelan Fast Red 3GL Salt; PCON; PCONA; Red 3G Base; Red 3G Salt; Red 3GS Salt; Red Base 3 GL; Red Base 3GL; Red Base Ciba VI; Red Base IRGA VI; Red Salt Ciba VI; Red Salt Irga VI; Red Salt NBGL; Sanyo Fast Red Salt 3GL; Shinnippon Fast Red 3GL Base; Symulon Red 3GL Salt; p-Chloro-o-nitroaniline; [ChemIDplus] UN2237",
        "links": [],
        "cross_references": [
          {
            "type": "name_match",
            "text": "aniline",
            "confidence": 1.0,
            "uuid": "e4932692-8d9c-4a98-8c5c-81e55b12aedf",
            "name": "Aniline",
            "url": "https://haz-map.com/Agents/296",
            "category": "agents"
          },
          {
            "type": "name_match",
            "text": "ht",
            "confidence": 1.0,
            "uuid": "764df367-8d53-4a11-81a2-31ccfe122a8d",
            "name": "HT",
            "url": "https://haz-map.com/Agents/2168",
            "category": "agents"
          },
          {
            "type": "name_match",
            "text": "4-chloroaniline",
            "confidence": 1.0,
            "uuid": "a6515926-1850-4e05-8609-31fb1243a80a",
            "name": "4-Chloroaniline",
            "url": "https://haz-map.com/Agents/3291",
            "category": "agents"
          }
        ]
      },
      "category": {
        "original_name": "Category",
        "value": "Nitroanilines",
        "links": [],
        "cross_references": [
          {
            "type": "name_match",
            "text": "aniline",
            "confidence": 1.0,
            "uuid": "e4932692-8d9c-4a98-8c5c-81e55b12aedf",
            "name": "Aniline",
            "url": "https://haz-map.com/Agents/296",
            "category": "agents"
          }
        ]
      },
      "description": {
        "original_name": "Description",
        "value": "Orange solid; [Hawley] Orange powder; [MSDSonline]",
        "links": [],
        "cross_references": []
      },
      "sourcesuses": {
        "original_name": "Sources/Uses",
        "value": "Used as a dye and pigment intermediate; [Hawley]",
        "links": [],
        "cross_references": []
      },
      "comments": {
        "original_name": "Comments",
        "value": "A mutagen; Acts as general anesthetic in lethal-dose feeding studies of guinea pigs; [RTECS] Emergency treatment: Methemoglobinemia; May caused severe damage to eyes; [HSDB] An irritant; May induce methemoglobinemia; May be absorbed through skin; [MSDSonline]",
        "links": [],
        "cross_references": [
          {
            "type": "name_match",
            "text": "methemoglobin",
            "confidence": 1.0,
            "uuid": "afb7ebf5-d2a3-4e60-8d2e-3a19456344ee",
            "name": "Methemoglobin",
            "url": "https://haz-map.com/Agents/15467",
            "category": "agents"
          },
          {
            "type": "fuzzy_match",
            "text": "methemoglobinemia",
            "matched_name": "Methemoglobinemia, acute",
            "confidence": 0.7208333333333333,
            "uuid": "473a44bd-cf11-4710-a769-e8e2b25ba317",
            "category": "diseases",
            "url": "https://haz-map.com/Diseases/210"
          }
        ]
      },
      "biomedical_references": {
        "original_name": "Biomedical References",
        "value": "Search PubMed",
        "links": [
          {
            "text": "Search PubMed",
            "url": "https://www.ncbi.nlm.nih.gov/pubmed?term=4-Chloro-2-nitroaniline%20AND%20human%5Bmh%5D%20AND%20%28Occupational%20Diseases%20%5Bmh%5D%20OR%20Occupational%20Exposure%20%5Bmh%5D%29%20%20AND%20%28tox%5Bsb%5D%29&cmd=search"
          }
        ],
        "cross_references": []
      }
    },
    "exposure_assessment": {
      "vapor_pressure": {
        "original_name": "Vapor Pressure",
        "value": "0.000485 mm Hg",
        "links": [],
        "cross_references": []
      },
      "explanatory_notes": {
        "original_name": "Explanatory Notes",
        "value": "The Guide in the Emergency Response Guidebook is for \"Chloronitroanilines.\"",
        "links": [],
        "cross_references": [
          {
            "type": "name_match",
            "text": "aniline",
            "confidence": 1.0,
            "uuid": "e4932692-8d9c-4a98-8c5c-81e55b12aedf",
            "name": "Aniline",
            "url": "https://haz-map.com/Agents/296",
            "category": "agents"
          }
        ]
      }
    },
    "adverse_effects": {
      "methemoglobinemia": {
        "original_name": "Methemoglobinemia",
        "value": "MetHgb is secondary toxic effect",
        "links": [],
        "cross_references": []
      },
      "neurotoxin": {
        "original_name": "Neurotoxin",
        "value": "Other CNS neurotoxin",
        "links": [],
        "cross_references": []
      }
    },
    "diseases_processes_and_activities_linked_to_this_agent": {
      "other_information": {
        "original_name": "Other Information",
        "value": "No other related information on this agent was found.",
        "links": [],
        "cross_references": []
      }
    }
  },
  "cross_references": [
    {
      "type": "name_match",
      "text": "aniline",
      "confidence": 1.0,
      "uuid": "e4932692-8d9c-4a98-8c5c-81e55b12aedf",
      "name": "Aniline",
      "url": "https://haz-map.com/Agents/296",
      "category": "agents"
    },
    {
      "type": "name_match",
      "text": "nitrogen",
      "confidence": 1.0,
      "uuid": "db5e90a9-06d2-45b9-8b81-f345a89b0bc0",
      "name": "Nitrogen",
      "url": "https://haz-map.com/Agents/1072",
      "category": "agents"
    },
    {
      "type": "name_match",
      "text": "ht",
      "confidence": 1.0,
      "uuid": "764df367-8d53-4a11-81a2-31ccfe122a8d",
      "name": "HT",
      "url": "https://haz-map.com/Agents/2168",
      "category": "agents"
    },
    {
      "type": "name_match",
      "text": "2-nitroaniline",
      "confidence": 1.0,
      "uuid": "6d7d6515-4d7d-48cf-be15-e1f1ce18006a",
      "name": "2-Nitroaniline",
      "url": "https://haz-map.com/Agents/3149",
      "category": "agents"
    },
    {
      "type": "name_match",
      "text": "4-chloro-2-nitroaniline",
      "confidence": 1.0,
      "uuid": "87fecc71-dbf6-4280-82cf-23ca57b39928",
      "name": "4-Chloro-2-nitroaniline",
      "url": "https://haz-map.com/Agents/3284",
      "category": "agents"
    },
    {
      "type": "name_match",
      "text": "4-chloroaniline",
      "confidence": 1.0,
      "uuid": "a6515926-1850-4e05-8609-31fb1243a80a",
      "name": "4-Chloroaniline",
      "url": "https://haz-map.com/Agents/3291",
      "category": "agents"
    },
    {
      "type": "name_match",
      "text": "methemoglobin",
      "confidence": 1.0,
      "uuid": "afb7ebf5-d2a3-4e60-8d2e-3a19456344ee",
      "name": "Methemoglobin",
      "url": "https://haz-map.com/Agents/15467",
      "category": "agents"
    },
    {
      "type": "fuzzy_match",
      "text": "methemoglobinemia",
      "matched_name": "Methemoglobinemia, acute",
      "confidence": 0.7208333333333333,
      "uuid": "473a44bd-cf11-4710-a769-e8e2b25ba317",
      "category": "diseases",
      "url": "https://haz-map.com/Diseases/210"
    }
  ],
  "all_links": [
    {
      "text": "Search PubMed",
      "url": "https://www.ncbi.nlm.nih.gov/pubmed?term=4-Chloro-2-nitroaniline%20AND%20human%5Bmh%5D%20AND%20%28Occupational%20Diseases%20%5Bmh%5D%20OR%20Occupational%20Exposure%20%5Bmh%5D%29%20%20AND%20%28tox%5Bsb%5D%29&cmd=search"
    }
  ]
}