{
  "metadata": {
    "scraped_from": "https://haz-map.com/Agents/3592",
    "entity_name": "alpha-Santalol",
    "category": "agents",
    "uuid": "8848501c-64e2-4f98-9b64-76a82fa5e2aa",
    "scraped_at": "2025-07-23T19:31:09.789551"
  },
  "parsed_at": "2025-07-24T01:04:01.217553",
  "title": "alpha-Santalol",
  "sections": {
    "general": {
      "agent_name": {
        "original_name": "Agent Name",
        "value": "alpha-Santalol",
        "links": [],
        "cross_references": [
          {
            "type": "name_match",
            "text": "alpha-santalol",
            "confidence": 1.0,
            "uuid": "8848501c-64e2-4f98-9b64-76a82fa5e2aa",
            "name": "alpha-Santalol",
            "url": "https://haz-map.com/Agents/3592",
            "category": "agents"
          }
        ]
      },
      "cas_number": {
        "original_name": "CAS Number",
        "value": "115-71-9",
        "links": [],
        "cross_references": []
      },
      "formula": {
        "original_name": "Formula",
        "value": "C15-H24-O",
        "links": [],
        "cross_references": []
      },
      "major_category": {
        "original_name": "Major Category",
        "value": "Biological Agents",
        "links": [],
        "cross_references": []
      },
      "synonyms": {
        "original_name": "Synonyms",
        "value": "(Z)-alpha-Santalol; 2-Penten-1-ol, 5-(2,3-dimethyltricyclo(2.2.1.0(sup 2,6))hept-3-yl)-2-methyl; 2-Penten-1-ol, 5-(2,3-dimethyltricyclo(2.2.1.0(2,6))hept-3-yl)-2-methyl-, stereoisomer; 5-(2,3-Dimethyltricyclo(2.2.1.0(2,6))hept-3-yl)-2-methyl-2-penten-1-ol; 5-(2,3-Dimethyltricyclo(2.2.1.0(2,6))hept-3-yl)-2-methyl-2-penten-1-ol stereoisomer; Argeol; Arheol; Sandal; Santalol A; Santalol a; cis-alpha-Santalol; d-alpha-Santalol; [ChemIDplus]",
        "links": [],
        "cross_references": [
          {
            "type": "name_match",
            "text": "alpha-santalol",
            "confidence": 1.0,
            "uuid": "8848501c-64e2-4f98-9b64-76a82fa5e2aa",
            "name": "alpha-Santalol",
            "url": "https://haz-map.com/Agents/3592",
            "category": "agents"
          }
        ]
      },
      "category": {
        "original_name": "Category",
        "value": "Wood Dusts & Extracts",
        "links": [],
        "cross_references": []
      },
      "description": {
        "original_name": "Description",
        "value": "Liquid; [Merck Index] Sweet odor; [HSDB]",
        "links": [],
        "cross_references": []
      },
      "sourcesuses": {
        "original_name": "Sources/Uses",
        "value": "Together with beta-Santalol, account for about 90% of commercial sandalwood oil; Used in perfumes, soaps, and detergents; [Merck Index] Used as a synthetic flavor; [HSDB]",
        "links": [],
        "cross_references": []
      },
      "comments": {
        "original_name": "Comments",
        "value": "Sandalwood oil: A skin, eye, and mucous membrane irritant; May cause CNS depression, seizures, and kidney effects (pain, albuminuria, glycosuria, and bladder spasms); Toxic dose is >3 ml in child and >10 ml in adult; Emergency treatment: \"Sandalwood oil\"; [HSDB] Included in list of \"established contact allergens in humans\"; [EC: Scientific Committee on Consumer Safety: Fragrance allergens in cosmetic products (2011)]",
        "links": [],
        "cross_references": [
          {
            "type": "name_match",
            "text": "dde",
            "confidence": 1.0,
            "uuid": "88506fb4-e7b1-4bde-a283-917057f67fc2",
            "name": "DDE",
            "url": "https://haz-map.com/Agents/4656",
            "category": "agents"
          }
        ]
      },
      "biomedical_references": {
        "original_name": "Biomedical References",
        "value": "Search PubMed",
        "links": [
          {
            "text": "Search PubMed",
            "url": "https://www.ncbi.nlm.nih.gov/pubmed?term=alpha-Santalol%20AND%20human%5Bmh%5D%20AND%20%28Occupational%20Diseases%20%5Bmh%5D%20OR%20Occupational%20Exposure%20%5Bmh%5D%29%20%20AND%20%28tox%5Bsb%5D%29&cmd=search"
          }
        ],
        "cross_references": []
      }
    },
    "exposure_assessment": {
      "explanatory_notes": {
        "original_name": "Explanatory Notes",
        "value": "Flash point > 100 deg C; [HSDB]",
        "links": [],
        "cross_references": [
          {
            "type": "name_match",
            "text": "ash",
            "confidence": 1.0,
            "uuid": "68b360f1-5ad0-4337-bea0-d7adca2961b5",
            "name": "Ash",
            "url": "https://haz-map.com/Agents/965",
            "category": "agents"
          }
        ]
      },
      "nfpa": {
        "original_name": "NFPA",
        "value": "must be preheated",
        "links": [],
        "cross_references": []
      }
    },
    "adverse_effects": {
      "skin_sensitizer": {
        "original_name": "Skin Sensitizer",
        "value": "Yes",
        "links": [],
        "cross_references": []
      },
      "neurotoxin": {
        "original_name": "Neurotoxin",
        "value": "Other CNS neurotoxin",
        "links": [],
        "cross_references": []
      },
      "nephrotoxin": {
        "original_name": "Nephrotoxin",
        "value": "Yes",
        "links": [],
        "cross_references": []
      }
    },
    "diseases_processes_and_activities_linked_to_this_agent": {
      "diseases": {
        "original_name": "Diseases",
        "value": "Occupational diseases associated with exposure to this agent: Contact dermatitis, allergic",
        "links": [
          {
            "text": "Contact dermatitis, allergic",
            "url": "https://haz-map.com/Diseases/18"
          }
        ],
        "cross_references": [
          {
            "type": "url_match",
            "text": "Contact dermatitis, allergic",
            "url": "https://haz-map.com/Diseases/18",
            "confidence": 1.0,
            "uuid": "c9499de0-9aa1-41bf-8753-cd5b28a63e29",
            "name": "Contact dermatitis, allergic",
            "category": "diseases"
          },
          {
            "type": "name_match",
            "text": "dermatitis",
            "confidence": 1.0,
            "uuid": "fe9c05f2-b19f-4ceb-ac7a-ffb7d7a0cae0",
            "name": "dermatitis",
            "url": "https://haz-map.com/Findings/59",
            "category": "findings"
          }
        ]
      }
    }
  },
  "cross_references": [
    {
      "type": "url_match",
      "text": "Contact dermatitis, allergic",
      "url": "https://haz-map.com/Diseases/18",
      "confidence": 1.0,
      "uuid": "c9499de0-9aa1-41bf-8753-cd5b28a63e29",
      "name": "Contact dermatitis, allergic",
      "category": "diseases"
    },
    {
      "type": "name_match",
      "text": "dermatitis",
      "confidence": 1.0,
      "uuid": "fe9c05f2-b19f-4ceb-ac7a-ffb7d7a0cae0",
      "name": "dermatitis",
      "url": "https://haz-map.com/Findings/59",
      "category": "findings"
    },
    {
      "type": "name_match",
      "text": "ash",
      "confidence": 1.0,
      "uuid": "68b360f1-5ad0-4337-bea0-d7adca2961b5",
      "name": "Ash",
      "url": "https://haz-map.com/Agents/965",
      "category": "agents"
    },
    {
      "type": "name_match",
      "text": "alpha-santalol",
      "confidence": 1.0,
      "uuid": "8848501c-64e2-4f98-9b64-76a82fa5e2aa",
      "name": "alpha-Santalol",
      "url": "https://haz-map.com/Agents/3592",
      "category": "agents"
    },
    {
      "type": "name_match",
      "text": "dde",
      "confidence": 1.0,
      "uuid": "88506fb4-e7b1-4bde-a283-917057f67fc2",
      "name": "DDE",
      "url": "https://haz-map.com/Agents/4656",
      "category": "agents"
    }
  ],
  "all_links": [
    {
      "text": "Search PubMed",
      "url": "https://www.ncbi.nlm.nih.gov/pubmed?term=alpha-Santalol%20AND%20human%5Bmh%5D%20AND%20%28Occupational%20Diseases%20%5Bmh%5D%20OR%20Occupational%20Exposure%20%5Bmh%5D%29%20%20AND%20%28tox%5Bsb%5D%29&cmd=search"
    },
    {
      "text": "Contact dermatitis, allergic",
      "url": "https://haz-map.com/Diseases/18"
    }
  ]
}