{
  "metadata": {
    "scraped_from": "https://haz-map.com/Agents/19597",
    "entity_name": "2-Ethyl-2-nitro-1,3-propanediol",
    "category": "agents",
    "uuid": "884b591d-169e-466f-8b36-62a92f1c96ea",
    "scraped_at": "2025-07-23T22:09:12.508931"
  },
  "parsed_at": "2025-07-24T01:12:51.218547",
  "title": "2-Ethyl-2-nitro-1,3-propanediol",
  "sections": {
    "general": {
      "agent_name": {
        "original_name": "Agent Name",
        "value": "2-Ethyl-2-nitro-1,3-propanediol",
        "links": [],
        "cross_references": [
          {
            "type": "name_match",
            "text": "propane",
            "confidence": 1.0,
            "uuid": "563a611b-46ea-4bdc-b77b-17d8f7646283",
            "name": "Propane",
            "url": "https://haz-map.com/Agents/607",
            "category": "agents"
          },
          {
            "type": "name_match",
            "text": "1,3-propanediol",
            "confidence": 1.0,
            "uuid": "363c509c-abea-46ca-9e07-a05fe05d1854",
            "name": "1,3-Propanediol",
            "url": "https://haz-map.com/Agents/9616",
            "category": "agents"
          },
          {
            "type": "name_match",
            "text": "2-ethyl-2-nitro-1,3-propanediol",
            "confidence": 1.0,
            "uuid": "884b591d-169e-466f-8b36-62a92f1c96ea",
            "name": "2-Ethyl-2-nitro-1,3-propanediol",
            "url": "https://haz-map.com/Agents/19597",
            "category": "agents"
          }
        ]
      },
      "cas_number": {
        "original_name": "CAS Number",
        "value": "597-09-1",
        "links": [],
        "cross_references": []
      },
      "formula": {
        "original_name": "Formula",
        "value": "C5-H11-N-O4",
        "links": [],
        "cross_references": []
      },
      "major_category": {
        "original_name": "Major Category",
        "value": "Nitrogen Compounds",
        "links": [],
        "cross_references": [
          {
            "type": "name_match",
            "text": "nitrogen",
            "confidence": 1.0,
            "uuid": "db5e90a9-06d2-45b9-8b81-f345a89b0bc0",
            "name": "Nitrogen",
            "url": "https://haz-map.com/Agents/1072",
            "category": "agents"
          }
        ]
      },
      "synonyms": {
        "original_name": "Synonyms",
        "value": "2-Ethyl-2-nitropropanediol; 2-Nitro-2-ethyl-1,3-propanediol; 1,3-Propanediol, 2-ethyl-2-nitro-; 2-Ethyl-2-nitropropane-1,3-diol; [ChemIDplus]",
        "links": [],
        "cross_references": [
          {
            "type": "name_match",
            "text": "2-nitropropane",
            "confidence": 1.0,
            "uuid": "13da4398-5a0e-41d2-8e0b-fa590dbd6a37",
            "name": "2-Nitropropane",
            "url": "https://haz-map.com/Agents/418",
            "category": "agents"
          },
          {
            "type": "name_match",
            "text": "propane",
            "confidence": 1.0,
            "uuid": "563a611b-46ea-4bdc-b77b-17d8f7646283",
            "name": "Propane",
            "url": "https://haz-map.com/Agents/607",
            "category": "agents"
          },
          {
            "type": "name_match",
            "text": "1,3-propanediol",
            "confidence": 1.0,
            "uuid": "363c509c-abea-46ca-9e07-a05fe05d1854",
            "name": "1,3-Propanediol",
            "url": "https://haz-map.com/Agents/9616",
            "category": "agents"
          }
        ]
      },
      "category": {
        "original_name": "Category",
        "value": "Other Nitrogen Compounds",
        "links": [],
        "cross_references": [
          {
            "type": "name_match",
            "text": "nitrogen",
            "confidence": 1.0,
            "uuid": "db5e90a9-06d2-45b9-8b81-f345a89b0bc0",
            "name": "Nitrogen",
            "url": "https://haz-map.com/Agents/1072",
            "category": "agents"
          }
        ]
      },
      "description": {
        "original_name": "Description",
        "value": "Solid; [Alfa Aesar MSDS]",
        "links": [],
        "cross_references": []
      },
      "comments": {
        "original_name": "Comments",
        "value": "An irritant; [Alfa Aesar MSDS] See \"Trimethylolethane trinitrate.\" See \"2-Hydroxymethyl-2-nitro-1,3-propanediol.\"",
        "links": [],
        "cross_references": [
          {
            "type": "name_match",
            "text": "propane",
            "confidence": 1.0,
            "uuid": "563a611b-46ea-4bdc-b77b-17d8f7646283",
            "name": "Propane",
            "url": "https://haz-map.com/Agents/607",
            "category": "agents"
          },
          {
            "type": "name_match",
            "text": "ethane",
            "confidence": 1.0,
            "uuid": "5162cc8c-dfb9-4060-81ac-38a8cec7f9dd",
            "name": "Ethane",
            "url": "https://haz-map.com/Agents/1075",
            "category": "agents"
          },
          {
            "type": "name_match",
            "text": "2-hydroxymethyl-2-nitro-1,3-propanediol",
            "confidence": 1.0,
            "uuid": "5a10e9ab-7624-4ef7-88b7-0f8c77286a68",
            "name": "2-Hydroxymethyl-2-nitro-1,3-propanediol",
            "url": "https://haz-map.com/Agents/3114",
            "category": "agents"
          },
          {
            "type": "name_match",
            "text": "1,3-propanediol",
            "confidence": 1.0,
            "uuid": "363c509c-abea-46ca-9e07-a05fe05d1854",
            "name": "1,3-Propanediol",
            "url": "https://haz-map.com/Agents/9616",
            "category": "agents"
          },
          {
            "type": "name_match",
            "text": "trimethylolethane trinitrate",
            "confidence": 1.0,
            "uuid": "8095678e-1057-488a-915f-a58d8b773760",
            "name": "Trimethylolethane trinitrate",
            "url": "https://haz-map.com/Agents/18367",
            "category": "agents"
          }
        ]
      },
      "biomedical_references": {
        "original_name": "Biomedical References",
        "value": "Search PubMed",
        "links": [
          {
            "text": "Search PubMed",
            "url": "https://www.ncbi.nlm.nih.gov/pubmed?term=2-Ethyl-2-nitro-1%2c3-propanediol%20AND%20human%5Bmh%5D%20AND%20%28Occupational%20Diseases%20%5Bmh%5D%20OR%20Occupational%20Exposure%20%5Bmh%5D%29%20%20AND%20%28tox%5Bsb%5D%29&cmd=search"
          }
        ],
        "cross_references": []
      }
    },
    "exposure_assessment": {
      "vapor_pressure": {
        "original_name": "Vapor Pressure",
        "value": "8.65E-05 mm Hg",
        "links": [],
        "cross_references": []
      }
    },
    "diseases_processes_and_activities_linked_to_this_agent": {
      "other_information": {
        "original_name": "Other Information",
        "value": "No other related information on this agent was found.",
        "links": [],
        "cross_references": []
      }
    }
  },
  "cross_references": [
    {
      "type": "name_match",
      "text": "2-nitropropane",
      "confidence": 1.0,
      "uuid": "13da4398-5a0e-41d2-8e0b-fa590dbd6a37",
      "name": "2-Nitropropane",
      "url": "https://haz-map.com/Agents/418",
      "category": "agents"
    },
    {
      "type": "name_match",
      "text": "propane",
      "confidence": 1.0,
      "uuid": "563a611b-46ea-4bdc-b77b-17d8f7646283",
      "name": "Propane",
      "url": "https://haz-map.com/Agents/607",
      "category": "agents"
    },
    {
      "type": "name_match",
      "text": "nitrogen",
      "confidence": 1.0,
      "uuid": "db5e90a9-06d2-45b9-8b81-f345a89b0bc0",
      "name": "Nitrogen",
      "url": "https://haz-map.com/Agents/1072",
      "category": "agents"
    },
    {
      "type": "name_match",
      "text": "ethane",
      "confidence": 1.0,
      "uuid": "5162cc8c-dfb9-4060-81ac-38a8cec7f9dd",
      "name": "Ethane",
      "url": "https://haz-map.com/Agents/1075",
      "category": "agents"
    },
    {
      "type": "name_match",
      "text": "2-hydroxymethyl-2-nitro-1,3-propanediol",
      "confidence": 1.0,
      "uuid": "5a10e9ab-7624-4ef7-88b7-0f8c77286a68",
      "name": "2-Hydroxymethyl-2-nitro-1,3-propanediol",
      "url": "https://haz-map.com/Agents/3114",
      "category": "agents"
    },
    {
      "type": "name_match",
      "text": "1,3-propanediol",
      "confidence": 1.0,
      "uuid": "363c509c-abea-46ca-9e07-a05fe05d1854",
      "name": "1,3-Propanediol",
      "url": "https://haz-map.com/Agents/9616",
      "category": "agents"
    },
    {
      "type": "name_match",
      "text": "trimethylolethane trinitrate",
      "confidence": 1.0,
      "uuid": "8095678e-1057-488a-915f-a58d8b773760",
      "name": "Trimethylolethane trinitrate",
      "url": "https://haz-map.com/Agents/18367",
      "category": "agents"
    },
    {
      "type": "name_match",
      "text": "2-ethyl-2-nitro-1,3-propanediol",
      "confidence": 1.0,
      "uuid": "884b591d-169e-466f-8b36-62a92f1c96ea",
      "name": "2-Ethyl-2-nitro-1,3-propanediol",
      "url": "https://haz-map.com/Agents/19597",
      "category": "agents"
    }
  ],
  "all_links": [
    {
      "text": "Search PubMed",
      "url": "https://www.ncbi.nlm.nih.gov/pubmed?term=2-Ethyl-2-nitro-1%2c3-propanediol%20AND%20human%5Bmh%5D%20AND%20%28Occupational%20Diseases%20%5Bmh%5D%20OR%20Occupational%20Exposure%20%5Bmh%5D%29%20%20AND%20%28tox%5Bsb%5D%29&cmd=search"
    }
  ]
}