{
  "metadata": {
    "scraped_from": "https://haz-map.com/Agents/19741",
    "entity_name": "Nitromide",
    "category": "agents",
    "uuid": "8859a709-ecde-43ce-8304-01766242f52c",
    "scraped_at": "2025-07-23T22:12:05.653240"
  },
  "parsed_at": "2025-07-24T01:10:22.461641",
  "title": "Nitromide",
  "sections": {
    "general": {
      "agent_name": {
        "original_name": "Agent Name",
        "value": "Nitromide",
        "links": [],
        "cross_references": [
          {
            "type": "name_match",
            "text": "nitromide",
            "confidence": 1.0,
            "uuid": "8859a709-ecde-43ce-8304-01766242f52c",
            "name": "Nitromide",
            "url": "https://haz-map.com/Agents/19741",
            "category": "agents"
          }
        ]
      },
      "cas_number": {
        "original_name": "CAS Number",
        "value": "121-81-3",
        "links": [],
        "cross_references": []
      },
      "formula": {
        "original_name": "Formula",
        "value": "C7-H5-N3-O5",
        "links": [],
        "cross_references": []
      },
      "major_category": {
        "original_name": "Major Category",
        "value": "Other Uses",
        "links": [],
        "cross_references": []
      },
      "synonyms": {
        "original_name": "Synonyms",
        "value": "3,5-Dinitrobenzamide; Tristat; Unistat; Benzamide, 3,5-dinitro-; [ChemIDplus]",
        "links": [],
        "cross_references": [
          {
            "type": "name_match",
            "text": "benzamide",
            "confidence": 1.0,
            "uuid": "8900c544-7f26-477e-a4c1-ff24fcc01b2c",
            "name": "Benzamide",
            "url": "https://haz-map.com/Agents/3828",
            "category": "agents"
          }
        ]
      },
      "category": {
        "original_name": "Category",
        "value": "Animal Feed Additives",
        "links": [],
        "cross_references": []
      },
      "description": {
        "original_name": "Description",
        "value": "Solid; [Merck Index] Cream powder; [Alfa Aesar MSDS]",
        "links": [],
        "cross_references": []
      },
      "sourcesuses": {
        "original_name": "Sources/Uses",
        "value": "Used as a veterinary antibacterial and coccidiostat for poultry; [Merck Index] Used in poultry feeds; [ChemIDplus]",
        "links": [],
        "cross_references": []
      },
      "comments": {
        "original_name": "Comments",
        "value": "May cause irritation; Toxic by ingestion; [Alfa Aesar MSDS] See \"Dinitrotoluene, all isomers.\"",
        "links": [],
        "cross_references": [
          {
            "type": "name_match",
            "text": "toluene",
            "confidence": 1.0,
            "uuid": "0a34d5de-e924-4c47-aff5-7ae8e48c6772",
            "name": "Toluene",
            "url": "https://haz-map.com/Agents/83",
            "category": "agents"
          },
          {
            "type": "name_match",
            "text": "dinitrotoluene, all isomers",
            "confidence": 1.0,
            "uuid": "c8b4c94a-32ee-4d25-bc21-87a2d87c406e",
            "name": "Dinitrotoluene, all isomers",
            "url": "https://haz-map.com/Agents/120",
            "category": "agents"
          }
        ]
      },
      "biomedical_references": {
        "original_name": "Biomedical References",
        "value": "Search PubMed",
        "links": [
          {
            "text": "Search PubMed",
            "url": "https://www.ncbi.nlm.nih.gov/pubmed?term=Nitromide%20AND%20human%5Bmh%5D%20AND%20%28Occupational%20Diseases%20%5Bmh%5D%20OR%20Occupational%20Exposure%20%5Bmh%5D%29%20%20AND%20%28tox%5Bsb%5D%29&cmd=search"
          }
        ],
        "cross_references": []
      }
    },
    "exposure_assessment": {
      "vapor_pressure": {
        "original_name": "Vapor Pressure",
        "value": "1.56E-07 mm Hg",
        "links": [],
        "cross_references": []
      }
    },
    "diseases_processes_and_activities_linked_to_this_agent": {
      "processes": {
        "original_name": "Processes",
        "value": "Industrial Processes with risk of exposure: Farming (Feed Additives)",
        "links": [
          {
            "text": "Farming (Feed Additives)",
            "url": "https://haz-map.com/Processes/262"
          }
        ],
        "cross_references": []
      }
    }
  },
  "cross_references": [
    {
      "type": "name_match",
      "text": "toluene",
      "confidence": 1.0,
      "uuid": "0a34d5de-e924-4c47-aff5-7ae8e48c6772",
      "name": "Toluene",
      "url": "https://haz-map.com/Agents/83",
      "category": "agents"
    },
    {
      "type": "name_match",
      "text": "dinitrotoluene, all isomers",
      "confidence": 1.0,
      "uuid": "c8b4c94a-32ee-4d25-bc21-87a2d87c406e",
      "name": "Dinitrotoluene, all isomers",
      "url": "https://haz-map.com/Agents/120",
      "category": "agents"
    },
    {
      "type": "name_match",
      "text": "benzamide",
      "confidence": 1.0,
      "uuid": "8900c544-7f26-477e-a4c1-ff24fcc01b2c",
      "name": "Benzamide",
      "url": "https://haz-map.com/Agents/3828",
      "category": "agents"
    },
    {
      "type": "name_match",
      "text": "nitromide",
      "confidence": 1.0,
      "uuid": "8859a709-ecde-43ce-8304-01766242f52c",
      "name": "Nitromide",
      "url": "https://haz-map.com/Agents/19741",
      "category": "agents"
    }
  ],
  "all_links": [
    {
      "text": "Search PubMed",
      "url": "https://www.ncbi.nlm.nih.gov/pubmed?term=Nitromide%20AND%20human%5Bmh%5D%20AND%20%28Occupational%20Diseases%20%5Bmh%5D%20OR%20Occupational%20Exposure%20%5Bmh%5D%29%20%20AND%20%28tox%5Bsb%5D%29&cmd=search"
    },
    {
      "text": "Farming (Feed Additives)",
      "url": "https://haz-map.com/Processes/262"
    }
  ]
}