{
  "metadata": {
    "scraped_from": "https://haz-map.com/Agents/5757",
    "entity_name": "Kinetin",
    "category": "agents",
    "uuid": "8863a805-e44b-447c-954c-8120f9608421",
    "scraped_at": "2025-07-23T19:55:54.364033"
  },
  "parsed_at": "2025-07-24T01:11:08.168615",
  "title": "Kinetin",
  "sections": {
    "general": {
      "agent_name": {
        "original_name": "Agent Name",
        "value": "Kinetin",
        "links": [],
        "cross_references": [
          {
            "type": "name_match",
            "text": "kinetin",
            "confidence": 1.0,
            "uuid": "8863a805-e44b-447c-954c-8120f9608421",
            "name": "Kinetin",
            "url": "https://haz-map.com/Agents/5757",
            "category": "agents"
          }
        ]
      },
      "alternative_name": {
        "original_name": "Alternative Name",
        "value": "Cytokinin",
        "links": [],
        "cross_references": []
      },
      "cas_number": {
        "original_name": "CAS Number",
        "value": "525-79-1",
        "links": [],
        "cross_references": []
      },
      "formula": {
        "original_name": "Formula",
        "value": "C10-H9-N5-O",
        "links": [],
        "cross_references": []
      },
      "major_category": {
        "original_name": "Major Category",
        "value": "Pesticides",
        "links": [],
        "cross_references": []
      },
      "synonyms": {
        "original_name": "Synonyms",
        "value": "2-Furanmethanamine, N-1H-purin-6-yl-; 6-(Furfurylamino)purine; 6-Furfuryladenine; Cytex; Cytokinin; FAP; KT; Kinetin (plant hormone); N(sup 6)-(Furfurylamino)purine; N(sup 6)-Furfuryladenine; N-(2-Furanylmethyl)-1H-purin-6-amine; N-Furfuryladenine; N6-(Furfurylamino)purine; N6-Furfuryladenine; 1H-Purin-6-amine, N-(2-furanylmethyl)-; 9H-Purin-6-amine, N-(2-furanylmethyl)-; Adenine, N-furfuryl-; Furfuryl(purin-6-yl)amine; [ChemIDplus]",
        "links": [],
        "cross_references": [
          {
            "type": "name_match",
            "text": "furan",
            "confidence": 1.0,
            "uuid": "96da3d2e-f46b-4100-9000-704d1a86985b",
            "name": "Furan",
            "url": "https://haz-map.com/Agents/1477",
            "category": "agents"
          },
          {
            "type": "name_match",
            "text": "kinetin",
            "confidence": 1.0,
            "uuid": "8863a805-e44b-447c-954c-8120f9608421",
            "name": "Kinetin",
            "url": "https://haz-map.com/Agents/5757",
            "category": "agents"
          }
        ]
      },
      "category": {
        "original_name": "Category",
        "value": "Plant Growth Regulators",
        "links": [],
        "cross_references": []
      },
      "description": {
        "original_name": "Description",
        "value": "Solid; [Merck Index] White powder; [MSDSonline]",
        "links": [],
        "cross_references": []
      },
      "sourcesuses": {
        "original_name": "Sources/Uses",
        "value": "A cell division factor present in plants and yeast; [Merck Index] Used to stimulate plant growth, to augment growth of microbial cultures, and in cosmetics to reduce wrinkles, hyperpigmentation, and roughness; [HSDB] Promotes leaf expansion and retards leaf aging; Applied to growing crops (vegetables and fruits); Cytokinin is naturally occurring and derived from seaweed meal; Kinetin is synthetic cytokinin; [Reference #1]",
        "links": [],
        "cross_references": [
          {
            "type": "name_match",
            "text": "kinetin",
            "confidence": 1.0,
            "uuid": "8863a805-e44b-447c-954c-8120f9608421",
            "name": "Kinetin",
            "url": "https://haz-map.com/Agents/5757",
            "category": "agents"
          }
        ]
      },
      "comments": {
        "original_name": "Comments",
        "value": "An irritant; [MSDSonline]",
        "links": [],
        "cross_references": []
      },
      "reference_link_1": {
        "original_name": "Reference Link #1",
        "value": "EPA Pesticide Chemical Search",
        "links": [
          {
            "text": "EPA Pesticide Chemical Search",
            "url": "https://iaspub.epa.gov/apex/pesticides/f?p=CHEMICALSEARCH:1:"
          }
        ],
        "cross_references": [
          {
            "type": "name_match",
            "text": "mica",
            "confidence": 1.0,
            "uuid": "433f26f1-c399-4596-b179-ce3843cfd465",
            "name": "Mica",
            "url": "https://haz-map.com/Agents/621",
            "category": "agents"
          }
        ]
      },
      "biomedical_references": {
        "original_name": "Biomedical References",
        "value": "Search PubMed",
        "links": [
          {
            "text": "Search PubMed",
            "url": "https://www.ncbi.nlm.nih.gov/pubmed?term=Kinetin%20AND%20human%5Bmh%5D%20AND%20%28Occupational%20Diseases%20%5Bmh%5D%20OR%20Occupational%20Exposure%20%5Bmh%5D%29%20%20AND%20%28tox%5Bsb%5D%29&cmd=search"
          }
        ],
        "cross_references": []
      }
    },
    "exposure_assessment": {
      "vapor_pressure": {
        "original_name": "Vapor Pressure",
        "value": "1.8E-09 mm Hg",
        "links": [],
        "cross_references": []
      }
    },
    "diseases_processes_and_activities_linked_to_this_agent": {
      "processes": {
        "original_name": "Processes",
        "value": "Industrial Processes with risk of exposure: Farming (Pesticides)",
        "links": [
          {
            "text": "Farming (Pesticides)",
            "url": "https://haz-map.com/Processes/218"
          }
        ],
        "cross_references": [
          {
            "type": "url_match",
            "text": "Farming (Pesticides)",
            "url": "https://haz-map.com/Processes/218",
            "confidence": 1.0,
            "uuid": "cf1e5815-c9bb-4917-82a5-391848170b7e",
            "name": "Farming (Pesticides)",
            "category": "processes"
          }
        ]
      }
    }
  },
  "cross_references": [
    {
      "type": "url_match",
      "text": "Farming (Pesticides)",
      "url": "https://haz-map.com/Processes/218",
      "confidence": 1.0,
      "uuid": "cf1e5815-c9bb-4917-82a5-391848170b7e",
      "name": "Farming (Pesticides)",
      "category": "processes"
    },
    {
      "type": "name_match",
      "text": "mica",
      "confidence": 1.0,
      "uuid": "433f26f1-c399-4596-b179-ce3843cfd465",
      "name": "Mica",
      "url": "https://haz-map.com/Agents/621",
      "category": "agents"
    },
    {
      "type": "name_match",
      "text": "furan",
      "confidence": 1.0,
      "uuid": "96da3d2e-f46b-4100-9000-704d1a86985b",
      "name": "Furan",
      "url": "https://haz-map.com/Agents/1477",
      "category": "agents"
    },
    {
      "type": "name_match",
      "text": "kinetin",
      "confidence": 1.0,
      "uuid": "8863a805-e44b-447c-954c-8120f9608421",
      "name": "Kinetin",
      "url": "https://haz-map.com/Agents/5757",
      "category": "agents"
    }
  ],
  "all_links": [
    {
      "text": "EPA Pesticide Chemical Search",
      "url": "https://iaspub.epa.gov/apex/pesticides/f?p=CHEMICALSEARCH:1:"
    },
    {
      "text": "Search PubMed",
      "url": "https://www.ncbi.nlm.nih.gov/pubmed?term=Kinetin%20AND%20human%5Bmh%5D%20AND%20%28Occupational%20Diseases%20%5Bmh%5D%20OR%20Occupational%20Exposure%20%5Bmh%5D%29%20%20AND%20%28tox%5Bsb%5D%29&cmd=search"
    },
    {
      "text": "Farming (Pesticides)",
      "url": "https://haz-map.com/Processes/218"
    }
  ]
}