{
  "metadata": {
    "scraped_from": "https://haz-map.com/Agents/5172",
    "entity_name": "Ethoxyethyl hydroxy mercury",
    "category": "agents",
    "uuid": "88b4beae-2e9d-4300-915b-950050b2c569",
    "scraped_at": "2025-07-23T19:49:44.670458"
  },
  "parsed_at": "2025-07-24T01:10:35.493199",
  "title": "Ethoxyethyl hydroxy mercury",
  "sections": {
    "general": {
      "agent_name": {
        "original_name": "Agent Name",
        "value": "Ethoxyethyl hydroxy mercury",
        "links": [],
        "cross_references": [
          {
            "type": "name_match",
            "text": "mercury",
            "confidence": 1.0,
            "uuid": "1ccd7713-d752-4728-b246-fed6633c4405",
            "name": "Mercury",
            "url": "https://haz-map.com/Agents/6",
            "category": "agents"
          },
          {
            "type": "name_match",
            "text": "ethoxyethyl hydroxy mercury",
            "confidence": 1.0,
            "uuid": "88b4beae-2e9d-4300-915b-950050b2c569",
            "name": "Ethoxyethyl hydroxy mercury",
            "url": "https://haz-map.com/Agents/5172",
            "category": "agents"
          }
        ]
      },
      "cas_number": {
        "original_name": "CAS Number",
        "value": "26983-51-7",
        "links": [],
        "cross_references": []
      },
      "formula": {
        "original_name": "Formula",
        "value": "C4-H10-Hg-O2",
        "links": [],
        "cross_references": []
      },
      "major_category": {
        "original_name": "Major Category",
        "value": "Metals",
        "links": [],
        "cross_references": []
      },
      "synonyms": {
        "original_name": "Synonyms",
        "value": "Mercury, (ethoxyethyl)hydroxy-; [ChemIDplus]",
        "links": [],
        "cross_references": [
          {
            "type": "name_match",
            "text": "mercury",
            "confidence": 1.0,
            "uuid": "1ccd7713-d752-4728-b246-fed6633c4405",
            "name": "Mercury",
            "url": "https://haz-map.com/Agents/6",
            "category": "agents"
          }
        ]
      },
      "category": {
        "original_name": "Category",
        "value": "Metals, Organic Compounds",
        "links": [],
        "cross_references": [
          {
            "type": "fuzzy_match",
            "text": "organic compounds",
            "matched_name": "Tin, organic compounds",
            "confidence": 0.8196969696969697,
            "uuid": "e027d413-8869-4308-9eb2-27d768b011ea",
            "category": "agents",
            "url": "https://haz-map.com/Agents/656"
          }
        ]
      },
      "comments": {
        "original_name": "Comments",
        "value": "See \"Dimethylmercury.\" See \"Mercury, alkyl compounds\" and linked occupational diseases.",
        "links": [],
        "cross_references": [
          {
            "type": "name_match",
            "text": "mercury",
            "confidence": 1.0,
            "uuid": "1ccd7713-d752-4728-b246-fed6633c4405",
            "name": "Mercury",
            "url": "https://haz-map.com/Agents/6",
            "category": "agents"
          },
          {
            "type": "name_match",
            "text": "mercury, alkyl compounds",
            "confidence": 1.0,
            "uuid": "fef22ef4-1f04-4532-8055-c94714079c26",
            "name": "Mercury, alkyl compounds",
            "url": "https://haz-map.com/Agents/1136",
            "category": "agents"
          },
          {
            "type": "name_match",
            "text": "dimethylmercury",
            "confidence": 1.0,
            "uuid": "4375edbd-55da-494a-8f27-1a3ea97ddbb7",
            "name": "Dimethylmercury",
            "url": "https://haz-map.com/Agents/2196",
            "category": "agents"
          }
        ]
      },
      "biomedical_references": {
        "original_name": "Biomedical References",
        "value": "Search PubMed",
        "links": [
          {
            "text": "Search PubMed",
            "url": "https://www.ncbi.nlm.nih.gov/pubmed?term=Ethoxyethyl+hydroxy+mercury%20AND%20human%5Bmh%5D%20AND%20%28Occupational%20Diseases%20%5Bmh%5D%20OR%20Occupational%20Exposure%20%5Bmh%5D%29%20%20AND%20%28tox%5Bsb%5D%29&cmd=search"
          }
        ],
        "cross_references": []
      }
    },
    "exposure_assessment": {
      "skin_designation_acgih": {
        "original_name": "Skin Designation (ACGIH)",
        "value": "Yes",
        "links": [],
        "cross_references": []
      },
      "tlv_acgih": {
        "original_name": "TLV (ACGIH)",
        "value": "0.01 mg/m3, as Hg",
        "links": [],
        "cross_references": []
      },
      "stel_acgih": {
        "original_name": "STEL (ACGIH)",
        "value": "0.03 mg/m3, as Hg",
        "links": [],
        "cross_references": []
      },
      "pel_osha": {
        "original_name": "PEL (OSHA)",
        "value": "0.01 mg/m3, as Hg, Ceiling(OSHA) = 0.04 mg/m3, as Hg",
        "links": [],
        "cross_references": []
      },
      "idlh_niosh": {
        "original_name": "IDLH (NIOSH)",
        "value": "2 mg/m3, as Hg",
        "links": [],
        "cross_references": []
      },
      "vapor_pressure": {
        "original_name": "Vapor Pressure",
        "value": "0.00315 mm Hg",
        "links": [],
        "cross_references": []
      }
    },
    "adverse_effects": {
      "neurotoxin": {
        "original_name": "Neurotoxin",
        "value": "Other CNS neurotoxin",
        "links": [],
        "cross_references": []
      },
      "nephrotoxin": {
        "original_name": "Nephrotoxin",
        "value": "Yes",
        "links": [],
        "cross_references": []
      },
      "reproductive_toxin": {
        "original_name": "Reproductive Toxin",
        "value": "Yes",
        "links": [],
        "cross_references": []
      }
    },
    "diseases_processes_and_activities_linked_to_this_agent": {
      "diseases": {
        "original_name": "Diseases",
        "value": "Occupational diseases associated with exposure to this agent: Encephalopathy, acute toxic",
        "links": [
          {
            "text": "Encephalopathy, acute toxic",
            "url": "https://haz-map.com/Diseases/310"
          }
        ],
        "cross_references": [
          {
            "type": "url_match",
            "text": "Encephalopathy, acute toxic",
            "url": "https://haz-map.com/Diseases/310",
            "confidence": 1.0,
            "uuid": "e3f32506-d410-4705-845c-15277418da6d",
            "name": "Encephalopathy, acute toxic",
            "category": "diseases"
          }
        ]
      }
    }
  },
  "cross_references": [
    {
      "type": "url_match",
      "text": "Encephalopathy, acute toxic",
      "url": "https://haz-map.com/Diseases/310",
      "confidence": 1.0,
      "uuid": "e3f32506-d410-4705-845c-15277418da6d",
      "name": "Encephalopathy, acute toxic",
      "category": "diseases"
    },
    {
      "type": "name_match",
      "text": "mercury",
      "confidence": 1.0,
      "uuid": "1ccd7713-d752-4728-b246-fed6633c4405",
      "name": "Mercury",
      "url": "https://haz-map.com/Agents/6",
      "category": "agents"
    },
    {
      "type": "name_match",
      "text": "mercury, alkyl compounds",
      "confidence": 1.0,
      "uuid": "fef22ef4-1f04-4532-8055-c94714079c26",
      "name": "Mercury, alkyl compounds",
      "url": "https://haz-map.com/Agents/1136",
      "category": "agents"
    },
    {
      "type": "name_match",
      "text": "dimethylmercury",
      "confidence": 1.0,
      "uuid": "4375edbd-55da-494a-8f27-1a3ea97ddbb7",
      "name": "Dimethylmercury",
      "url": "https://haz-map.com/Agents/2196",
      "category": "agents"
    },
    {
      "type": "name_match",
      "text": "ethoxyethyl hydroxy mercury",
      "confidence": 1.0,
      "uuid": "88b4beae-2e9d-4300-915b-950050b2c569",
      "name": "Ethoxyethyl hydroxy mercury",
      "url": "https://haz-map.com/Agents/5172",
      "category": "agents"
    },
    {
      "type": "fuzzy_match",
      "text": "organic compounds",
      "matched_name": "Tin, organic compounds",
      "confidence": 0.8196969696969697,
      "uuid": "e027d413-8869-4308-9eb2-27d768b011ea",
      "category": "agents",
      "url": "https://haz-map.com/Agents/656"
    }
  ],
  "all_links": [
    {
      "text": "Search PubMed",
      "url": "https://www.ncbi.nlm.nih.gov/pubmed?term=Ethoxyethyl+hydroxy+mercury%20AND%20human%5Bmh%5D%20AND%20%28Occupational%20Diseases%20%5Bmh%5D%20OR%20Occupational%20Exposure%20%5Bmh%5D%29%20%20AND%20%28tox%5Bsb%5D%29&cmd=search"
    },
    {
      "text": "Encephalopathy, acute toxic",
      "url": "https://haz-map.com/Diseases/310"
    }
  ]
}