{
  "metadata": {
    "scraped_from": "https://haz-map.com/Agents/15978",
    "entity_name": "Amyl nitrate",
    "category": "agents",
    "uuid": "88eae23d-7e2e-4d03-8e91-76903bcd02b4",
    "scraped_at": "2025-07-23T21:33:33.233414"
  },
  "parsed_at": "2025-07-24T01:17:34.503325",
  "title": "Amyl nitrate",
  "sections": {
    "general": {
      "agent_name": {
        "original_name": "Agent Name",
        "value": "Amyl nitrate",
        "links": [],
        "cross_references": [
          {
            "type": "name_match",
            "text": "amyl nitrate",
            "confidence": 1.0,
            "uuid": "88eae23d-7e2e-4d03-8e91-76903bcd02b4",
            "name": "Amyl nitrate",
            "url": "https://haz-map.com/Agents/15978",
            "category": "agents"
          }
        ]
      },
      "cas_number": {
        "original_name": "CAS Number",
        "value": "1002-16-0",
        "links": [],
        "cross_references": []
      },
      "formula": {
        "original_name": "Formula",
        "value": "C5-H11-N-O3",
        "links": [],
        "cross_references": []
      },
      "major_category": {
        "original_name": "Major Category",
        "value": "Nitrogen Compounds",
        "links": [],
        "cross_references": [
          {
            "type": "name_match",
            "text": "nitrogen",
            "confidence": 1.0,
            "uuid": "db5e90a9-06d2-45b9-8b81-f345a89b0bc0",
            "name": "Nitrogen",
            "url": "https://haz-map.com/Agents/1072",
            "category": "agents"
          }
        ]
      },
      "synonyms": {
        "original_name": "Synonyms",
        "value": "Amylester kyseliny dusicne [Czech]; Nitrate d'amyle [French]; Nitric acid, pentyl ester; Pentyl nitrate; [ChemIDplus] 1-Pentyl nitrate; Diesel ignition improver; n-Amyl nitrate, n-Pentyl nitrate; Nitrato de amilo (Spanish DOT); [CAMEO] UN1112",
        "links": [],
        "cross_references": [
          {
            "type": "name_match",
            "text": "nitric acid",
            "confidence": 1.0,
            "uuid": "bd7295a2-ca9d-4ffb-a0d5-faa4fb9e01e7",
            "name": "Nitric acid",
            "url": "https://haz-map.com/Agents/567",
            "category": "agents"
          },
          {
            "type": "name_match",
            "text": "amyl nitrate",
            "confidence": 1.0,
            "uuid": "88eae23d-7e2e-4d03-8e91-76903bcd02b4",
            "name": "Amyl nitrate",
            "url": "https://haz-map.com/Agents/15978",
            "category": "agents"
          }
        ]
      },
      "category": {
        "original_name": "Category",
        "value": "Nitrates and Nitrites",
        "links": [],
        "cross_references": [
          {
            "type": "name_match",
            "text": "nitrates and nitrites",
            "confidence": 1.0,
            "uuid": "6762c941-4910-4341-a779-ff9c9606e987",
            "name": "NITRATES and NITRITES",
            "url": "https://haz-map.com/Agents/1095",
            "category": "agents"
          }
        ]
      },
      "description": {
        "original_name": "Description",
        "value": "Clear colorless liquid with an ether-like odor; [CAMEO]",
        "links": [],
        "cross_references": []
      },
      "sourcesuses": {
        "original_name": "Sources/Uses",
        "value": "Used as an additive in diesel fuels; [CAMEO]",
        "links": [],
        "cross_references": [
          {
            "type": "name_match",
            "text": "diesel fuel",
            "confidence": 1.0,
            "uuid": "adbe7688-e297-4a58-99e7-dc2df36ca551",
            "name": "Diesel fuel",
            "url": "https://haz-map.com/Agents/1651",
            "category": "agents"
          }
        ]
      },
      "comments": {
        "original_name": "Comments",
        "value": "Causes convulsions, acute pulmonary edema, and renal tubular changes in inhalation lethal-concentration studies of guinea pigs; Causes convulsions and cyanosis in inhalation lethal-concentration studies of rabbits; [RTECS] A strong oxidizing agent; [CAMEO] May cause mild skin irritation; An eye irritant; May induce methemoglobinemia; [CHRIS] See \"Butyl nitrate.\" See \"Amyl nitrite.\"",
        "links": [],
        "cross_references": [
          {
            "type": "name_match",
            "text": "convulsion",
            "confidence": 1.0,
            "uuid": "af2c36f8-707a-48e3-a62b-1aa07adc9b72",
            "name": "convulsion",
            "url": "https://haz-map.com/Findings/14",
            "category": "findings"
          },
          {
            "type": "name_match",
            "text": "pulmonary edema",
            "confidence": 1.0,
            "uuid": "ee39114e-c922-40fd-9588-a532de404962",
            "name": "pulmonary edema",
            "url": "https://haz-map.com/Findings/186",
            "category": "findings"
          },
          {
            "type": "name_match",
            "text": "amyl nitrite",
            "confidence": 1.0,
            "uuid": "769a1636-4173-4cfc-ac12-cc6fb9dae05b",
            "name": "Amyl nitrite",
            "url": "https://haz-map.com/Agents/8309",
            "category": "agents"
          },
          {
            "type": "name_match",
            "text": "butyl nitrate",
            "confidence": 1.0,
            "uuid": "8b55aee6-c4c4-476b-aaa1-cd9929c7a85e",
            "name": "Butyl nitrate",
            "url": "https://haz-map.com/Agents/8629",
            "category": "agents"
          },
          {
            "type": "name_match",
            "text": "methemoglobin",
            "confidence": 1.0,
            "uuid": "afb7ebf5-d2a3-4e60-8d2e-3a19456344ee",
            "name": "Methemoglobin",
            "url": "https://haz-map.com/Agents/15467",
            "category": "agents"
          },
          {
            "type": "fuzzy_match",
            "text": "methemoglobinemia",
            "matched_name": "Methemoglobinemia, acute",
            "confidence": 0.7208333333333333,
            "uuid": "473a44bd-cf11-4710-a769-e8e2b25ba317",
            "category": "diseases",
            "url": "https://haz-map.com/Diseases/210"
          }
        ]
      },
      "biomedical_references": {
        "original_name": "Biomedical References",
        "value": "Search PubMed",
        "links": [
          {
            "text": "Search PubMed",
            "url": "https://www.ncbi.nlm.nih.gov/pubmed?term=Amyl+nitrate%20AND%20human%5Bmh%5D%20AND%20%28Occupational%20Diseases%20%5Bmh%5D%20OR%20Occupational%20Exposure%20%5Bmh%5D%29%20%20AND%20%28tox%5Bsb%5D%29&cmd=search"
          }
        ],
        "cross_references": []
      }
    },
    "exposure_assessment": {
      "vapor_pressure": {
        "original_name": "Vapor Pressure",
        "value": "5.07 mm Hg",
        "links": [],
        "cross_references": []
      },
      "lethal_concentration": {
        "original_name": "Lethal Concentration",
        "value": "LCLo (mouse) = 1,807 ppm/7hr",
        "links": [],
        "cross_references": []
      },
      "nfpa": {
        "original_name": "NFPA",
        "value": "high ambient temp required",
        "links": [],
        "cross_references": []
      }
    },
    "adverse_effects": {
      "methemoglobinemia": {
        "original_name": "Methemoglobinemia",
        "value": "MetHgb is secondary toxic effect",
        "links": [],
        "cross_references": []
      }
    },
    "diseases_processes_and_activities_linked_to_this_agent": {
      "other_information": {
        "original_name": "Other Information",
        "value": "No other related information on this agent was found.",
        "links": [],
        "cross_references": []
      }
    }
  },
  "cross_references": [
    {
      "type": "name_match",
      "text": "convulsion",
      "confidence": 1.0,
      "uuid": "af2c36f8-707a-48e3-a62b-1aa07adc9b72",
      "name": "convulsion",
      "url": "https://haz-map.com/Findings/14",
      "category": "findings"
    },
    {
      "type": "name_match",
      "text": "pulmonary edema",
      "confidence": 1.0,
      "uuid": "ee39114e-c922-40fd-9588-a532de404962",
      "name": "pulmonary edema",
      "url": "https://haz-map.com/Findings/186",
      "category": "findings"
    },
    {
      "type": "name_match",
      "text": "nitric acid",
      "confidence": 1.0,
      "uuid": "bd7295a2-ca9d-4ffb-a0d5-faa4fb9e01e7",
      "name": "Nitric acid",
      "url": "https://haz-map.com/Agents/567",
      "category": "agents"
    },
    {
      "type": "name_match",
      "text": "nitrogen",
      "confidence": 1.0,
      "uuid": "db5e90a9-06d2-45b9-8b81-f345a89b0bc0",
      "name": "Nitrogen",
      "url": "https://haz-map.com/Agents/1072",
      "category": "agents"
    },
    {
      "type": "name_match",
      "text": "nitrates and nitrites",
      "confidence": 1.0,
      "uuid": "6762c941-4910-4341-a779-ff9c9606e987",
      "name": "NITRATES and NITRITES",
      "url": "https://haz-map.com/Agents/1095",
      "category": "agents"
    },
    {
      "type": "name_match",
      "text": "diesel fuel",
      "confidence": 1.0,
      "uuid": "adbe7688-e297-4a58-99e7-dc2df36ca551",
      "name": "Diesel fuel",
      "url": "https://haz-map.com/Agents/1651",
      "category": "agents"
    },
    {
      "type": "name_match",
      "text": "amyl nitrite",
      "confidence": 1.0,
      "uuid": "769a1636-4173-4cfc-ac12-cc6fb9dae05b",
      "name": "Amyl nitrite",
      "url": "https://haz-map.com/Agents/8309",
      "category": "agents"
    },
    {
      "type": "name_match",
      "text": "butyl nitrate",
      "confidence": 1.0,
      "uuid": "8b55aee6-c4c4-476b-aaa1-cd9929c7a85e",
      "name": "Butyl nitrate",
      "url": "https://haz-map.com/Agents/8629",
      "category": "agents"
    },
    {
      "type": "name_match",
      "text": "methemoglobin",
      "confidence": 1.0,
      "uuid": "afb7ebf5-d2a3-4e60-8d2e-3a19456344ee",
      "name": "Methemoglobin",
      "url": "https://haz-map.com/Agents/15467",
      "category": "agents"
    },
    {
      "type": "name_match",
      "text": "amyl nitrate",
      "confidence": 1.0,
      "uuid": "88eae23d-7e2e-4d03-8e91-76903bcd02b4",
      "name": "Amyl nitrate",
      "url": "https://haz-map.com/Agents/15978",
      "category": "agents"
    },
    {
      "type": "fuzzy_match",
      "text": "methemoglobinemia",
      "matched_name": "Methemoglobinemia, acute",
      "confidence": 0.7208333333333333,
      "uuid": "473a44bd-cf11-4710-a769-e8e2b25ba317",
      "category": "diseases",
      "url": "https://haz-map.com/Diseases/210"
    }
  ],
  "all_links": [
    {
      "text": "Search PubMed",
      "url": "https://www.ncbi.nlm.nih.gov/pubmed?term=Amyl+nitrate%20AND%20human%5Bmh%5D%20AND%20%28Occupational%20Diseases%20%5Bmh%5D%20OR%20Occupational%20Exposure%20%5Bmh%5D%29%20%20AND%20%28tox%5Bsb%5D%29&cmd=search"
    }
  ]
}