{
  "metadata": {
    "scraped_from": "https://haz-map.com/Agents/19429",
    "entity_name": "2,2,5,5-Tetramethyltetrahydrofuran",
    "category": "agents",
    "uuid": "894877a6-7faa-4fb9-ad2d-a415238bd181",
    "scraped_at": "2025-07-23T22:05:54.334072"
  },
  "parsed_at": "2025-07-24T01:14:54.435671",
  "title": "2,2,5,5-Tetramethyltetrahydrofuran",
  "sections": {
    "general": {
      "agent_name": {
        "original_name": "Agent Name",
        "value": "2,2,5,5-Tetramethyltetrahydrofuran",
        "links": [],
        "cross_references": [
          {
            "type": "name_match",
            "text": "tetrahydrofuran",
            "confidence": 1.0,
            "uuid": "1e50bb92-4ada-4d8d-8c58-846b271cc00b",
            "name": "Tetrahydrofuran",
            "url": "https://haz-map.com/Agents/649",
            "category": "agents"
          },
          {
            "type": "name_match",
            "text": "furan",
            "confidence": 1.0,
            "uuid": "96da3d2e-f46b-4100-9000-704d1a86985b",
            "name": "Furan",
            "url": "https://haz-map.com/Agents/1477",
            "category": "agents"
          },
          {
            "type": "name_match",
            "text": "2,2,5,5-tetramethyltetrahydrofuran",
            "confidence": 1.0,
            "uuid": "894877a6-7faa-4fb9-ad2d-a415238bd181",
            "name": "2,2,5,5-Tetramethyltetrahydrofuran",
            "url": "https://haz-map.com/Agents/19429",
            "category": "agents"
          }
        ]
      },
      "cas_number": {
        "original_name": "CAS Number",
        "value": "15045-43-9",
        "links": [],
        "cross_references": []
      },
      "formula": {
        "original_name": "Formula",
        "value": "C8-H16-O",
        "links": [],
        "cross_references": []
      },
      "major_category": {
        "original_name": "Major Category",
        "value": "Solvents",
        "links": [],
        "cross_references": []
      },
      "synonyms": {
        "original_name": "Synonyms",
        "value": "Furan, tetrahydro-2,2,5,5-tetramethyl-; Tetrahydro-2,2,5,5-tetramethylfuran; [ChemIDplus] UN3271",
        "links": [],
        "cross_references": [
          {
            "type": "name_match",
            "text": "furan",
            "confidence": 1.0,
            "uuid": "96da3d2e-f46b-4100-9000-704d1a86985b",
            "name": "Furan",
            "url": "https://haz-map.com/Agents/1477",
            "category": "agents"
          }
        ]
      },
      "category": {
        "original_name": "Category",
        "value": "Ethers (<C12)",
        "links": [],
        "cross_references": []
      },
      "description": {
        "original_name": "Description",
        "value": "Colorless liquid; [Alfa Aesar MSDS]",
        "links": [],
        "cross_references": []
      },
      "comments": {
        "original_name": "Comments",
        "value": "An irritant; [Alfa Aesar MSDS] See \"Tetrahydrofuran.\"",
        "links": [],
        "cross_references": [
          {
            "type": "name_match",
            "text": "tetrahydrofuran",
            "confidence": 1.0,
            "uuid": "1e50bb92-4ada-4d8d-8c58-846b271cc00b",
            "name": "Tetrahydrofuran",
            "url": "https://haz-map.com/Agents/649",
            "category": "agents"
          },
          {
            "type": "name_match",
            "text": "furan",
            "confidence": 1.0,
            "uuid": "96da3d2e-f46b-4100-9000-704d1a86985b",
            "name": "Furan",
            "url": "https://haz-map.com/Agents/1477",
            "category": "agents"
          }
        ]
      },
      "biomedical_references": {
        "original_name": "Biomedical References",
        "value": "Search PubMed",
        "links": [
          {
            "text": "Search PubMed",
            "url": "https://www.ncbi.nlm.nih.gov/pubmed?term=2%2c2%2c5%2c5-Tetramethyltetrahydrofuran%20AND%20human%5Bmh%5D%20AND%20%28Occupational%20Diseases%20%5Bmh%5D%20OR%20Occupational%20Exposure%20%5Bmh%5D%29%20%20AND%20%28tox%5Bsb%5D%29&cmd=search"
          }
        ],
        "cross_references": []
      }
    },
    "exposure_assessment": {
      "vapor_pressure": {
        "original_name": "Vapor Pressure",
        "value": "14.4 mm Hg",
        "links": [],
        "cross_references": []
      },
      "explanatory_notes": {
        "original_name": "Explanatory Notes",
        "value": "The Guide in the Emergency Response Guidebook is for \"Ethers, n.o.s.\"",
        "links": [],
        "cross_references": []
      }
    },
    "adverse_effects": {
      "neurotoxin": {
        "original_name": "Neurotoxin",
        "value": "Acute solvent syndrome",
        "links": [],
        "cross_references": []
      }
    },
    "diseases_processes_and_activities_linked_to_this_agent": {
      "diseases": {
        "original_name": "Diseases",
        "value": "Occupational diseases associated with exposure to this agent: Solvents, acute toxic effect",
        "links": [
          {
            "text": "Solvents, acute toxic effect",
            "url": "https://haz-map.com/Diseases/326"
          }
        ],
        "cross_references": [
          {
            "type": "url_match",
            "text": "Solvents, acute toxic effect",
            "url": "https://haz-map.com/Diseases/326",
            "confidence": 1.0,
            "uuid": "581e90e3-9d0c-45f0-aa6c-3468c28da129",
            "name": "Solvents, acute toxic effect",
            "category": "diseases"
          }
        ]
      }
    }
  },
  "cross_references": [
    {
      "type": "url_match",
      "text": "Solvents, acute toxic effect",
      "url": "https://haz-map.com/Diseases/326",
      "confidence": 1.0,
      "uuid": "581e90e3-9d0c-45f0-aa6c-3468c28da129",
      "name": "Solvents, acute toxic effect",
      "category": "diseases"
    },
    {
      "type": "name_match",
      "text": "tetrahydrofuran",
      "confidence": 1.0,
      "uuid": "1e50bb92-4ada-4d8d-8c58-846b271cc00b",
      "name": "Tetrahydrofuran",
      "url": "https://haz-map.com/Agents/649",
      "category": "agents"
    },
    {
      "type": "name_match",
      "text": "furan",
      "confidence": 1.0,
      "uuid": "96da3d2e-f46b-4100-9000-704d1a86985b",
      "name": "Furan",
      "url": "https://haz-map.com/Agents/1477",
      "category": "agents"
    },
    {
      "type": "name_match",
      "text": "2,2,5,5-tetramethyltetrahydrofuran",
      "confidence": 1.0,
      "uuid": "894877a6-7faa-4fb9-ad2d-a415238bd181",
      "name": "2,2,5,5-Tetramethyltetrahydrofuran",
      "url": "https://haz-map.com/Agents/19429",
      "category": "agents"
    }
  ],
  "all_links": [
    {
      "text": "Search PubMed",
      "url": "https://www.ncbi.nlm.nih.gov/pubmed?term=2%2c2%2c5%2c5-Tetramethyltetrahydrofuran%20AND%20human%5Bmh%5D%20AND%20%28Occupational%20Diseases%20%5Bmh%5D%20OR%20Occupational%20Exposure%20%5Bmh%5D%29%20%20AND%20%28tox%5Bsb%5D%29&cmd=search"
    },
    {
      "text": "Solvents, acute toxic effect",
      "url": "https://haz-map.com/Diseases/326"
    }
  ]
}