{
  "metadata": {
    "scraped_from": "https://haz-map.com/Agents/14885",
    "entity_name": "Inosine",
    "category": "agents",
    "uuid": "896486dd-ad0f-4b3b-850a-e09acec307f0",
    "scraped_at": "2025-07-23T21:27:03.564886"
  },
  "parsed_at": "2025-07-24T01:02:08.723052",
  "title": "Inosine",
  "sections": {
    "general": {
      "agent_name": {
        "original_name": "Agent Name",
        "value": "Inosine",
        "links": [],
        "cross_references": [
          {
            "type": "name_match",
            "text": "inosine",
            "confidence": 1.0,
            "uuid": "896486dd-ad0f-4b3b-850a-e09acec307f0",
            "name": "Inosine",
            "url": "https://haz-map.com/Agents/14885",
            "category": "agents"
          }
        ]
      },
      "cas_number": {
        "original_name": "CAS Number",
        "value": "58-63-9",
        "links": [],
        "cross_references": []
      },
      "formula": {
        "original_name": "Formula",
        "value": "C10-H12-N4-O5",
        "links": [],
        "cross_references": []
      },
      "major_category": {
        "original_name": "Major Category",
        "value": "Biological Agents",
        "links": [],
        "cross_references": []
      },
      "synonyms": {
        "original_name": "Synonyms",
        "value": "9-beta-D-Ribofuranosylhypoxanthine; Atorel; HXR; Hypoxanthine D-riboside; Hypoxanthine nucleoside; Hypoxanthine ribonucleoside; Hypoxanthine riboside; Hypoxanthine, 9-beta-D-ribofuranosyl-; Hypoxanthosine; INO; INO 495; Inosina [INN-Spanish]; Inosinum [INN-Latin]; Oxiamin; Panholic-L; Ribonosine; Selfer; Trophicardyl; beta-D-Ribofuranoside, hypoxanthine-9; beta-Inosine; [ChemIDplus] 1,9-Dihydro-9-beta-D-ribofuranosyl-6H-purin-6-one; Inosie; Oxiamine; [Merck Index] Hypoxanthine 9-beta-D-ribofuranoside; (-)-Inosine; [Sigma-Aldrich MSDS]",
        "links": [],
        "cross_references": [
          {
            "type": "name_match",
            "text": "furan",
            "confidence": 1.0,
            "uuid": "96da3d2e-f46b-4100-9000-704d1a86985b",
            "name": "Furan",
            "url": "https://haz-map.com/Agents/1477",
            "category": "agents"
          },
          {
            "type": "name_match",
            "text": "hypoxanthine",
            "confidence": 1.0,
            "uuid": "5893eab6-f3f2-4884-8c3a-b0eb8ce16a3c",
            "name": "Hypoxanthine",
            "url": "https://haz-map.com/Agents/14843",
            "category": "agents"
          },
          {
            "type": "name_match",
            "text": "inosine",
            "confidence": 1.0,
            "uuid": "896486dd-ad0f-4b3b-850a-e09acec307f0",
            "name": "Inosine",
            "url": "https://haz-map.com/Agents/14885",
            "category": "agents"
          },
          {
            "type": "name_match",
            "text": "xanthine",
            "confidence": 1.0,
            "uuid": "6440504f-a48b-4564-b510-e9733c09428b",
            "name": "Xanthine",
            "url": "https://haz-map.com/Agents/18695",
            "category": "agents"
          }
        ]
      },
      "category": {
        "original_name": "Category",
        "value": "Nucleic Acids and Derivatives",
        "links": [],
        "cross_references": []
      },
      "description": {
        "original_name": "Description",
        "value": "White crystalline solid; [Sigma-Aldrich MSDS]",
        "links": [],
        "cross_references": [
          {
            "type": "fuzzy_match",
            "text": "crystalline",
            "matched_name": "Silica, crystalline",
            "confidence": 0.7061403508771931,
            "uuid": "f920e8a2-46df-41b7-af8d-0368a777251e",
            "category": "agents",
            "url": "https://haz-map.com/Agents/427"
          }
        ]
      },
      "sourcesuses": {
        "original_name": "Sources/Uses",
        "value": "A cellular activator found in meat, meat extracts, and sugar beets; [Merck Index] \"A purine nucleoside that has hypoxanthine linked by the N9 nitrogen to the C1 carbon of ribose. It is an intermediate in the degradation of purines and purine nucleosides to uric acid and in pathways of purine salvage. It also occurs in the anticodon of certain transfer RNA molecules. (Dorland, 28th ed)\" [ChemIDplus]",
        "links": [],
        "cross_references": [
          {
            "type": "name_match",
            "text": "nitrogen",
            "confidence": 1.0,
            "uuid": "db5e90a9-06d2-45b9-8b81-f345a89b0bc0",
            "name": "Nitrogen",
            "url": "https://haz-map.com/Agents/1072",
            "category": "agents"
          },
          {
            "type": "name_match",
            "text": "carbon",
            "confidence": 1.0,
            "uuid": "b53f8815-ee80-40ef-b4aa-3b000e17dab5",
            "name": "Carbon",
            "url": "https://haz-map.com/Agents/1891",
            "category": "agents"
          },
          {
            "type": "name_match",
            "text": "hypoxanthine",
            "confidence": 1.0,
            "uuid": "5893eab6-f3f2-4884-8c3a-b0eb8ce16a3c",
            "name": "Hypoxanthine",
            "url": "https://haz-map.com/Agents/14843",
            "category": "agents"
          },
          {
            "type": "name_match",
            "text": "uric acid",
            "confidence": 1.0,
            "uuid": "bd67e9b1-899e-4f1c-95f0-d25380f3c966",
            "name": "Uric acid",
            "url": "https://haz-map.com/Agents/18587",
            "category": "agents"
          },
          {
            "type": "name_match",
            "text": "xanthine",
            "confidence": 1.0,
            "uuid": "6440504f-a48b-4564-b510-e9733c09428b",
            "name": "Xanthine",
            "url": "https://haz-map.com/Agents/18695",
            "category": "agents"
          }
        ]
      },
      "comments": {
        "original_name": "Comments",
        "value": "Causes changes in thymus weight, normocytic anemia, and changes in blood serum composition in 93-day oral studies of rats; [RTECS] May cause irritation; [Sigma-Aldrich MSDS]",
        "links": [],
        "cross_references": [
          {
            "type": "name_match",
            "text": "anemia",
            "confidence": 1.0,
            "uuid": "be5db7c0-2652-4940-a3d9-d0afb3e2b182",
            "name": "anemia",
            "url": "https://haz-map.com/Findings/54",
            "category": "findings"
          },
          {
            "type": "name_match",
            "text": "ht",
            "confidence": 1.0,
            "uuid": "764df367-8d53-4a11-81a2-31ccfe122a8d",
            "name": "HT",
            "url": "https://haz-map.com/Agents/2168",
            "category": "agents"
          }
        ]
      },
      "biomedical_references": {
        "original_name": "Biomedical References",
        "value": "Search PubMed",
        "links": [
          {
            "text": "Search PubMed",
            "url": "https://www.ncbi.nlm.nih.gov/pubmed?term=Inosine%20AND%20human%5Bmh%5D%20AND%20%28Occupational%20Diseases%20%5Bmh%5D%20OR%20Occupational%20Exposure%20%5Bmh%5D%29%20%20AND%20%28tox%5Bsb%5D%29&cmd=search"
          }
        ],
        "cross_references": []
      }
    },
    "exposure_assessment": {
      "vapor_pressure": {
        "original_name": "Vapor Pressure",
        "value": "1.4E-14 mm Hg",
        "links": [],
        "cross_references": []
      }
    },
    "diseases_processes_and_activities_linked_to_this_agent": {
      "other_information": {
        "original_name": "Other Information",
        "value": "No other related information on this agent was found.",
        "links": [],
        "cross_references": []
      }
    }
  },
  "cross_references": [
    {
      "type": "name_match",
      "text": "anemia",
      "confidence": 1.0,
      "uuid": "be5db7c0-2652-4940-a3d9-d0afb3e2b182",
      "name": "anemia",
      "url": "https://haz-map.com/Findings/54",
      "category": "findings"
    },
    {
      "type": "name_match",
      "text": "nitrogen",
      "confidence": 1.0,
      "uuid": "db5e90a9-06d2-45b9-8b81-f345a89b0bc0",
      "name": "Nitrogen",
      "url": "https://haz-map.com/Agents/1072",
      "category": "agents"
    },
    {
      "type": "name_match",
      "text": "furan",
      "confidence": 1.0,
      "uuid": "96da3d2e-f46b-4100-9000-704d1a86985b",
      "name": "Furan",
      "url": "https://haz-map.com/Agents/1477",
      "category": "agents"
    },
    {
      "type": "name_match",
      "text": "carbon",
      "confidence": 1.0,
      "uuid": "b53f8815-ee80-40ef-b4aa-3b000e17dab5",
      "name": "Carbon",
      "url": "https://haz-map.com/Agents/1891",
      "category": "agents"
    },
    {
      "type": "name_match",
      "text": "ht",
      "confidence": 1.0,
      "uuid": "764df367-8d53-4a11-81a2-31ccfe122a8d",
      "name": "HT",
      "url": "https://haz-map.com/Agents/2168",
      "category": "agents"
    },
    {
      "type": "name_match",
      "text": "hypoxanthine",
      "confidence": 1.0,
      "uuid": "5893eab6-f3f2-4884-8c3a-b0eb8ce16a3c",
      "name": "Hypoxanthine",
      "url": "https://haz-map.com/Agents/14843",
      "category": "agents"
    },
    {
      "type": "name_match",
      "text": "inosine",
      "confidence": 1.0,
      "uuid": "896486dd-ad0f-4b3b-850a-e09acec307f0",
      "name": "Inosine",
      "url": "https://haz-map.com/Agents/14885",
      "category": "agents"
    },
    {
      "type": "name_match",
      "text": "uric acid",
      "confidence": 1.0,
      "uuid": "bd67e9b1-899e-4f1c-95f0-d25380f3c966",
      "name": "Uric acid",
      "url": "https://haz-map.com/Agents/18587",
      "category": "agents"
    },
    {
      "type": "name_match",
      "text": "xanthine",
      "confidence": 1.0,
      "uuid": "6440504f-a48b-4564-b510-e9733c09428b",
      "name": "Xanthine",
      "url": "https://haz-map.com/Agents/18695",
      "category": "agents"
    },
    {
      "type": "fuzzy_match",
      "text": "crystalline",
      "matched_name": "Silica, crystalline",
      "confidence": 0.7061403508771931,
      "uuid": "f920e8a2-46df-41b7-af8d-0368a777251e",
      "category": "agents",
      "url": "https://haz-map.com/Agents/427"
    }
  ],
  "all_links": [
    {
      "text": "Search PubMed",
      "url": "https://www.ncbi.nlm.nih.gov/pubmed?term=Inosine%20AND%20human%5Bmh%5D%20AND%20%28Occupational%20Diseases%20%5Bmh%5D%20OR%20Occupational%20Exposure%20%5Bmh%5D%29%20%20AND%20%28tox%5Bsb%5D%29&cmd=search"
    }
  ]
}