{
  "metadata": {
    "scraped_from": "https://haz-map.com/Agents/3103",
    "entity_name": "Ethohexadiol",
    "category": "agents",
    "uuid": "89835b1e-0de1-4601-8c1e-97aa086b3959",
    "scraped_at": "2025-07-23T19:24:04.844070"
  },
  "parsed_at": "2025-07-24T01:18:40.656327",
  "title": "Ethohexadiol",
  "sections": {
    "general": {
      "agent_name": {
        "original_name": "Agent Name",
        "value": "Ethohexadiol",
        "links": [],
        "cross_references": [
          {
            "type": "name_match",
            "text": "ethohexadiol",
            "confidence": 1.0,
            "uuid": "89835b1e-0de1-4601-8c1e-97aa086b3959",
            "name": "Ethohexadiol",
            "url": "https://haz-map.com/Agents/3103",
            "category": "agents"
          }
        ]
      },
      "alternative_name": {
        "original_name": "Alternative Name",
        "value": "2-Ethyl-1,3-hexanediol",
        "links": [],
        "cross_references": []
      },
      "cas_number": {
        "original_name": "CAS Number",
        "value": "94-96-2",
        "links": [],
        "cross_references": []
      },
      "formula": {
        "original_name": "Formula",
        "value": "C8-H18-O2",
        "links": [],
        "cross_references": []
      },
      "major_category": {
        "original_name": "Major Category",
        "value": "Other Classes",
        "links": [],
        "cross_references": []
      },
      "synonyms": {
        "original_name": "Synonyms",
        "value": "2-Ethyl-1,3-hexanediol; 2-Ethyl-1,3-hexylene glycol; 2-Ethyl-3-propyl-1,3-propanediol; 3-Hydroxymethyl-n-heptan-4-ol; 6-12; 6-12 insect repellent; 6-12-Insect repellent; Carbide 6-12; Compound 6-12 insect repellent; Diol-Kyowa 8; Latka 612 [Czech]; Octylene glycol; Repellent 612; Rutgers 612; [ChemIDplus]",
        "links": [],
        "cross_references": [
          {
            "type": "name_match",
            "text": "hexylene glycol",
            "confidence": 1.0,
            "uuid": "bb8032d0-3d84-4a31-a612-7c13639e8f88",
            "name": "Hexylene glycol",
            "url": "https://haz-map.com/Agents/511",
            "category": "agents"
          },
          {
            "type": "name_match",
            "text": "propane",
            "confidence": 1.0,
            "uuid": "563a611b-46ea-4bdc-b77b-17d8f7646283",
            "name": "Propane",
            "url": "https://haz-map.com/Agents/607",
            "category": "agents"
          },
          {
            "type": "name_match",
            "text": "1,3-propanediol",
            "confidence": 1.0,
            "uuid": "363c509c-abea-46ca-9e07-a05fe05d1854",
            "name": "1,3-Propanediol",
            "url": "https://haz-map.com/Agents/9616",
            "category": "agents"
          }
        ]
      },
      "category": {
        "original_name": "Category",
        "value": "Alcohols and Polyols, Other",
        "links": [],
        "cross_references": []
      },
      "description": {
        "original_name": "Description",
        "value": "Colorless, odorless, hygroscopic liquid; [Hawley]",
        "links": [],
        "cross_references": []
      },
      "sourcesuses": {
        "original_name": "Sources/Uses",
        "value": "Used as a solvent for resins; as a plasticizer; as a chemical intermediate in the production of polyurethane resins; as an insect repellent; in cosmetics; as a vehicle and solvent in printing inks; in medicines; as a chelating agent for boric acid; [HSDB]",
        "links": [],
        "cross_references": [
          {
            "type": "name_match",
            "text": "mica",
            "confidence": 1.0,
            "uuid": "433f26f1-c399-4596-b179-ce3843cfd465",
            "name": "Mica",
            "url": "https://haz-map.com/Agents/621",
            "category": "agents"
          },
          {
            "type": "name_match",
            "text": "ethane",
            "confidence": 1.0,
            "uuid": "5162cc8c-dfb9-4060-81ac-38a8cec7f9dd",
            "name": "Ethane",
            "url": "https://haz-map.com/Agents/1075",
            "category": "agents"
          },
          {
            "type": "name_match",
            "text": "boric acid",
            "confidence": 1.0,
            "uuid": "6ceb7ad0-b349-47a5-abd4-99fd72800e53",
            "name": "Boric acid",
            "url": "https://haz-map.com/Agents/1374",
            "category": "agents"
          },
          {
            "type": "name_match",
            "text": "urethane",
            "confidence": 1.0,
            "uuid": "6405f173-6b8a-4d9b-a282-a1a6bf6901fd",
            "name": "Urethane",
            "url": "https://haz-map.com/Agents/2032",
            "category": "agents"
          }
        ]
      },
      "comments": {
        "original_name": "Comments",
        "value": "A moderate eye and mucous membrane irritant; Skin absorption may cause CNS depression; [HSDB] Produces birth defects when given to rats in high doses; No data on human exposure; [REPROTOX] Effects in high-dose animal studies include ataxia, somnolence, and liver changes; [RTECS] An irritant; May cause serious injury to eyes; May be absorbed through skin; [MSDSonline]",
        "links": [],
        "cross_references": []
      },
      "restricted": {
        "original_name": "Restricted",
        "value": "Except for cosmetics, voluntarily removed from US and Canadian markets in 1991 after high-dose animal experiment showed poor lung expansion in offspring; [REPROTOX]",
        "links": [],
        "cross_references": []
      },
      "biomedical_references": {
        "original_name": "Biomedical References",
        "value": "Search PubMed",
        "links": [
          {
            "text": "Search PubMed",
            "url": "https://www.ncbi.nlm.nih.gov/pubmed?term=Ethohexadiol%20AND%20human%5Bmh%5D%20AND%20%28Occupational%20Diseases%20%5Bmh%5D%20OR%20Occupational%20Exposure%20%5Bmh%5D%29%20%20AND%20%28tox%5Bsb%5D%29&cmd=search"
          }
        ],
        "cross_references": []
      }
    },
    "exposure_assessment": {
      "lethal_concentration": {
        "original_name": "Lethal Concentration",
        "value": "LC (rat) > 4,800 ppm/8h",
        "links": [],
        "cross_references": []
      },
      "explanatory_notes": {
        "original_name": "Explanatory Notes",
        "value": "Flash point = 127 deg C; VP < 0.01 mm at 20 deg C; [Merck Index]",
        "links": [],
        "cross_references": [
          {
            "type": "name_match",
            "text": "ash",
            "confidence": 1.0,
            "uuid": "68b360f1-5ad0-4337-bea0-d7adca2961b5",
            "name": "Ash",
            "url": "https://haz-map.com/Agents/965",
            "category": "agents"
          }
        ]
      },
      "nfpa": {
        "original_name": "NFPA",
        "value": "must be preheated",
        "links": [],
        "cross_references": []
      }
    },
    "adverse_effects": {
      "neurotoxin": {
        "original_name": "Neurotoxin",
        "value": "Acute solvent syndrome",
        "links": [],
        "cross_references": []
      },
      "hepatotoxin": {
        "original_name": "Hepatotoxin",
        "value": "Hepatoxic (a) from occupational exposure (secondary effect) or (b) in animal studies or in humans after ingestion",
        "links": [],
        "cross_references": []
      },
      "reproductive_toxin": {
        "original_name": "Reproductive Toxin",
        "value": "Yes",
        "links": [],
        "cross_references": []
      }
    },
    "diseases_processes_and_activities_linked_to_this_agent": {
      "diseases": {
        "original_name": "Diseases",
        "value": "Occupational diseases associated with exposure to this agent: Solvents, acute toxic effect",
        "links": [
          {
            "text": "Solvents, acute toxic effect",
            "url": "https://haz-map.com/Diseases/326"
          }
        ],
        "cross_references": [
          {
            "type": "url_match",
            "text": "Solvents, acute toxic effect",
            "url": "https://haz-map.com/Diseases/326",
            "confidence": 1.0,
            "uuid": "581e90e3-9d0c-45f0-aa6c-3468c28da129",
            "name": "Solvents, acute toxic effect",
            "category": "diseases"
          }
        ]
      }
    }
  },
  "cross_references": [
    {
      "type": "url_match",
      "text": "Solvents, acute toxic effect",
      "url": "https://haz-map.com/Diseases/326",
      "confidence": 1.0,
      "uuid": "581e90e3-9d0c-45f0-aa6c-3468c28da129",
      "name": "Solvents, acute toxic effect",
      "category": "diseases"
    },
    {
      "type": "name_match",
      "text": "hexylene glycol",
      "confidence": 1.0,
      "uuid": "bb8032d0-3d84-4a31-a612-7c13639e8f88",
      "name": "Hexylene glycol",
      "url": "https://haz-map.com/Agents/511",
      "category": "agents"
    },
    {
      "type": "name_match",
      "text": "propane",
      "confidence": 1.0,
      "uuid": "563a611b-46ea-4bdc-b77b-17d8f7646283",
      "name": "Propane",
      "url": "https://haz-map.com/Agents/607",
      "category": "agents"
    },
    {
      "type": "name_match",
      "text": "mica",
      "confidence": 1.0,
      "uuid": "433f26f1-c399-4596-b179-ce3843cfd465",
      "name": "Mica",
      "url": "https://haz-map.com/Agents/621",
      "category": "agents"
    },
    {
      "type": "name_match",
      "text": "ash",
      "confidence": 1.0,
      "uuid": "68b360f1-5ad0-4337-bea0-d7adca2961b5",
      "name": "Ash",
      "url": "https://haz-map.com/Agents/965",
      "category": "agents"
    },
    {
      "type": "name_match",
      "text": "ethane",
      "confidence": 1.0,
      "uuid": "5162cc8c-dfb9-4060-81ac-38a8cec7f9dd",
      "name": "Ethane",
      "url": "https://haz-map.com/Agents/1075",
      "category": "agents"
    },
    {
      "type": "name_match",
      "text": "boric acid",
      "confidence": 1.0,
      "uuid": "6ceb7ad0-b349-47a5-abd4-99fd72800e53",
      "name": "Boric acid",
      "url": "https://haz-map.com/Agents/1374",
      "category": "agents"
    },
    {
      "type": "name_match",
      "text": "urethane",
      "confidence": 1.0,
      "uuid": "6405f173-6b8a-4d9b-a282-a1a6bf6901fd",
      "name": "Urethane",
      "url": "https://haz-map.com/Agents/2032",
      "category": "agents"
    },
    {
      "type": "name_match",
      "text": "ethohexadiol",
      "confidence": 1.0,
      "uuid": "89835b1e-0de1-4601-8c1e-97aa086b3959",
      "name": "Ethohexadiol",
      "url": "https://haz-map.com/Agents/3103",
      "category": "agents"
    },
    {
      "type": "name_match",
      "text": "1,3-propanediol",
      "confidence": 1.0,
      "uuid": "363c509c-abea-46ca-9e07-a05fe05d1854",
      "name": "1,3-Propanediol",
      "url": "https://haz-map.com/Agents/9616",
      "category": "agents"
    }
  ],
  "all_links": [
    {
      "text": "Search PubMed",
      "url": "https://www.ncbi.nlm.nih.gov/pubmed?term=Ethohexadiol%20AND%20human%5Bmh%5D%20AND%20%28Occupational%20Diseases%20%5Bmh%5D%20OR%20Occupational%20Exposure%20%5Bmh%5D%29%20%20AND%20%28tox%5Bsb%5D%29&cmd=search"
    },
    {
      "text": "Solvents, acute toxic effect",
      "url": "https://haz-map.com/Diseases/326"
    }
  ]
}