{
  "metadata": {
    "scraped_from": "https://haz-map.com/Agents/1173",
    "entity_name": "Cyclohexene",
    "category": "agents",
    "uuid": "899603b1-ebcd-41d9-a67b-1e8d7d4eee3f",
    "scraped_at": "2025-07-23T18:53:48.166165"
  },
  "parsed_at": "2025-07-24T00:58:21.205931",
  "title": "Cyclohexene",
  "sections": {
    "general": {
      "agent_name": {
        "original_name": "Agent Name",
        "value": "Cyclohexene",
        "links": [],
        "cross_references": [
          {
            "type": "name_match",
            "text": "cyclohexene",
            "confidence": 1.0,
            "uuid": "899603b1-ebcd-41d9-a67b-1e8d7d4eee3f",
            "name": "Cyclohexene",
            "url": "https://haz-map.com/Agents/1173",
            "category": "agents"
          },
          {
            "type": "name_match",
            "text": "hexene",
            "confidence": 1.0,
            "uuid": "592a6801-2d0b-441f-b3f6-6d67971256b7",
            "name": "Hexene",
            "url": "https://haz-map.com/Agents/5534",
            "category": "agents"
          }
        ]
      },
      "cas_number": {
        "original_name": "CAS Number",
        "value": "110-83-8",
        "links": [],
        "cross_references": []
      },
      "formula": {
        "original_name": "Formula",
        "value": "C6-H10",
        "links": [],
        "cross_references": []
      },
      "major_category": {
        "original_name": "Major Category",
        "value": "Other Classes",
        "links": [],
        "cross_references": []
      },
      "synonyms": {
        "original_name": "Synonyms",
        "value": "1,2,3,4-Tetrahydrobenzene; 3,4,5,6-Tetrahydrobenzene; Benzene tetrahydride; Benzene, tetrahydro-; Benzenetetrahydride; Cyclohex-1-ene; Cykloheksen [Polish]; Hexanaphthylene; Tetrahydrobenzene; [ChemIDplus] UN2256",
        "links": [],
        "cross_references": [
          {
            "type": "name_match",
            "text": "benzene",
            "confidence": 1.0,
            "uuid": "b05124de-5f34-4c14-8f04-ccb20c3780d9",
            "name": "Benzene",
            "url": "https://haz-map.com/Agents/5",
            "category": "agents"
          },
          {
            "type": "name_match",
            "text": "ht",
            "confidence": 1.0,
            "uuid": "764df367-8d53-4a11-81a2-31ccfe122a8d",
            "name": "HT",
            "url": "https://haz-map.com/Agents/2168",
            "category": "agents"
          }
        ]
      },
      "category": {
        "original_name": "Category",
        "value": "Aliphatics, Unsaturated",
        "links": [],
        "cross_references": []
      },
      "description": {
        "original_name": "Description",
        "value": "Colorless liquid with a sweet odor; [NIOSH]",
        "links": [],
        "cross_references": []
      },
      "sourcesuses": {
        "original_name": "Sources/Uses",
        "value": "Used in organic synthesis and as a solvent for oil extraction and catalysts; [ACGIH]",
        "links": [],
        "cross_references": []
      },
      "comments": {
        "original_name": "Comments",
        "value": "TLV Basis = Liver effects; No human studies available; [ACGIH] Exposed laboratory animals show loss of righting reflex and staggering gait. [HSDB] A skin, eye, and respiratory tract irritant; Inhalation of high concentrations may cause CNS effects; [ICSC]",
        "links": [],
        "cross_references": [
          {
            "type": "name_match",
            "text": "ht",
            "confidence": 1.0,
            "uuid": "764df367-8d53-4a11-81a2-31ccfe122a8d",
            "name": "HT",
            "url": "https://haz-map.com/Agents/2168",
            "category": "agents"
          },
          {
            "type": "fuzzy_match",
            "text": "laboratory animals",
            "matched_name": "Allergens, laboratory animals",
            "confidence": 0.710344827586207,
            "uuid": "d05ab460-f854-42a5-ab9c-1e5b47f32ddd",
            "category": "agents",
            "url": "https://haz-map.com/Agents/932"
          }
        ]
      },
      "biomedical_references": {
        "original_name": "Biomedical References",
        "value": "Search PubMed",
        "links": [
          {
            "text": "Search PubMed",
            "url": "https://www.ncbi.nlm.nih.gov/pubmed?term=Cyclohexene%20AND%20human%5Bmh%5D%20AND%20%28Occupational%20Diseases%20%5Bmh%5D%20OR%20Occupational%20Exposure%20%5Bmh%5D%29%20%20AND%20%28tox%5Bsb%5D%29&cmd=search"
          }
        ],
        "cross_references": []
      }
    },
    "exposure_assessment": {
      "skin_designation_acgih": {
        "original_name": "Skin Designation (ACGIH)",
        "value": "No",
        "links": [],
        "cross_references": []
      },
      "tlv_acgih": {
        "original_name": "TLV (ACGIH)",
        "value": "20 ppm",
        "links": [],
        "cross_references": []
      },
      "pel_osha": {
        "original_name": "PEL (OSHA)",
        "value": "300 ppm",
        "links": [],
        "cross_references": []
      },
      "idlh_niosh": {
        "original_name": "IDLH (NIOSH)",
        "value": "2000 ppm",
        "links": [],
        "cross_references": []
      },
      "excerpts_from_documentation_for_idlhs": {
        "original_name": "Excerpts from Documentation for IDLHs",
        "value": "Other animal data: A chronic inhalation study (6 hours/day, 5 days/week for 6 months) in rats, guinea pigs, and rabbits at concentrations of 150, 300, and 600 ppm showed that although significant increases in alkaline phosphatase occurred in all three groups, most of the hematologic parameters measured were within normal limits [Laham 1976].",
        "links": [],
        "cross_references": [
          {
            "type": "name_match",
            "text": "alkaline phosphatase",
            "confidence": 1.0,
            "uuid": "716a5cd0-bb11-4796-9c48-34f3971d47b1",
            "name": "Alkaline phosphatase",
            "url": "https://haz-map.com/Agents/11701",
            "category": "agents"
          }
        ]
      },
      "vapor_pressure": {
        "original_name": "Vapor Pressure",
        "value": "89 mm Hg",
        "links": [],
        "cross_references": []
      },
      "odor_threshold_low": {
        "original_name": "Odor Threshold Low",
        "value": "0.18 ppm",
        "links": [],
        "cross_references": []
      },
      "lethal_concentration": {
        "original_name": "Lethal Concentration",
        "value": "LC (rat) = > 6,370 ppm/4H",
        "links": [],
        "cross_references": []
      },
      "explanatory_notes": {
        "original_name": "Explanatory Notes",
        "value": "Odor threshold from AIHA; Flash point = 11 deg F; VP from HSDB;",
        "links": [],
        "cross_references": [
          {
            "type": "name_match",
            "text": "ash",
            "confidence": 1.0,
            "uuid": "68b360f1-5ad0-4337-bea0-d7adca2961b5",
            "name": "Ash",
            "url": "https://haz-map.com/Agents/965",
            "category": "agents"
          }
        ]
      },
      "nfpa": {
        "original_name": "NFPA",
        "value": "may ignite at ambient temp",
        "links": [],
        "cross_references": []
      }
    },
    "adverse_effects": {
      "neurotoxin": {
        "original_name": "Neurotoxin",
        "value": "Acute solvent syndrome",
        "links": [],
        "cross_references": []
      },
      "hepatotoxin": {
        "original_name": "Hepatotoxin",
        "value": "Hepatoxic (a) from occupational exposure (secondary effect) or (b) in animal studies or in humans after ingestion",
        "links": [],
        "cross_references": []
      }
    },
    "diseases_processes_and_activities_linked_to_this_agent": {
      "diseases": {
        "original_name": "Diseases",
        "value": "Occupational diseases associated with exposure to this agent: Solvents, acute toxic effect",
        "links": [
          {
            "text": "Solvents, acute toxic effect",
            "url": "https://haz-map.com/Diseases/326"
          }
        ],
        "cross_references": [
          {
            "type": "url_match",
            "text": "Solvents, acute toxic effect",
            "url": "https://haz-map.com/Diseases/326",
            "confidence": 1.0,
            "uuid": "581e90e3-9d0c-45f0-aa6c-3468c28da129",
            "name": "Solvents, acute toxic effect",
            "category": "diseases"
          }
        ]
      },
      "processes": {
        "original_name": "Processes",
        "value": "Industrial Processes with risk of exposure: Petroleum Production and Refining",
        "links": [
          {
            "text": "Petroleum Production and Refining",
            "url": "https://haz-map.com/Processes/75"
          }
        ],
        "cross_references": [
          {
            "type": "url_match",
            "text": "Petroleum Production and Refining",
            "url": "https://haz-map.com/Processes/75",
            "confidence": 1.0,
            "uuid": "e2003948-ad28-44a5-85f6-2e3391da8917",
            "name": "Petroleum Production and Refining",
            "category": "processes"
          },
          {
            "type": "name_match",
            "text": "oleum",
            "confidence": 1.0,
            "uuid": "12af84ee-bcf0-416d-9220-7c4c6dc330f1",
            "name": "Oleum",
            "url": "https://haz-map.com/Agents/2227",
            "category": "agents"
          }
        ]
      }
    }
  },
  "cross_references": [
    {
      "type": "url_match",
      "text": "Solvents, acute toxic effect",
      "url": "https://haz-map.com/Diseases/326",
      "confidence": 1.0,
      "uuid": "581e90e3-9d0c-45f0-aa6c-3468c28da129",
      "name": "Solvents, acute toxic effect",
      "category": "diseases"
    },
    {
      "type": "url_match",
      "text": "Petroleum Production and Refining",
      "url": "https://haz-map.com/Processes/75",
      "confidence": 1.0,
      "uuid": "e2003948-ad28-44a5-85f6-2e3391da8917",
      "name": "Petroleum Production and Refining",
      "category": "processes"
    },
    {
      "type": "name_match",
      "text": "benzene",
      "confidence": 1.0,
      "uuid": "b05124de-5f34-4c14-8f04-ccb20c3780d9",
      "name": "Benzene",
      "url": "https://haz-map.com/Agents/5",
      "category": "agents"
    },
    {
      "type": "name_match",
      "text": "ash",
      "confidence": 1.0,
      "uuid": "68b360f1-5ad0-4337-bea0-d7adca2961b5",
      "name": "Ash",
      "url": "https://haz-map.com/Agents/965",
      "category": "agents"
    },
    {
      "type": "name_match",
      "text": "cyclohexene",
      "confidence": 1.0,
      "uuid": "899603b1-ebcd-41d9-a67b-1e8d7d4eee3f",
      "name": "Cyclohexene",
      "url": "https://haz-map.com/Agents/1173",
      "category": "agents"
    },
    {
      "type": "name_match",
      "text": "ht",
      "confidence": 1.0,
      "uuid": "764df367-8d53-4a11-81a2-31ccfe122a8d",
      "name": "HT",
      "url": "https://haz-map.com/Agents/2168",
      "category": "agents"
    },
    {
      "type": "name_match",
      "text": "oleum",
      "confidence": 1.0,
      "uuid": "12af84ee-bcf0-416d-9220-7c4c6dc330f1",
      "name": "Oleum",
      "url": "https://haz-map.com/Agents/2227",
      "category": "agents"
    },
    {
      "type": "name_match",
      "text": "hexene",
      "confidence": 1.0,
      "uuid": "592a6801-2d0b-441f-b3f6-6d67971256b7",
      "name": "Hexene",
      "url": "https://haz-map.com/Agents/5534",
      "category": "agents"
    },
    {
      "type": "name_match",
      "text": "alkaline phosphatase",
      "confidence": 1.0,
      "uuid": "716a5cd0-bb11-4796-9c48-34f3971d47b1",
      "name": "Alkaline phosphatase",
      "url": "https://haz-map.com/Agents/11701",
      "category": "agents"
    },
    {
      "type": "fuzzy_match",
      "text": "laboratory animals",
      "matched_name": "Allergens, laboratory animals",
      "confidence": 0.710344827586207,
      "uuid": "d05ab460-f854-42a5-ab9c-1e5b47f32ddd",
      "category": "agents",
      "url": "https://haz-map.com/Agents/932"
    }
  ],
  "all_links": [
    {
      "text": "Search PubMed",
      "url": "https://www.ncbi.nlm.nih.gov/pubmed?term=Cyclohexene%20AND%20human%5Bmh%5D%20AND%20%28Occupational%20Diseases%20%5Bmh%5D%20OR%20Occupational%20Exposure%20%5Bmh%5D%29%20%20AND%20%28tox%5Bsb%5D%29&cmd=search"
    },
    {
      "text": "Solvents, acute toxic effect",
      "url": "https://haz-map.com/Diseases/326"
    },
    {
      "text": "Petroleum Production and Refining",
      "url": "https://haz-map.com/Processes/75"
    }
  ]
}