{
  "metadata": {
    "scraped_from": "https://haz-map.com/Agents/14447",
    "entity_name": "N-Glycylglycine",
    "category": "agents",
    "uuid": "8a3f80f8-5abd-46fa-9774-22f742bcf7b2",
    "scraped_at": "2025-07-23T21:23:01.054392"
  },
  "parsed_at": "2025-07-24T01:01:44.246447",
  "title": "N-Glycylglycine",
  "sections": {
    "general": {
      "agent_name": {
        "original_name": "Agent Name",
        "value": "N-Glycylglycine",
        "links": [],
        "cross_references": [
          {
            "type": "name_match",
            "text": "glycine",
            "confidence": 1.0,
            "uuid": "820f614c-594c-4165-b9ef-dbbd5cd636a8",
            "name": "Glycine",
            "url": "https://haz-map.com/Agents/14439",
            "category": "agents"
          },
          {
            "type": "name_match",
            "text": "n-glycylglycine",
            "confidence": 1.0,
            "uuid": "8a3f80f8-5abd-46fa-9774-22f742bcf7b2",
            "name": "N-Glycylglycine",
            "url": "https://haz-map.com/Agents/14447",
            "category": "agents"
          }
        ]
      },
      "cas_number": {
        "original_name": "CAS Number",
        "value": "556-50-3",
        "links": [],
        "cross_references": []
      },
      "formula": {
        "original_name": "Formula",
        "value": "C4-H8-N2-O3",
        "links": [],
        "cross_references": []
      },
      "major_category": {
        "original_name": "Major Category",
        "value": "Biological Agents",
        "links": [],
        "cross_references": []
      },
      "synonyms": {
        "original_name": "Synonyms",
        "value": "Diglycine; 2-(Aminoacetamido)acetic acid; Diglycocoll; Gly2; Glycine dipeptide; Glycylglycine; alpha-Glycylglycine; Glycine, N-glycyl-; Glycine, glycyl-; [ChemIDplus] Gly-Gly; Glycyl-glycine; [Sigma-Aldrich MSDS]",
        "links": [],
        "cross_references": [
          {
            "type": "name_match",
            "text": "acetic acid",
            "confidence": 1.0,
            "uuid": "0905c6e4-df84-4895-a92d-658819239bbd",
            "name": "Acetic acid",
            "url": "https://haz-map.com/Agents/207",
            "category": "agents"
          },
          {
            "type": "name_match",
            "text": "glycine",
            "confidence": 1.0,
            "uuid": "820f614c-594c-4165-b9ef-dbbd5cd636a8",
            "name": "Glycine",
            "url": "https://haz-map.com/Agents/14439",
            "category": "agents"
          }
        ]
      },
      "category": {
        "original_name": "Category",
        "value": "Amino Acids and Derivatives",
        "links": [],
        "cross_references": []
      },
      "description": {
        "original_name": "Description",
        "value": "Solid; [Merck Index] White powder; [Sigma-Aldrich MSDS]",
        "links": [],
        "cross_references": []
      },
      "sourcesuses": {
        "original_name": "Sources/Uses",
        "value": "Used to make peptides; [Merck Index]",
        "links": [],
        "cross_references": []
      },
      "comments": {
        "original_name": "Comments",
        "value": "An irritant that may cause severe eye irritation; [Sigma-Aldrich MSDS]",
        "links": [],
        "cross_references": []
      },
      "biomedical_references": {
        "original_name": "Biomedical References",
        "value": "Search PubMed",
        "links": [
          {
            "text": "Search PubMed",
            "url": "https://www.ncbi.nlm.nih.gov/pubmed?term=N-Glycylglycine%20AND%20human%5Bmh%5D%20AND%20%28Occupational%20Diseases%20%5Bmh%5D%20OR%20Occupational%20Exposure%20%5Bmh%5D%29%20%20AND%20%28tox%5Bsb%5D%29&cmd=search"
          }
        ],
        "cross_references": []
      }
    },
    "exposure_assessment": {
      "vapor_pressure": {
        "original_name": "Vapor Pressure",
        "value": "4.54E-08 mm Hg",
        "links": [],
        "cross_references": []
      }
    },
    "diseases_processes_and_activities_linked_to_this_agent": {
      "other_information": {
        "original_name": "Other Information",
        "value": "No other related information on this agent was found.",
        "links": [],
        "cross_references": []
      }
    }
  },
  "cross_references": [
    {
      "type": "name_match",
      "text": "acetic acid",
      "confidence": 1.0,
      "uuid": "0905c6e4-df84-4895-a92d-658819239bbd",
      "name": "Acetic acid",
      "url": "https://haz-map.com/Agents/207",
      "category": "agents"
    },
    {
      "type": "name_match",
      "text": "glycine",
      "confidence": 1.0,
      "uuid": "820f614c-594c-4165-b9ef-dbbd5cd636a8",
      "name": "Glycine",
      "url": "https://haz-map.com/Agents/14439",
      "category": "agents"
    },
    {
      "type": "name_match",
      "text": "n-glycylglycine",
      "confidence": 1.0,
      "uuid": "8a3f80f8-5abd-46fa-9774-22f742bcf7b2",
      "name": "N-Glycylglycine",
      "url": "https://haz-map.com/Agents/14447",
      "category": "agents"
    }
  ],
  "all_links": [
    {
      "text": "Search PubMed",
      "url": "https://www.ncbi.nlm.nih.gov/pubmed?term=N-Glycylglycine%20AND%20human%5Bmh%5D%20AND%20%28Occupational%20Diseases%20%5Bmh%5D%20OR%20Occupational%20Exposure%20%5Bmh%5D%29%20%20AND%20%28tox%5Bsb%5D%29&cmd=search"
    }
  ]
}