{
  "metadata": {
    "scraped_from": "https://haz-map.com/Agents/6584",
    "entity_name": "Pentene",
    "category": "agents",
    "uuid": "8a79e71e-e90a-4993-a702-7b2bacae6310",
    "scraped_at": "2025-07-23T20:03:22.284185"
  },
  "parsed_at": "2025-07-24T00:55:59.827787",
  "title": "Pentene",
  "sections": {
    "general": {
      "agent_name": {
        "original_name": "Agent Name",
        "value": "Pentene",
        "links": [],
        "cross_references": [
          {
            "type": "name_match",
            "text": "pentene",
            "confidence": 1.0,
            "uuid": "8a79e71e-e90a-4993-a702-7b2bacae6310",
            "name": "Pentene",
            "url": "https://haz-map.com/Agents/6584",
            "category": "agents"
          }
        ]
      },
      "cas_number": {
        "original_name": "CAS Number",
        "value": "25377-72-4",
        "links": [],
        "cross_references": []
      },
      "formula": {
        "original_name": "Formula",
        "value": "C5-H10",
        "links": [],
        "cross_references": []
      },
      "major_category": {
        "original_name": "Major Category",
        "value": "Other Classes",
        "links": [],
        "cross_references": []
      },
      "synonyms": {
        "original_name": "Synonyms",
        "value": "Amylene; [ChemIDplus] UN1108",
        "links": [],
        "cross_references": [
          {
            "type": "name_match",
            "text": "amylene",
            "confidence": 1.0,
            "uuid": "dad255c7-7e07-4276-9a3d-d181bdd07265",
            "name": "Amylene",
            "url": "https://haz-map.com/Agents/3691",
            "category": "agents"
          }
        ]
      },
      "category": {
        "original_name": "Category",
        "value": "Aliphatics, Unsaturated",
        "links": [],
        "cross_references": []
      },
      "description": {
        "original_name": "Description",
        "value": "bp = 35 deg C; [ChemIDplus] Liquid; [HSDB]",
        "links": [],
        "cross_references": []
      },
      "sourcesuses": {
        "original_name": "Sources/Uses",
        "value": "Used as an intermediate; [HSDB]",
        "links": [],
        "cross_references": []
      },
      "comments": {
        "original_name": "Comments",
        "value": "Highly flammable; [HSDB] An irritant; [MSDSonline]",
        "links": [],
        "cross_references": []
      },
      "biomedical_references": {
        "original_name": "Biomedical References",
        "value": "Search PubMed",
        "links": [
          {
            "text": "Search PubMed",
            "url": "https://www.ncbi.nlm.nih.gov/pubmed?term=Pentene%20AND%20human%5Bmh%5D%20AND%20%28Occupational%20Diseases%20%5Bmh%5D%20OR%20Occupational%20Exposure%20%5Bmh%5D%29%20%20AND%20%28tox%5Bsb%5D%29&cmd=search"
          }
        ],
        "cross_references": []
      }
    },
    "exposure_assessment": {
      "vapor_pressure": {
        "original_name": "Vapor Pressure",
        "value": "60.8 mm Hg",
        "links": [],
        "cross_references": []
      },
      "explanatory_notes": {
        "original_name": "Explanatory Notes",
        "value": "The Guide in the Emergency Response Guidebook is for \"1-Pentene.\"",
        "links": [],
        "cross_references": [
          {
            "type": "name_match",
            "text": "1-pentene",
            "confidence": 1.0,
            "uuid": "fb5ff9a7-52d9-4c0c-a462-090f2c7e657f",
            "name": "1-Pentene",
            "url": "https://haz-map.com/Agents/2918",
            "category": "agents"
          },
          {
            "type": "name_match",
            "text": "pentene",
            "confidence": 1.0,
            "uuid": "8a79e71e-e90a-4993-a702-7b2bacae6310",
            "name": "Pentene",
            "url": "https://haz-map.com/Agents/6584",
            "category": "agents"
          }
        ]
      }
    },
    "adverse_effects": {
      "neurotoxin": {
        "original_name": "Neurotoxin",
        "value": "Acute solvent syndrome",
        "links": [],
        "cross_references": []
      }
    },
    "diseases_processes_and_activities_linked_to_this_agent": {
      "diseases": {
        "original_name": "Diseases",
        "value": "Occupational diseases associated with exposure to this agent: Solvents, acute toxic effect",
        "links": [
          {
            "text": "Solvents, acute toxic effect",
            "url": "https://haz-map.com/Diseases/326"
          }
        ],
        "cross_references": [
          {
            "type": "url_match",
            "text": "Solvents, acute toxic effect",
            "url": "https://haz-map.com/Diseases/326",
            "confidence": 1.0,
            "uuid": "581e90e3-9d0c-45f0-aa6c-3468c28da129",
            "name": "Solvents, acute toxic effect",
            "category": "diseases"
          }
        ]
      }
    }
  },
  "cross_references": [
    {
      "type": "url_match",
      "text": "Solvents, acute toxic effect",
      "url": "https://haz-map.com/Diseases/326",
      "confidence": 1.0,
      "uuid": "581e90e3-9d0c-45f0-aa6c-3468c28da129",
      "name": "Solvents, acute toxic effect",
      "category": "diseases"
    },
    {
      "type": "name_match",
      "text": "1-pentene",
      "confidence": 1.0,
      "uuid": "fb5ff9a7-52d9-4c0c-a462-090f2c7e657f",
      "name": "1-Pentene",
      "url": "https://haz-map.com/Agents/2918",
      "category": "agents"
    },
    {
      "type": "name_match",
      "text": "amylene",
      "confidence": 1.0,
      "uuid": "dad255c7-7e07-4276-9a3d-d181bdd07265",
      "name": "Amylene",
      "url": "https://haz-map.com/Agents/3691",
      "category": "agents"
    },
    {
      "type": "name_match",
      "text": "pentene",
      "confidence": 1.0,
      "uuid": "8a79e71e-e90a-4993-a702-7b2bacae6310",
      "name": "Pentene",
      "url": "https://haz-map.com/Agents/6584",
      "category": "agents"
    }
  ],
  "all_links": [
    {
      "text": "Search PubMed",
      "url": "https://www.ncbi.nlm.nih.gov/pubmed?term=Pentene%20AND%20human%5Bmh%5D%20AND%20%28Occupational%20Diseases%20%5Bmh%5D%20OR%20Occupational%20Exposure%20%5Bmh%5D%29%20%20AND%20%28tox%5Bsb%5D%29&cmd=search"
    },
    {
      "text": "Solvents, acute toxic effect",
      "url": "https://haz-map.com/Diseases/326"
    }
  ]
}