{
  "metadata": {
    "scraped_from": "https://haz-map.com/Agents/15782",
    "entity_name": "N,N-Dimethyl-1-naphthylamine",
    "category": "agents",
    "uuid": "8b349c40-7954-4b05-99ad-aec40cf077a6",
    "scraped_at": "2025-07-23T21:32:26.691507"
  },
  "parsed_at": "2025-07-24T01:15:25.764289",
  "title": "N,N-Dimethyl-1-naphthylamine",
  "sections": {
    "general": {
      "agent_name": {
        "original_name": "Agent Name",
        "value": "N,N-Dimethyl-1-naphthylamine",
        "links": [],
        "cross_references": [
          {
            "type": "name_match",
            "text": "ht",
            "confidence": 1.0,
            "uuid": "764df367-8d53-4a11-81a2-31ccfe122a8d",
            "name": "HT",
            "url": "https://haz-map.com/Agents/2168",
            "category": "agents"
          },
          {
            "type": "name_match",
            "text": "n,n-dimethyl-1-naphthylamine",
            "confidence": 1.0,
            "uuid": "8b349c40-7954-4b05-99ad-aec40cf077a6",
            "name": "N,N-Dimethyl-1-naphthylamine",
            "url": "https://haz-map.com/Agents/15782",
            "category": "agents"
          }
        ]
      },
      "cas_number": {
        "original_name": "CAS Number",
        "value": "86-56-6",
        "links": [],
        "cross_references": []
      },
      "formula": {
        "original_name": "Formula",
        "value": "C12-H13-N",
        "links": [],
        "cross_references": []
      },
      "major_category": {
        "original_name": "Major Category",
        "value": "Nitrogen Compounds",
        "links": [],
        "cross_references": [
          {
            "type": "name_match",
            "text": "nitrogen",
            "confidence": 1.0,
            "uuid": "db5e90a9-06d2-45b9-8b81-f345a89b0bc0",
            "name": "Nitrogen",
            "url": "https://haz-map.com/Agents/1072",
            "category": "agents"
          }
        ]
      },
      "synonyms": {
        "original_name": "Synonyms",
        "value": "1-Dimethylaminonaphthalene; Dimethyl-alpha-naphthylamine; N,N-Dimethyl-1-naftylamin [Czech]; N,N-Dimethyl-1-naphthalenamine; N,N-Dimethyl-1-napthylamine; N,N-Dimethyl-alpha-naphthylamine; alpha-Dimethylaminonaphthalene; 1-Naphthalenamine, N,N-dimethyl-; 1-Naphthylamine, N,N-dimethyl-; Dimethyl(1-naphthyl)amine; [ChemIDplus]",
        "links": [],
        "cross_references": [
          {
            "type": "name_match",
            "text": "naphthalene",
            "confidence": 1.0,
            "uuid": "433cf489-5423-4297-a38e-6e755a9d458e",
            "name": "Naphthalene",
            "url": "https://haz-map.com/Agents/46",
            "category": "agents"
          },
          {
            "type": "name_match",
            "text": "alpha-naphthylamine",
            "confidence": 1.0,
            "uuid": "eaccf324-3996-4d76-9164-25c57c235609",
            "name": "alpha-Naphthylamine",
            "url": "https://haz-map.com/Agents/275",
            "category": "agents"
          },
          {
            "type": "name_match",
            "text": "ht",
            "confidence": 1.0,
            "uuid": "764df367-8d53-4a11-81a2-31ccfe122a8d",
            "name": "HT",
            "url": "https://haz-map.com/Agents/2168",
            "category": "agents"
          }
        ]
      },
      "category": {
        "original_name": "Category",
        "value": "Naphthylamines",
        "links": [],
        "cross_references": [
          {
            "type": "name_match",
            "text": "ht",
            "confidence": 1.0,
            "uuid": "764df367-8d53-4a11-81a2-31ccfe122a8d",
            "name": "HT",
            "url": "https://haz-map.com/Agents/2168",
            "category": "agents"
          }
        ]
      },
      "description": {
        "original_name": "Description",
        "value": "Liquid with an aromatic odor; [Merck Index] Brown liquid; [Sigma-Aldrich MSDS]",
        "links": [],
        "cross_references": []
      },
      "sourcesuses": {
        "original_name": "Sources/Uses",
        "value": "Used for the determination of nitrites; [Merck Index]",
        "links": [],
        "cross_references": []
      },
      "comments": {
        "original_name": "Comments",
        "value": "An irritant; Toxic by ingestion; [Sigma-Aldrich MSDS] See \"alpha-Naphthylamine.\"",
        "links": [],
        "cross_references": [
          {
            "type": "name_match",
            "text": "alpha-naphthylamine",
            "confidence": 1.0,
            "uuid": "eaccf324-3996-4d76-9164-25c57c235609",
            "name": "alpha-Naphthylamine",
            "url": "https://haz-map.com/Agents/275",
            "category": "agents"
          },
          {
            "type": "name_match",
            "text": "ht",
            "confidence": 1.0,
            "uuid": "764df367-8d53-4a11-81a2-31ccfe122a8d",
            "name": "HT",
            "url": "https://haz-map.com/Agents/2168",
            "category": "agents"
          }
        ]
      },
      "biomedical_references": {
        "original_name": "Biomedical References",
        "value": "Search PubMed",
        "links": [
          {
            "text": "Search PubMed",
            "url": "https://www.ncbi.nlm.nih.gov/pubmed?term=N%2cN-Dimethyl-1-naphthylamine%20AND%20human%5Bmh%5D%20AND%20%28Occupational%20Diseases%20%5Bmh%5D%20OR%20Occupational%20Exposure%20%5Bmh%5D%29%20%20AND%20%28tox%5Bsb%5D%29&cmd=search"
          }
        ],
        "cross_references": []
      }
    },
    "exposure_assessment": {
      "vapor_pressure": {
        "original_name": "Vapor Pressure",
        "value": "0.0027 mm Hg",
        "links": [],
        "cross_references": []
      }
    },
    "diseases_processes_and_activities_linked_to_this_agent": {
      "other_information": {
        "original_name": "Other Information",
        "value": "No other related information on this agent was found.",
        "links": [],
        "cross_references": []
      }
    }
  },
  "cross_references": [
    {
      "type": "name_match",
      "text": "naphthalene",
      "confidence": 1.0,
      "uuid": "433cf489-5423-4297-a38e-6e755a9d458e",
      "name": "Naphthalene",
      "url": "https://haz-map.com/Agents/46",
      "category": "agents"
    },
    {
      "type": "name_match",
      "text": "alpha-naphthylamine",
      "confidence": 1.0,
      "uuid": "eaccf324-3996-4d76-9164-25c57c235609",
      "name": "alpha-Naphthylamine",
      "url": "https://haz-map.com/Agents/275",
      "category": "agents"
    },
    {
      "type": "name_match",
      "text": "nitrogen",
      "confidence": 1.0,
      "uuid": "db5e90a9-06d2-45b9-8b81-f345a89b0bc0",
      "name": "Nitrogen",
      "url": "https://haz-map.com/Agents/1072",
      "category": "agents"
    },
    {
      "type": "name_match",
      "text": "ht",
      "confidence": 1.0,
      "uuid": "764df367-8d53-4a11-81a2-31ccfe122a8d",
      "name": "HT",
      "url": "https://haz-map.com/Agents/2168",
      "category": "agents"
    },
    {
      "type": "name_match",
      "text": "n,n-dimethyl-1-naphthylamine",
      "confidence": 1.0,
      "uuid": "8b349c40-7954-4b05-99ad-aec40cf077a6",
      "name": "N,N-Dimethyl-1-naphthylamine",
      "url": "https://haz-map.com/Agents/15782",
      "category": "agents"
    }
  ],
  "all_links": [
    {
      "text": "Search PubMed",
      "url": "https://www.ncbi.nlm.nih.gov/pubmed?term=N%2cN-Dimethyl-1-naphthylamine%20AND%20human%5Bmh%5D%20AND%20%28Occupational%20Diseases%20%5Bmh%5D%20OR%20Occupational%20Exposure%20%5Bmh%5D%29%20%20AND%20%28tox%5Bsb%5D%29&cmd=search"
    }
  ]
}