{
  "metadata": {
    "scraped_from": "https://haz-map.com/Agents/8629",
    "entity_name": "Butyl nitrate",
    "category": "agents",
    "uuid": "8b55aee6-c4c4-476b-aaa1-cd9929c7a85e",
    "scraped_at": "2025-07-23T20:29:36.961388"
  },
  "parsed_at": "2025-07-24T01:03:20.981545",
  "title": "Butyl nitrate",
  "sections": {
    "general": {
      "agent_name": {
        "original_name": "Agent Name",
        "value": "Butyl nitrate",
        "links": [],
        "cross_references": [
          {
            "type": "name_match",
            "text": "butyl nitrate",
            "confidence": 1.0,
            "uuid": "8b55aee6-c4c4-476b-aaa1-cd9929c7a85e",
            "name": "Butyl nitrate",
            "url": "https://haz-map.com/Agents/8629",
            "category": "agents"
          }
        ]
      },
      "cas_number": {
        "original_name": "CAS Number",
        "value": "928-45-0",
        "links": [],
        "cross_references": []
      },
      "formula": {
        "original_name": "Formula",
        "value": "C4-H9-N-O3",
        "links": [],
        "cross_references": []
      },
      "major_category": {
        "original_name": "Major Category",
        "value": "Nitrogen Compounds",
        "links": [],
        "cross_references": [
          {
            "type": "name_match",
            "text": "nitrogen",
            "confidence": 1.0,
            "uuid": "db5e90a9-06d2-45b9-8b81-f345a89b0bc0",
            "name": "Nitrogen",
            "url": "https://haz-map.com/Agents/1072",
            "category": "agents"
          }
        ]
      },
      "synonyms": {
        "original_name": "Synonyms",
        "value": "Nitric acid, butyl ester; [ChemIDplus]",
        "links": [],
        "cross_references": [
          {
            "type": "name_match",
            "text": "nitric acid",
            "confidence": 1.0,
            "uuid": "bd7295a2-ca9d-4ffb-a0d5-faa4fb9e01e7",
            "name": "Nitric acid",
            "url": "https://haz-map.com/Agents/567",
            "category": "agents"
          }
        ]
      },
      "category": {
        "original_name": "Category",
        "value": "Nitrates and Nitrites",
        "links": [],
        "cross_references": [
          {
            "type": "name_match",
            "text": "nitrates and nitrites",
            "confidence": 1.0,
            "uuid": "6762c941-4910-4341-a779-ff9c9606e987",
            "name": "NITRATES and NITRITES",
            "url": "https://haz-map.com/Agents/1095",
            "category": "agents"
          }
        ]
      },
      "description": {
        "original_name": "Description",
        "value": "Water-white liquid; [Hawley]",
        "links": [],
        "cross_references": [
          {
            "type": "name_match",
            "text": "water",
            "confidence": 1.0,
            "uuid": "6f2a7557-dfd2-49bc-9b4b-a93cd8e225d4",
            "name": "Water",
            "url": "https://haz-map.com/Agents/18668",
            "category": "agents"
          }
        ]
      },
      "comments": {
        "original_name": "Comments",
        "value": "An oxidizing agent; May explode from heat or shock; [Hawley] May cause irritation; [MSDSonline] See \"NITRATES and NITRITES.\"",
        "links": [],
        "cross_references": [
          {
            "type": "name_match",
            "text": "shock",
            "confidence": 1.0,
            "uuid": "184088a3-33cc-4d64-b02e-bfb90ba4cbe5",
            "name": "shock",
            "url": "https://haz-map.com/Findings/76",
            "category": "findings"
          },
          {
            "type": "name_match",
            "text": "nitrates and nitrites",
            "confidence": 1.0,
            "uuid": "6762c941-4910-4341-a779-ff9c9606e987",
            "name": "NITRATES and NITRITES",
            "url": "https://haz-map.com/Agents/1095",
            "category": "agents"
          }
        ]
      },
      "biomedical_references": {
        "original_name": "Biomedical References",
        "value": "Search PubMed",
        "links": [
          {
            "text": "Search PubMed",
            "url": "https://www.ncbi.nlm.nih.gov/pubmed?term=Butyl+nitrate%20AND%20human%5Bmh%5D%20AND%20%28Occupational%20Diseases%20%5Bmh%5D%20OR%20Occupational%20Exposure%20%5Bmh%5D%29%20%20AND%20%28tox%5Bsb%5D%29&cmd=search"
          }
        ],
        "cross_references": []
      }
    },
    "exposure_assessment": {
      "vapor_pressure": {
        "original_name": "Vapor Pressure",
        "value": "8.3 mm Hg",
        "links": [],
        "cross_references": []
      },
      "explanatory_notes": {
        "original_name": "Explanatory Notes",
        "value": "VP from ChemIDplus;",
        "links": [],
        "cross_references": []
      }
    },
    "adverse_effects": {
      "methemoglobinemia": {
        "original_name": "Methemoglobinemia",
        "value": "MetHgb is secondary toxic effect",
        "links": [],
        "cross_references": []
      }
    },
    "diseases_processes_and_activities_linked_to_this_agent": {
      "other_information": {
        "original_name": "Other Information",
        "value": "No other related information on this agent was found.",
        "links": [],
        "cross_references": []
      }
    }
  },
  "cross_references": [
    {
      "type": "name_match",
      "text": "shock",
      "confidence": 1.0,
      "uuid": "184088a3-33cc-4d64-b02e-bfb90ba4cbe5",
      "name": "shock",
      "url": "https://haz-map.com/Findings/76",
      "category": "findings"
    },
    {
      "type": "name_match",
      "text": "nitric acid",
      "confidence": 1.0,
      "uuid": "bd7295a2-ca9d-4ffb-a0d5-faa4fb9e01e7",
      "name": "Nitric acid",
      "url": "https://haz-map.com/Agents/567",
      "category": "agents"
    },
    {
      "type": "name_match",
      "text": "nitrogen",
      "confidence": 1.0,
      "uuid": "db5e90a9-06d2-45b9-8b81-f345a89b0bc0",
      "name": "Nitrogen",
      "url": "https://haz-map.com/Agents/1072",
      "category": "agents"
    },
    {
      "type": "name_match",
      "text": "nitrates and nitrites",
      "confidence": 1.0,
      "uuid": "6762c941-4910-4341-a779-ff9c9606e987",
      "name": "NITRATES and NITRITES",
      "url": "https://haz-map.com/Agents/1095",
      "category": "agents"
    },
    {
      "type": "name_match",
      "text": "butyl nitrate",
      "confidence": 1.0,
      "uuid": "8b55aee6-c4c4-476b-aaa1-cd9929c7a85e",
      "name": "Butyl nitrate",
      "url": "https://haz-map.com/Agents/8629",
      "category": "agents"
    },
    {
      "type": "name_match",
      "text": "water",
      "confidence": 1.0,
      "uuid": "6f2a7557-dfd2-49bc-9b4b-a93cd8e225d4",
      "name": "Water",
      "url": "https://haz-map.com/Agents/18668",
      "category": "agents"
    }
  ],
  "all_links": [
    {
      "text": "Search PubMed",
      "url": "https://www.ncbi.nlm.nih.gov/pubmed?term=Butyl+nitrate%20AND%20human%5Bmh%5D%20AND%20%28Occupational%20Diseases%20%5Bmh%5D%20OR%20Occupational%20Exposure%20%5Bmh%5D%29%20%20AND%20%28tox%5Bsb%5D%29&cmd=search"
    }
  ]
}