{
  "metadata": {
    "scraped_from": "https://haz-map.com/Agents/16561",
    "entity_name": "Phenylalanine",
    "category": "agents",
    "uuid": "8be416e5-4a8c-41fd-bcc7-d2a9217599fb",
    "scraped_at": "2025-07-23T21:38:32.191046"
  },
  "parsed_at": "2025-07-24T00:50:49.204466",
  "title": "Phenylalanine",
  "sections": {
    "general": {
      "agent_name": {
        "original_name": "Agent Name",
        "value": "Phenylalanine",
        "links": [],
        "cross_references": [
          {
            "type": "name_match",
            "text": "alanine",
            "confidence": 1.0,
            "uuid": "0829012c-76c4-4cb5-91ac-cacb73278dc5",
            "name": "Alanine",
            "url": "https://haz-map.com/Agents/11406",
            "category": "agents"
          },
          {
            "type": "name_match",
            "text": "phenylalanine",
            "confidence": 1.0,
            "uuid": "8be416e5-4a8c-41fd-bcc7-d2a9217599fb",
            "name": "Phenylalanine",
            "url": "https://haz-map.com/Agents/16561",
            "category": "agents"
          }
        ]
      },
      "cas_number": {
        "original_name": "CAS Number",
        "value": "63-91-2",
        "links": [],
        "cross_references": []
      },
      "formula": {
        "original_name": "Formula",
        "value": "C9-H11-N-O2",
        "links": [],
        "cross_references": []
      },
      "major_category": {
        "original_name": "Major Category",
        "value": "Biological Agents",
        "links": [],
        "cross_references": []
      },
      "synonyms": {
        "original_name": "Synonyms",
        "value": "(L)-Phenylalanine; (S)-2-Amino-3-phenylpropanoic acid; (S)-2-Amino-3-phenylpropionic acid; (S)-Phenylalanine; (S)-alpha-Amino-benzenepropanoic acid; (S)-alpha-Amino-beta-phenylpropionic acid; (S)-alpha-Aminohydrocinnamic acid; 2-Amino-3-phenylpropionic acid, L-; 3-Phenyl-L-alanine; 3-Phenylalanine; Alanine, 3-phenyl-; Antibiotic FN 1636; Benzenepropanoic acid, alpha-amino-, (S)-; Fenilalanina [Spanish]; Hydrocinnamic acid, alpha-amino-; L-Alanine, 3-phenyl-; L-Alanine, phenyl-; L-Antibiotic FN 1636; Phenylalaninum [Latin]; alpha-Amino-beta-phenylpropionic acid, L-; alpha-Aminohydrocinnamic acid, L-; beta-Phenyl-L-alanine; Alanine, phenyl-, L-; L-Phenylalanine; Phenylalanine, L-; [ChemIDplus] Phe; F; beta-Phenylalanine; alpha-Aminohydrocinnamic acid; alpha-Amino-beta-phenylpropionic acid; [Merck Index]",
        "links": [],
        "cross_references": [
          {
            "type": "name_match",
            "text": "benzene",
            "confidence": 1.0,
            "uuid": "b05124de-5f34-4c14-8f04-ccb20c3780d9",
            "name": "Benzene",
            "url": "https://haz-map.com/Agents/5",
            "category": "agents"
          },
          {
            "type": "name_match",
            "text": "propionic acid",
            "confidence": 1.0,
            "uuid": "519c4d0a-ac6f-4f79-a08f-47ebc278e0b4",
            "name": "Propionic acid",
            "url": "https://haz-map.com/Agents/609",
            "category": "agents"
          },
          {
            "type": "name_match",
            "text": "hydrocinnamic acid",
            "confidence": 1.0,
            "uuid": "28fc8081-c387-4095-b941-c137a15eb862",
            "name": "Hydrocinnamic acid",
            "url": "https://haz-map.com/Agents/10825",
            "category": "agents"
          },
          {
            "type": "name_match",
            "text": "alanine",
            "confidence": 1.0,
            "uuid": "0829012c-76c4-4cb5-91ac-cacb73278dc5",
            "name": "Alanine",
            "url": "https://haz-map.com/Agents/11406",
            "category": "agents"
          },
          {
            "type": "name_match",
            "text": "cinnamic acid",
            "confidence": 1.0,
            "uuid": "36c7cc13-9a22-4833-a693-400904298b8e",
            "name": "Cinnamic acid",
            "url": "https://haz-map.com/Agents/13034",
            "category": "agents"
          },
          {
            "type": "name_match",
            "text": "phenylalanine",
            "confidence": 1.0,
            "uuid": "8be416e5-4a8c-41fd-bcc7-d2a9217599fb",
            "name": "Phenylalanine",
            "url": "https://haz-map.com/Agents/16561",
            "category": "agents"
          }
        ]
      },
      "category": {
        "original_name": "Category",
        "value": "Amino Acids and Derivatives",
        "links": [],
        "cross_references": []
      },
      "description": {
        "original_name": "Description",
        "value": "Solid; [Merck Index] White odorless solid; [CAMEO] White powder; [Sigma-Aldrich MSDS]",
        "links": [],
        "cross_references": []
      },
      "sourcesuses": {
        "original_name": "Sources/Uses",
        "value": "An essential amino acid; Used in the artificial sweetener aspartame (a methyl ester of aspartic acid/phenylalanine); [Merck Index] Used as a flavoring agent and nutritional supplement; [FDA]",
        "links": [],
        "cross_references": [
          {
            "type": "name_match",
            "text": "alanine",
            "confidence": 1.0,
            "uuid": "0829012c-76c4-4cb5-91ac-cacb73278dc5",
            "name": "Alanine",
            "url": "https://haz-map.com/Agents/11406",
            "category": "agents"
          },
          {
            "type": "name_match",
            "text": "aspartic acid",
            "confidence": 1.0,
            "uuid": "7b12254f-ffdd-453d-82ba-a9d7ff06cc85",
            "name": "Aspartic acid",
            "url": "https://haz-map.com/Agents/15084",
            "category": "agents"
          },
          {
            "type": "name_match",
            "text": "phenylalanine",
            "confidence": 1.0,
            "uuid": "8be416e5-4a8c-41fd-bcc7-d2a9217599fb",
            "name": "Phenylalanine",
            "url": "https://haz-map.com/Agents/16561",
            "category": "agents"
          },
          {
            "type": "name_match",
            "text": "aspartame",
            "confidence": 1.0,
            "uuid": "2e0b2946-5d6a-4bab-a558-268e73380c1c",
            "name": "Aspartame",
            "url": "https://haz-map.com/Agents/20264",
            "category": "agents"
          }
        ]
      },
      "comments": {
        "original_name": "Comments",
        "value": "Safe when used as a flavoring agent in food; [JECFA] May cause irritation; [Sigma-Aldrich MSDS]",
        "links": [],
        "cross_references": []
      },
      "biomedical_references": {
        "original_name": "Biomedical References",
        "value": "Search PubMed",
        "links": [
          {
            "text": "Search PubMed",
            "url": "https://www.ncbi.nlm.nih.gov/pubmed?term=Phenylalanine%20AND%20human%5Bmh%5D%20AND%20%28Occupational%20Diseases%20%5Bmh%5D%20OR%20Occupational%20Exposure%20%5Bmh%5D%29%20%20AND%20%28tox%5Bsb%5D%29&cmd=search"
          }
        ],
        "cross_references": []
      }
    },
    "exposure_assessment": {
      "vapor_pressure": {
        "original_name": "Vapor Pressure",
        "value": "4.65E-08 mm Hg",
        "links": [],
        "cross_references": []
      }
    },
    "diseases_processes_and_activities_linked_to_this_agent": {
      "other_information": {
        "original_name": "Other Information",
        "value": "No other related information on this agent was found.",
        "links": [],
        "cross_references": []
      }
    }
  },
  "cross_references": [
    {
      "type": "name_match",
      "text": "benzene",
      "confidence": 1.0,
      "uuid": "b05124de-5f34-4c14-8f04-ccb20c3780d9",
      "name": "Benzene",
      "url": "https://haz-map.com/Agents/5",
      "category": "agents"
    },
    {
      "type": "name_match",
      "text": "propionic acid",
      "confidence": 1.0,
      "uuid": "519c4d0a-ac6f-4f79-a08f-47ebc278e0b4",
      "name": "Propionic acid",
      "url": "https://haz-map.com/Agents/609",
      "category": "agents"
    },
    {
      "type": "name_match",
      "text": "hydrocinnamic acid",
      "confidence": 1.0,
      "uuid": "28fc8081-c387-4095-b941-c137a15eb862",
      "name": "Hydrocinnamic acid",
      "url": "https://haz-map.com/Agents/10825",
      "category": "agents"
    },
    {
      "type": "name_match",
      "text": "alanine",
      "confidence": 1.0,
      "uuid": "0829012c-76c4-4cb5-91ac-cacb73278dc5",
      "name": "Alanine",
      "url": "https://haz-map.com/Agents/11406",
      "category": "agents"
    },
    {
      "type": "name_match",
      "text": "cinnamic acid",
      "confidence": 1.0,
      "uuid": "36c7cc13-9a22-4833-a693-400904298b8e",
      "name": "Cinnamic acid",
      "url": "https://haz-map.com/Agents/13034",
      "category": "agents"
    },
    {
      "type": "name_match",
      "text": "aspartic acid",
      "confidence": 1.0,
      "uuid": "7b12254f-ffdd-453d-82ba-a9d7ff06cc85",
      "name": "Aspartic acid",
      "url": "https://haz-map.com/Agents/15084",
      "category": "agents"
    },
    {
      "type": "name_match",
      "text": "phenylalanine",
      "confidence": 1.0,
      "uuid": "8be416e5-4a8c-41fd-bcc7-d2a9217599fb",
      "name": "Phenylalanine",
      "url": "https://haz-map.com/Agents/16561",
      "category": "agents"
    },
    {
      "type": "name_match",
      "text": "aspartame",
      "confidence": 1.0,
      "uuid": "2e0b2946-5d6a-4bab-a558-268e73380c1c",
      "name": "Aspartame",
      "url": "https://haz-map.com/Agents/20264",
      "category": "agents"
    }
  ],
  "all_links": [
    {
      "text": "Search PubMed",
      "url": "https://www.ncbi.nlm.nih.gov/pubmed?term=Phenylalanine%20AND%20human%5Bmh%5D%20AND%20%28Occupational%20Diseases%20%5Bmh%5D%20OR%20Occupational%20Exposure%20%5Bmh%5D%29%20%20AND%20%28tox%5Bsb%5D%29&cmd=search"
    }
  ]
}