{
  "metadata": {
    "scraped_from": "https://haz-map.com/Agents/18096",
    "entity_name": "trans-2-Hexenal",
    "category": "agents",
    "uuid": "8bf7a40e-9142-4c65-8716-32263809e7a7",
    "scraped_at": "2025-07-23T21:52:38.276027"
  },
  "parsed_at": "2025-07-24T01:01:00.201084",
  "title": "trans-2-Hexenal",
  "sections": {
    "general": {
      "agent_name": {
        "original_name": "Agent Name",
        "value": "trans-2-Hexenal",
        "links": [],
        "cross_references": [
          {
            "type": "name_match",
            "text": "2-hexenal",
            "confidence": 1.0,
            "uuid": "96280d9e-6a24-4596-9e2a-3fc9dca2862a",
            "name": "2-Hexenal",
            "url": "https://haz-map.com/Agents/9643",
            "category": "agents"
          },
          {
            "type": "name_match",
            "text": "trans-2-hexenal",
            "confidence": 1.0,
            "uuid": "8bf7a40e-9142-4c65-8716-32263809e7a7",
            "name": "trans-2-Hexenal",
            "url": "https://haz-map.com/Agents/18096",
            "category": "agents"
          }
        ]
      },
      "cas_number": {
        "original_name": "CAS Number",
        "value": "6728-26-3",
        "links": [],
        "cross_references": []
      },
      "formula": {
        "original_name": "Formula",
        "value": "C6-H10-O",
        "links": [],
        "cross_references": []
      },
      "major_category": {
        "original_name": "Major Category",
        "value": "Other Classes",
        "links": [],
        "cross_references": []
      },
      "synonyms": {
        "original_name": "Synonyms",
        "value": "2-Hexenal, (2E)-; 2-Hexenal, (E)-; trans-Hex-2-enal; 2-trans-Hexenal; beta-Propyl acrolein; trans-2-Hexenal (leaf aldehyde); trans-2-Hexenal (leaf aldehyde) (natural); [ChemIDplus] UN1988",
        "links": [],
        "cross_references": [
          {
            "type": "name_match",
            "text": "acrolein",
            "confidence": 1.0,
            "uuid": "a2d0c6a0-4ba7-42a1-bdb2-5ab0f9eaf94e",
            "name": "Acrolein",
            "url": "https://haz-map.com/Agents/95",
            "category": "agents"
          },
          {
            "type": "name_match",
            "text": "2-hexenal",
            "confidence": 1.0,
            "uuid": "96280d9e-6a24-4596-9e2a-3fc9dca2862a",
            "name": "2-Hexenal",
            "url": "https://haz-map.com/Agents/9643",
            "category": "agents"
          },
          {
            "type": "name_match",
            "text": "trans-2-hexenal",
            "confidence": 1.0,
            "uuid": "8bf7a40e-9142-4c65-8716-32263809e7a7",
            "name": "trans-2-Hexenal",
            "url": "https://haz-map.com/Agents/18096",
            "category": "agents"
          }
        ]
      },
      "category": {
        "original_name": "Category",
        "value": "Aldehydes",
        "links": [],
        "cross_references": [
          {
            "type": "name_match",
            "text": "aldehydes",
            "confidence": 1.0,
            "uuid": "60ff52e0-7c53-4dd0-99cf-f775cfcfed59",
            "name": "ALDEHYDES",
            "url": "https://haz-map.com/Agents/719",
            "category": "agents"
          }
        ]
      },
      "description": {
        "original_name": "Description",
        "value": "Clear light yellow liquid; [Sigma-Aldrich MSDS]",
        "links": [],
        "cross_references": [
          {
            "type": "name_match",
            "text": "ht",
            "confidence": 1.0,
            "uuid": "764df367-8d53-4a11-81a2-31ccfe122a8d",
            "name": "HT",
            "url": "https://haz-map.com/Agents/2168",
            "category": "agents"
          }
        ]
      },
      "sourcesuses": {
        "original_name": "Sources/Uses",
        "value": "\"Product of lipid peroxidation in the rat liver; a green odor chemical.\" [ChemIDplus] Permitted for use as an inert ingredient in non-food pesticide products; [EPA]",
        "links": [],
        "cross_references": [
          {
            "type": "name_match",
            "text": "mica",
            "confidence": 1.0,
            "uuid": "433f26f1-c399-4596-b179-ce3843cfd465",
            "name": "Mica",
            "url": "https://haz-map.com/Agents/621",
            "category": "agents"
          }
        ]
      },
      "comments": {
        "original_name": "Comments",
        "value": "Safe when used as a flavoring agent in food; [JECFA] A skin and strong eye irritant; May cause skin sensitization; Harmful by ingestion; Toxic by skin absorption; [Sigma-Aldrich MSDS]",
        "links": [],
        "cross_references": []
      },
      "restricted": {
        "original_name": "Restricted",
        "value": "Concentrations in cosmetic products in the EU can not exceed 0.002%, based on sensitization reactions observed at 0.2% but not at 0.02%; [EC: SCCNFP]",
        "links": [],
        "cross_references": []
      },
      "biomedical_references": {
        "original_name": "Biomedical References",
        "value": "Search PubMed",
        "links": [
          {
            "text": "Search PubMed",
            "url": "https://www.ncbi.nlm.nih.gov/pubmed?term=trans-2-Hexenal%20AND%20human%5Bmh%5D%20AND%20%28Occupational%20Diseases%20%5Bmh%5D%20OR%20Occupational%20Exposure%20%5Bmh%5D%29%20%20AND%20%28tox%5Bsb%5D%29&cmd=search"
          }
        ],
        "cross_references": []
      }
    },
    "exposure_assessment": {
      "vapor_pressure": {
        "original_name": "Vapor Pressure",
        "value": "6.6 mm Hg",
        "links": [],
        "cross_references": []
      },
      "explanatory_notes": {
        "original_name": "Explanatory Notes",
        "value": "The Guide in the Emergency Response Guidebook is for \"Aldehydes, flammable, toxic, n.o.s.\"",
        "links": [],
        "cross_references": [
          {
            "type": "name_match",
            "text": "aldehydes",
            "confidence": 1.0,
            "uuid": "60ff52e0-7c53-4dd0-99cf-f775cfcfed59",
            "name": "ALDEHYDES",
            "url": "https://haz-map.com/Agents/719",
            "category": "agents"
          }
        ]
      }
    },
    "adverse_effects": {
      "skin_sensitizer": {
        "original_name": "Skin Sensitizer",
        "value": "Yes",
        "links": [],
        "cross_references": []
      }
    },
    "diseases_processes_and_activities_linked_to_this_agent": {
      "diseases": {
        "original_name": "Diseases",
        "value": "Occupational diseases associated with exposure to this agent: Contact dermatitis, allergic",
        "links": [
          {
            "text": "Contact dermatitis, allergic",
            "url": "https://haz-map.com/Diseases/18"
          }
        ],
        "cross_references": [
          {
            "type": "url_match",
            "text": "Contact dermatitis, allergic",
            "url": "https://haz-map.com/Diseases/18",
            "confidence": 1.0,
            "uuid": "c9499de0-9aa1-41bf-8753-cd5b28a63e29",
            "name": "Contact dermatitis, allergic",
            "category": "diseases"
          },
          {
            "type": "name_match",
            "text": "dermatitis",
            "confidence": 1.0,
            "uuid": "fe9c05f2-b19f-4ceb-ac7a-ffb7d7a0cae0",
            "name": "dermatitis",
            "url": "https://haz-map.com/Findings/59",
            "category": "findings"
          }
        ]
      }
    }
  },
  "cross_references": [
    {
      "type": "url_match",
      "text": "Contact dermatitis, allergic",
      "url": "https://haz-map.com/Diseases/18",
      "confidence": 1.0,
      "uuid": "c9499de0-9aa1-41bf-8753-cd5b28a63e29",
      "name": "Contact dermatitis, allergic",
      "category": "diseases"
    },
    {
      "type": "name_match",
      "text": "dermatitis",
      "confidence": 1.0,
      "uuid": "fe9c05f2-b19f-4ceb-ac7a-ffb7d7a0cae0",
      "name": "dermatitis",
      "url": "https://haz-map.com/Findings/59",
      "category": "findings"
    },
    {
      "type": "name_match",
      "text": "acrolein",
      "confidence": 1.0,
      "uuid": "a2d0c6a0-4ba7-42a1-bdb2-5ab0f9eaf94e",
      "name": "Acrolein",
      "url": "https://haz-map.com/Agents/95",
      "category": "agents"
    },
    {
      "type": "name_match",
      "text": "mica",
      "confidence": 1.0,
      "uuid": "433f26f1-c399-4596-b179-ce3843cfd465",
      "name": "Mica",
      "url": "https://haz-map.com/Agents/621",
      "category": "agents"
    },
    {
      "type": "name_match",
      "text": "aldehydes",
      "confidence": 1.0,
      "uuid": "60ff52e0-7c53-4dd0-99cf-f775cfcfed59",
      "name": "ALDEHYDES",
      "url": "https://haz-map.com/Agents/719",
      "category": "agents"
    },
    {
      "type": "name_match",
      "text": "ht",
      "confidence": 1.0,
      "uuid": "764df367-8d53-4a11-81a2-31ccfe122a8d",
      "name": "HT",
      "url": "https://haz-map.com/Agents/2168",
      "category": "agents"
    },
    {
      "type": "name_match",
      "text": "2-hexenal",
      "confidence": 1.0,
      "uuid": "96280d9e-6a24-4596-9e2a-3fc9dca2862a",
      "name": "2-Hexenal",
      "url": "https://haz-map.com/Agents/9643",
      "category": "agents"
    },
    {
      "type": "name_match",
      "text": "trans-2-hexenal",
      "confidence": 1.0,
      "uuid": "8bf7a40e-9142-4c65-8716-32263809e7a7",
      "name": "trans-2-Hexenal",
      "url": "https://haz-map.com/Agents/18096",
      "category": "agents"
    }
  ],
  "all_links": [
    {
      "text": "Search PubMed",
      "url": "https://www.ncbi.nlm.nih.gov/pubmed?term=trans-2-Hexenal%20AND%20human%5Bmh%5D%20AND%20%28Occupational%20Diseases%20%5Bmh%5D%20OR%20Occupational%20Exposure%20%5Bmh%5D%29%20%20AND%20%28tox%5Bsb%5D%29&cmd=search"
    },
    {
      "text": "Contact dermatitis, allergic",
      "url": "https://haz-map.com/Diseases/18"
    }
  ]
}