{
  "metadata": {
    "scraped_from": "https://haz-map.com/Agents/5204",
    "entity_name": "Ethylenebisdithiocarbamic acid",
    "category": "agents",
    "uuid": "8c500cc3-181c-43ed-97f4-a64bdfbebf22",
    "scraped_at": "2025-07-23T19:50:03.798924"
  },
  "parsed_at": "2025-07-24T00:53:33.918923",
  "title": "Ethylenebisdithiocarbamic acid",
  "sections": {
    "general": {
      "agent_name": {
        "original_name": "Agent Name",
        "value": "Ethylenebisdithiocarbamic acid",
        "links": [],
        "cross_references": [
          {
            "type": "name_match",
            "text": "ethylene",
            "confidence": 1.0,
            "uuid": "958eacc0-5135-4b62-bb93-6df972bf552f",
            "name": "Ethylene",
            "url": "https://haz-map.com/Agents/1076",
            "category": "agents"
          },
          {
            "type": "name_match",
            "text": "ethylenebisdithiocarbamic acid",
            "confidence": 1.0,
            "uuid": "8c500cc3-181c-43ed-97f4-a64bdfbebf22",
            "name": "Ethylenebisdithiocarbamic acid",
            "url": "https://haz-map.com/Agents/5204",
            "category": "agents"
          }
        ]
      },
      "cas_number": {
        "original_name": "CAS Number",
        "value": "111-54-6",
        "links": [],
        "cross_references": []
      },
      "formula": {
        "original_name": "Formula",
        "value": "C4-H8-N2-S4",
        "links": [],
        "cross_references": []
      },
      "major_category": {
        "original_name": "Major Category",
        "value": "Pesticides",
        "links": [],
        "cross_references": []
      },
      "synonyms": {
        "original_name": "Synonyms",
        "value": "1,2-Ethanedicarbamic acid, tetrathio-; Carbamic acid, ethylenebis(dithio-; Carbamodithioic acid, 1,2-ethanediylbis-; Ethylenebis(dithiocarbamic acid); 1,2-Ethanediylbiscarbamodithioic acid; [ChemIDplus]",
        "links": [],
        "cross_references": [
          {
            "type": "name_match",
            "text": "ethane",
            "confidence": 1.0,
            "uuid": "5162cc8c-dfb9-4060-81ac-38a8cec7f9dd",
            "name": "Ethane",
            "url": "https://haz-map.com/Agents/1075",
            "category": "agents"
          },
          {
            "type": "name_match",
            "text": "ethylene",
            "confidence": 1.0,
            "uuid": "958eacc0-5135-4b62-bb93-6df972bf552f",
            "name": "Ethylene",
            "url": "https://haz-map.com/Agents/1076",
            "category": "agents"
          }
        ]
      },
      "category": {
        "original_name": "Category",
        "value": "Dithiocarbamates (Pesticide)",
        "links": [],
        "cross_references": []
      },
      "description": {
        "original_name": "Description",
        "value": "Very unstable solid; [CAMEO]",
        "links": [],
        "cross_references": []
      },
      "sourcesuses": {
        "original_name": "Sources/Uses",
        "value": "Metal salts used as fungicides; Nabam is disodium salt; Maneb is manganese salt; Zineb is zinc salt; [HSDB] Used as pesticide and fungicide; [CAMEO]",
        "links": [],
        "cross_references": [
          {
            "type": "name_match",
            "text": "manganese",
            "confidence": 1.0,
            "uuid": "efa71491-cbc6-446b-a11e-5faa3e453c0d",
            "name": "Manganese",
            "url": "https://haz-map.com/Agents/39",
            "category": "agents"
          },
          {
            "type": "name_match",
            "text": "fungicides",
            "confidence": 1.0,
            "uuid": "f4a9c1e1-4d57-4480-be97-d3590d38ce39",
            "name": "FUNGICIDES",
            "url": "https://haz-map.com/Agents/763",
            "category": "agents"
          },
          {
            "type": "name_match",
            "text": "maneb",
            "confidence": 1.0,
            "uuid": "c5da1859-a896-4c85-8f7e-1b7f21c20e67",
            "name": "Maneb",
            "url": "https://haz-map.com/Agents/822",
            "category": "agents"
          },
          {
            "type": "name_match",
            "text": "zineb",
            "confidence": 1.0,
            "uuid": "3e1c13ec-ad8b-4f60-9730-44f2647721cd",
            "name": "Zineb",
            "url": "https://haz-map.com/Agents/824",
            "category": "agents"
          },
          {
            "type": "name_match",
            "text": "sodium",
            "confidence": 1.0,
            "uuid": "1adffc42-a4d8-44d5-81d6-7dbd96ef8a6f",
            "name": "Sodium",
            "url": "https://haz-map.com/Agents/1527",
            "category": "agents"
          },
          {
            "type": "name_match",
            "text": "zinc",
            "confidence": 1.0,
            "uuid": "4fdb846b-d1fc-4677-99fd-bdbabeadebdc",
            "name": "Zinc",
            "url": "https://haz-map.com/Agents/1920",
            "category": "agents"
          },
          {
            "type": "name_match",
            "text": "fungi",
            "confidence": 1.0,
            "uuid": "e0d489cb-bfee-4aee-b665-999c017268a2",
            "name": "Fungi",
            "url": "https://haz-map.com/Agents/1988",
            "category": "agents"
          },
          {
            "type": "name_match",
            "text": "nabam",
            "confidence": 1.0,
            "uuid": "04c17616-1193-4e28-b190-86cbbf712001",
            "name": "Nabam",
            "url": "https://haz-map.com/Agents/6281",
            "category": "agents"
          }
        ]
      },
      "comments": {
        "original_name": "Comments",
        "value": "May cause skin, eye, and respiratory tract irritation; [HSDB] Several of the dialkyldithiocarbamates are known skin sensitizers; See \"Nabam,\" \"Maneb,\" and \"Zineb.\" See \"Carba mix.\"",
        "links": [],
        "cross_references": [
          {
            "type": "name_match",
            "text": "maneb",
            "confidence": 1.0,
            "uuid": "c5da1859-a896-4c85-8f7e-1b7f21c20e67",
            "name": "Maneb",
            "url": "https://haz-map.com/Agents/822",
            "category": "agents"
          },
          {
            "type": "name_match",
            "text": "zineb",
            "confidence": 1.0,
            "uuid": "3e1c13ec-ad8b-4f60-9730-44f2647721cd",
            "name": "Zineb",
            "url": "https://haz-map.com/Agents/824",
            "category": "agents"
          },
          {
            "type": "name_match",
            "text": "carba mix",
            "confidence": 1.0,
            "uuid": "b8a089f8-1652-4bc7-9d2c-e82a440626d6",
            "name": "Carba mix",
            "url": "https://haz-map.com/Agents/846",
            "category": "agents"
          },
          {
            "type": "name_match",
            "text": "nabam",
            "confidence": 1.0,
            "uuid": "04c17616-1193-4e28-b190-86cbbf712001",
            "name": "Nabam",
            "url": "https://haz-map.com/Agents/6281",
            "category": "agents"
          }
        ]
      },
      "biomedical_references": {
        "original_name": "Biomedical References",
        "value": "Search PubMed",
        "links": [
          {
            "text": "Search PubMed",
            "url": "https://www.ncbi.nlm.nih.gov/pubmed?term=Ethylenebisdithiocarbamic+acid%20AND%20human%5Bmh%5D%20AND%20%28Occupational%20Diseases%20%5Bmh%5D%20OR%20Occupational%20Exposure%20%5Bmh%5D%29%20%20AND%20%28tox%5Bsb%5D%29&cmd=search"
          }
        ],
        "cross_references": []
      }
    },
    "exposure_assessment": {
      "vapor_pressure": {
        "original_name": "Vapor Pressure",
        "value": "1.49E-05 mm Hg",
        "links": [],
        "cross_references": []
      }
    },
    "adverse_effects": {
      "skin_sensitizer": {
        "original_name": "Skin Sensitizer",
        "value": "Yes",
        "links": [],
        "cross_references": []
      }
    },
    "diseases_processes_and_activities_linked_to_this_agent": {
      "diseases": {
        "original_name": "Diseases",
        "value": "Occupational diseases associated with exposure to this agent: Contact dermatitis, allergic",
        "links": [
          {
            "text": "Contact dermatitis, allergic",
            "url": "https://haz-map.com/Diseases/18"
          }
        ],
        "cross_references": [
          {
            "type": "url_match",
            "text": "Contact dermatitis, allergic",
            "url": "https://haz-map.com/Diseases/18",
            "confidence": 1.0,
            "uuid": "c9499de0-9aa1-41bf-8753-cd5b28a63e29",
            "name": "Contact dermatitis, allergic",
            "category": "diseases"
          },
          {
            "type": "name_match",
            "text": "dermatitis",
            "confidence": 1.0,
            "uuid": "fe9c05f2-b19f-4ceb-ac7a-ffb7d7a0cae0",
            "name": "dermatitis",
            "url": "https://haz-map.com/Findings/59",
            "category": "findings"
          }
        ]
      },
      "processes": {
        "original_name": "Processes",
        "value": "Industrial Processes with risk of exposure: Farming (Pesticides)",
        "links": [
          {
            "text": "Farming (Pesticides)",
            "url": "https://haz-map.com/Processes/218"
          }
        ],
        "cross_references": [
          {
            "type": "url_match",
            "text": "Farming (Pesticides)",
            "url": "https://haz-map.com/Processes/218",
            "confidence": 1.0,
            "uuid": "cf1e5815-c9bb-4917-82a5-391848170b7e",
            "name": "Farming (Pesticides)",
            "category": "processes"
          }
        ]
      }
    }
  },
  "cross_references": [
    {
      "type": "url_match",
      "text": "Contact dermatitis, allergic",
      "url": "https://haz-map.com/Diseases/18",
      "confidence": 1.0,
      "uuid": "c9499de0-9aa1-41bf-8753-cd5b28a63e29",
      "name": "Contact dermatitis, allergic",
      "category": "diseases"
    },
    {
      "type": "url_match",
      "text": "Farming (Pesticides)",
      "url": "https://haz-map.com/Processes/218",
      "confidence": 1.0,
      "uuid": "cf1e5815-c9bb-4917-82a5-391848170b7e",
      "name": "Farming (Pesticides)",
      "category": "processes"
    },
    {
      "type": "name_match",
      "text": "dermatitis",
      "confidence": 1.0,
      "uuid": "fe9c05f2-b19f-4ceb-ac7a-ffb7d7a0cae0",
      "name": "dermatitis",
      "url": "https://haz-map.com/Findings/59",
      "category": "findings"
    },
    {
      "type": "name_match",
      "text": "manganese",
      "confidence": 1.0,
      "uuid": "efa71491-cbc6-446b-a11e-5faa3e453c0d",
      "name": "Manganese",
      "url": "https://haz-map.com/Agents/39",
      "category": "agents"
    },
    {
      "type": "name_match",
      "text": "fungicides",
      "confidence": 1.0,
      "uuid": "f4a9c1e1-4d57-4480-be97-d3590d38ce39",
      "name": "FUNGICIDES",
      "url": "https://haz-map.com/Agents/763",
      "category": "agents"
    },
    {
      "type": "name_match",
      "text": "maneb",
      "confidence": 1.0,
      "uuid": "c5da1859-a896-4c85-8f7e-1b7f21c20e67",
      "name": "Maneb",
      "url": "https://haz-map.com/Agents/822",
      "category": "agents"
    },
    {
      "type": "name_match",
      "text": "zineb",
      "confidence": 1.0,
      "uuid": "3e1c13ec-ad8b-4f60-9730-44f2647721cd",
      "name": "Zineb",
      "url": "https://haz-map.com/Agents/824",
      "category": "agents"
    },
    {
      "type": "name_match",
      "text": "carba mix",
      "confidence": 1.0,
      "uuid": "b8a089f8-1652-4bc7-9d2c-e82a440626d6",
      "name": "Carba mix",
      "url": "https://haz-map.com/Agents/846",
      "category": "agents"
    },
    {
      "type": "name_match",
      "text": "ethane",
      "confidence": 1.0,
      "uuid": "5162cc8c-dfb9-4060-81ac-38a8cec7f9dd",
      "name": "Ethane",
      "url": "https://haz-map.com/Agents/1075",
      "category": "agents"
    },
    {
      "type": "name_match",
      "text": "ethylene",
      "confidence": 1.0,
      "uuid": "958eacc0-5135-4b62-bb93-6df972bf552f",
      "name": "Ethylene",
      "url": "https://haz-map.com/Agents/1076",
      "category": "agents"
    },
    {
      "type": "name_match",
      "text": "sodium",
      "confidence": 1.0,
      "uuid": "1adffc42-a4d8-44d5-81d6-7dbd96ef8a6f",
      "name": "Sodium",
      "url": "https://haz-map.com/Agents/1527",
      "category": "agents"
    },
    {
      "type": "name_match",
      "text": "zinc",
      "confidence": 1.0,
      "uuid": "4fdb846b-d1fc-4677-99fd-bdbabeadebdc",
      "name": "Zinc",
      "url": "https://haz-map.com/Agents/1920",
      "category": "agents"
    },
    {
      "type": "name_match",
      "text": "fungi",
      "confidence": 1.0,
      "uuid": "e0d489cb-bfee-4aee-b665-999c017268a2",
      "name": "Fungi",
      "url": "https://haz-map.com/Agents/1988",
      "category": "agents"
    },
    {
      "type": "name_match",
      "text": "ethylenebisdithiocarbamic acid",
      "confidence": 1.0,
      "uuid": "8c500cc3-181c-43ed-97f4-a64bdfbebf22",
      "name": "Ethylenebisdithiocarbamic acid",
      "url": "https://haz-map.com/Agents/5204",
      "category": "agents"
    },
    {
      "type": "name_match",
      "text": "nabam",
      "confidence": 1.0,
      "uuid": "04c17616-1193-4e28-b190-86cbbf712001",
      "name": "Nabam",
      "url": "https://haz-map.com/Agents/6281",
      "category": "agents"
    }
  ],
  "all_links": [
    {
      "text": "Search PubMed",
      "url": "https://www.ncbi.nlm.nih.gov/pubmed?term=Ethylenebisdithiocarbamic+acid%20AND%20human%5Bmh%5D%20AND%20%28Occupational%20Diseases%20%5Bmh%5D%20OR%20Occupational%20Exposure%20%5Bmh%5D%29%20%20AND%20%28tox%5Bsb%5D%29&cmd=search"
    },
    {
      "text": "Contact dermatitis, allergic",
      "url": "https://haz-map.com/Diseases/18"
    },
    {
      "text": "Farming (Pesticides)",
      "url": "https://haz-map.com/Processes/218"
    }
  ]
}