{
  "metadata": {
    "scraped_from": "https://haz-map.com/Agents/4579",
    "entity_name": "Cyclododecane",
    "category": "agents",
    "uuid": "8c5ef04a-558f-42a3-89f6-252409dc595f",
    "scraped_at": "2025-07-23T19:42:23.428835"
  },
  "parsed_at": "2025-07-24T01:11:00.603150",
  "title": "Cyclododecane",
  "sections": {
    "general": {
      "agent_name": {
        "original_name": "Agent Name",
        "value": "Cyclododecane",
        "links": [],
        "cross_references": [
          {
            "type": "name_match",
            "text": "dodecane",
            "confidence": 1.0,
            "uuid": "e446b8fe-aaab-4728-8e79-211dfc827a2e",
            "name": "Dodecane",
            "url": "https://haz-map.com/Agents/1785",
            "category": "agents"
          },
          {
            "type": "name_match",
            "text": "cyclododecane",
            "confidence": 1.0,
            "uuid": "8c5ef04a-558f-42a3-89f6-252409dc595f",
            "name": "Cyclododecane",
            "url": "https://haz-map.com/Agents/4579",
            "category": "agents"
          }
        ]
      },
      "cas_number": {
        "original_name": "CAS Number",
        "value": "294-62-2",
        "links": [],
        "cross_references": []
      },
      "formula": {
        "original_name": "Formula",
        "value": "C12-H24",
        "links": [],
        "cross_references": []
      },
      "major_category": {
        "original_name": "Major Category",
        "value": "Other Classes",
        "links": [],
        "cross_references": []
      },
      "category": {
        "original_name": "Category",
        "value": "Aliphatics, Saturated (>C11)",
        "links": [],
        "cross_references": []
      },
      "description": {
        "original_name": "Description",
        "value": "Colorless crystals; [MSDSonline]",
        "links": [],
        "cross_references": []
      },
      "sourcesuses": {
        "original_name": "Sources/Uses",
        "value": "Used as an intermediate for the production of chemicals to make polyamides, polyesters, synthetic lubricating oils, and nylon 12; as a high-purity solvent; as a mothproofing agent; [HSDB]",
        "links": [],
        "cross_references": [
          {
            "type": "name_match",
            "text": "mica",
            "confidence": 1.0,
            "uuid": "433f26f1-c399-4596-b179-ce3843cfd465",
            "name": "Mica",
            "url": "https://haz-map.com/Agents/621",
            "category": "agents"
          },
          {
            "type": "name_match",
            "text": "moth",
            "confidence": 1.0,
            "uuid": "14a33a40-8ea5-4ef5-b71a-3731a9d4ba32",
            "name": "Moth",
            "url": "https://haz-map.com/Agents/907",
            "category": "agents"
          },
          {
            "type": "name_match",
            "text": "nylon",
            "confidence": 1.0,
            "uuid": "0e2f3b4e-3e5c-4698-94b9-095a82afcc37",
            "name": "Nylon",
            "url": "https://haz-map.com/Agents/16189",
            "category": "agents"
          }
        ]
      },
      "comments": {
        "original_name": "Comments",
        "value": "May cause irritation; [MSDSonline]",
        "links": [],
        "cross_references": []
      },
      "reference_link_1": {
        "original_name": "Reference Link #1",
        "value": "Cyclododecane exposure in the field of conservation and restoration of art objects.",
        "links": [
          {
            "text": "Cyclododecane exposure in the field of conservation and restoration of art objects.",
            "url": "http://www.ncbi.nlm.nih.gov/pubmed/21082189"
          }
        ],
        "cross_references": [
          {
            "type": "name_match",
            "text": "dodecane",
            "confidence": 1.0,
            "uuid": "e446b8fe-aaab-4728-8e79-211dfc827a2e",
            "name": "Dodecane",
            "url": "https://haz-map.com/Agents/1785",
            "category": "agents"
          },
          {
            "type": "name_match",
            "text": "cyclododecane",
            "confidence": 1.0,
            "uuid": "8c5ef04a-558f-42a3-89f6-252409dc595f",
            "name": "Cyclododecane",
            "url": "https://haz-map.com/Agents/4579",
            "category": "agents"
          }
        ]
      },
      "biomedical_references": {
        "original_name": "Biomedical References",
        "value": "Search PubMed",
        "links": [
          {
            "text": "Search PubMed",
            "url": "https://www.ncbi.nlm.nih.gov/pubmed?term=Cyclododecane%20AND%20human%5Bmh%5D%20AND%20%28Occupational%20Diseases%20%5Bmh%5D%20OR%20Occupational%20Exposure%20%5Bmh%5D%29%20%20AND%20%28tox%5Bsb%5D%29&cmd=search"
          }
        ],
        "cross_references": []
      }
    },
    "exposure_assessment": {
      "vapor_pressure": {
        "original_name": "Vapor Pressure",
        "value": "0.03 mm Hg",
        "links": [],
        "cross_references": []
      },
      "explanatory_notes": {
        "original_name": "Explanatory Notes",
        "value": "VP from ChemIDplus;",
        "links": [],
        "cross_references": []
      }
    },
    "diseases_processes_and_activities_linked_to_this_agent": {
      "other_information": {
        "original_name": "Other Information",
        "value": "No other related information on this agent was found.",
        "links": [],
        "cross_references": []
      }
    }
  },
  "cross_references": [
    {
      "type": "name_match",
      "text": "mica",
      "confidence": 1.0,
      "uuid": "433f26f1-c399-4596-b179-ce3843cfd465",
      "name": "Mica",
      "url": "https://haz-map.com/Agents/621",
      "category": "agents"
    },
    {
      "type": "name_match",
      "text": "moth",
      "confidence": 1.0,
      "uuid": "14a33a40-8ea5-4ef5-b71a-3731a9d4ba32",
      "name": "Moth",
      "url": "https://haz-map.com/Agents/907",
      "category": "agents"
    },
    {
      "type": "name_match",
      "text": "dodecane",
      "confidence": 1.0,
      "uuid": "e446b8fe-aaab-4728-8e79-211dfc827a2e",
      "name": "Dodecane",
      "url": "https://haz-map.com/Agents/1785",
      "category": "agents"
    },
    {
      "type": "name_match",
      "text": "cyclododecane",
      "confidence": 1.0,
      "uuid": "8c5ef04a-558f-42a3-89f6-252409dc595f",
      "name": "Cyclododecane",
      "url": "https://haz-map.com/Agents/4579",
      "category": "agents"
    },
    {
      "type": "name_match",
      "text": "nylon",
      "confidence": 1.0,
      "uuid": "0e2f3b4e-3e5c-4698-94b9-095a82afcc37",
      "name": "Nylon",
      "url": "https://haz-map.com/Agents/16189",
      "category": "agents"
    }
  ],
  "all_links": [
    {
      "text": "Cyclododecane exposure in the field of conservation and restoration of art objects.",
      "url": "http://www.ncbi.nlm.nih.gov/pubmed/21082189"
    },
    {
      "text": "Search PubMed",
      "url": "https://www.ncbi.nlm.nih.gov/pubmed?term=Cyclododecane%20AND%20human%5Bmh%5D%20AND%20%28Occupational%20Diseases%20%5Bmh%5D%20OR%20Occupational%20Exposure%20%5Bmh%5D%29%20%20AND%20%28tox%5Bsb%5D%29&cmd=search"
    }
  ]
}