{
  "metadata": {
    "scraped_from": "https://haz-map.com/Agents/9521",
    "entity_name": "Pyrimidine",
    "category": "agents",
    "uuid": "8c810e75-fc30-4402-838c-43fcd0d46a84",
    "scraped_at": "2025-07-23T20:37:50.881300"
  },
  "parsed_at": "2025-07-24T01:05:48.454365",
  "title": "Pyrimidine",
  "sections": {
    "general": {
      "agent_name": {
        "original_name": "Agent Name",
        "value": "Pyrimidine",
        "links": [],
        "cross_references": [
          {
            "type": "name_match",
            "text": "pyrimidine",
            "confidence": 1.0,
            "uuid": "8c810e75-fc30-4402-838c-43fcd0d46a84",
            "name": "Pyrimidine",
            "url": "https://haz-map.com/Agents/9521",
            "category": "agents"
          }
        ]
      },
      "cas_number": {
        "original_name": "CAS Number",
        "value": "289-95-2",
        "links": [],
        "cross_references": []
      },
      "formula": {
        "original_name": "Formula",
        "value": "C4-H4-N2",
        "links": [],
        "cross_references": []
      },
      "major_category": {
        "original_name": "Major Category",
        "value": "Nitrogen Compounds",
        "links": [],
        "cross_references": [
          {
            "type": "name_match",
            "text": "nitrogen",
            "confidence": 1.0,
            "uuid": "db5e90a9-06d2-45b9-8b81-f345a89b0bc0",
            "name": "Nitrogen",
            "url": "https://haz-map.com/Agents/1072",
            "category": "agents"
          }
        ]
      },
      "synonyms": {
        "original_name": "Synonyms",
        "value": "1,3-Diazabenzene; 1,3-Diazine; Metadiazine; Miazine; m-Diazine; [ChemIDplus] UN1993",
        "links": [],
        "cross_references": [
          {
            "type": "name_match",
            "text": "benzene",
            "confidence": 1.0,
            "uuid": "b05124de-5f34-4c14-8f04-ccb20c3780d9",
            "name": "Benzene",
            "url": "https://haz-map.com/Agents/5",
            "category": "agents"
          }
        ]
      },
      "category": {
        "original_name": "Category",
        "value": "Pyrimidines",
        "links": [],
        "cross_references": [
          {
            "type": "name_match",
            "text": "pyrimidine",
            "confidence": 1.0,
            "uuid": "8c810e75-fc30-4402-838c-43fcd0d46a84",
            "name": "Pyrimidine",
            "url": "https://haz-map.com/Agents/9521",
            "category": "agents"
          }
        ]
      },
      "description": {
        "original_name": "Description",
        "value": "Liquid or solid with a penetrating odor; mp = 20-22 deg C; [Merck Index] Clear, slightly brownish-yellow liquid; Hygroscopic; mp = 19 deg C; [Aldrich MSDS]",
        "links": [],
        "cross_references": [
          {
            "type": "name_match",
            "text": "ht",
            "confidence": 1.0,
            "uuid": "764df367-8d53-4a11-81a2-31ccfe122a8d",
            "name": "HT",
            "url": "https://haz-map.com/Agents/2168",
            "category": "agents"
          }
        ]
      },
      "sourcesuses": {
        "original_name": "Sources/Uses",
        "value": "\"The pyrimidine ring system has wide occurrence in nature as substituted and ring fused compounds and derivatives, including the nucleotides, thiamine (vitaminB1) and alloxan. It is also found in many synthetic compounds such as barbiturates and the HIV drug, zidovudine.\" [Wikipedia]",
        "links": [],
        "cross_references": [
          {
            "type": "name_match",
            "text": "alloxan",
            "confidence": 1.0,
            "uuid": "156a029c-7a96-43de-b9ca-8defca5c6401",
            "name": "Alloxan",
            "url": "https://haz-map.com/Agents/3563",
            "category": "agents"
          },
          {
            "type": "name_match",
            "text": "pyrimidine",
            "confidence": 1.0,
            "uuid": "8c810e75-fc30-4402-838c-43fcd0d46a84",
            "name": "Pyrimidine",
            "url": "https://haz-map.com/Agents/9521",
            "category": "agents"
          },
          {
            "type": "name_match",
            "text": "thiamine",
            "confidence": 1.0,
            "uuid": "3aa6b999-33f7-4860-b2b8-42760dd10674",
            "name": "Thiamine",
            "url": "https://haz-map.com/Agents/17375",
            "category": "agents"
          }
        ]
      },
      "comments": {
        "original_name": "Comments",
        "value": "Flammable; May cause irritation; [Aldrich MSDS]",
        "links": [],
        "cross_references": []
      },
      "biomedical_references": {
        "original_name": "Biomedical References",
        "value": "Search PubMed",
        "links": [
          {
            "text": "Search PubMed",
            "url": "https://www.ncbi.nlm.nih.gov/pubmed?term=Pyrimidine%20AND%20human%5Bmh%5D%20AND%20%28Occupational%20Diseases%20%5Bmh%5D%20OR%20Occupational%20Exposure%20%5Bmh%5D%29%20%20AND%20%28tox%5Bsb%5D%29&cmd=search"
          }
        ],
        "cross_references": []
      }
    },
    "exposure_assessment": {
      "vapor_pressure": {
        "original_name": "Vapor Pressure",
        "value": "12.9 mm Hg",
        "links": [],
        "cross_references": []
      },
      "explanatory_notes": {
        "original_name": "Explanatory Notes",
        "value": "The Guide in the Emergency Response Guidebook is for \"Flammable liquid, n.o.s.\"",
        "links": [],
        "cross_references": []
      }
    },
    "diseases_processes_and_activities_linked_to_this_agent": {
      "other_information": {
        "original_name": "Other Information",
        "value": "No other related information on this agent was found.",
        "links": [],
        "cross_references": []
      }
    }
  },
  "cross_references": [
    {
      "type": "name_match",
      "text": "benzene",
      "confidence": 1.0,
      "uuid": "b05124de-5f34-4c14-8f04-ccb20c3780d9",
      "name": "Benzene",
      "url": "https://haz-map.com/Agents/5",
      "category": "agents"
    },
    {
      "type": "name_match",
      "text": "nitrogen",
      "confidence": 1.0,
      "uuid": "db5e90a9-06d2-45b9-8b81-f345a89b0bc0",
      "name": "Nitrogen",
      "url": "https://haz-map.com/Agents/1072",
      "category": "agents"
    },
    {
      "type": "name_match",
      "text": "ht",
      "confidence": 1.0,
      "uuid": "764df367-8d53-4a11-81a2-31ccfe122a8d",
      "name": "HT",
      "url": "https://haz-map.com/Agents/2168",
      "category": "agents"
    },
    {
      "type": "name_match",
      "text": "alloxan",
      "confidence": 1.0,
      "uuid": "156a029c-7a96-43de-b9ca-8defca5c6401",
      "name": "Alloxan",
      "url": "https://haz-map.com/Agents/3563",
      "category": "agents"
    },
    {
      "type": "name_match",
      "text": "pyrimidine",
      "confidence": 1.0,
      "uuid": "8c810e75-fc30-4402-838c-43fcd0d46a84",
      "name": "Pyrimidine",
      "url": "https://haz-map.com/Agents/9521",
      "category": "agents"
    },
    {
      "type": "name_match",
      "text": "thiamine",
      "confidence": 1.0,
      "uuid": "3aa6b999-33f7-4860-b2b8-42760dd10674",
      "name": "Thiamine",
      "url": "https://haz-map.com/Agents/17375",
      "category": "agents"
    }
  ],
  "all_links": [
    {
      "text": "Search PubMed",
      "url": "https://www.ncbi.nlm.nih.gov/pubmed?term=Pyrimidine%20AND%20human%5Bmh%5D%20AND%20%28Occupational%20Diseases%20%5Bmh%5D%20OR%20Occupational%20Exposure%20%5Bmh%5D%29%20%20AND%20%28tox%5Bsb%5D%29&cmd=search"
    }
  ]
}