{
  "metadata": {
    "scraped_from": "https://haz-map.com/Agents/19194",
    "entity_name": "1,2,4-Trichloro-5-nitrobenzene",
    "category": "agents",
    "uuid": "8ca45b25-04b5-4027-b26e-4f0bf533e720",
    "scraped_at": "2025-07-23T22:01:11.493488"
  },
  "parsed_at": "2025-07-24T01:07:52.884852",
  "title": "1,2,4-Trichloro-5-nitrobenzene",
  "sections": {
    "general": {
      "agent_name": {
        "original_name": "Agent Name",
        "value": "1,2,4-Trichloro-5-nitrobenzene",
        "links": [],
        "cross_references": [
          {
            "type": "name_match",
            "text": "benzene",
            "confidence": 1.0,
            "uuid": "b05124de-5f34-4c14-8f04-ccb20c3780d9",
            "name": "Benzene",
            "url": "https://haz-map.com/Agents/5",
            "category": "agents"
          },
          {
            "type": "name_match",
            "text": "nitrobenzene",
            "confidence": 1.0,
            "uuid": "4488262c-4790-4774-a462-bf0cc71ff40c",
            "name": "Nitrobenzene",
            "url": "https://haz-map.com/Agents/569",
            "category": "agents"
          },
          {
            "type": "name_match",
            "text": "1,2,4-trichloro-5-nitrobenzene",
            "confidence": 1.0,
            "uuid": "8ca45b25-04b5-4027-b26e-4f0bf533e720",
            "name": "1,2,4-Trichloro-5-nitrobenzene",
            "url": "https://haz-map.com/Agents/19194",
            "category": "agents"
          }
        ]
      },
      "cas_number": {
        "original_name": "CAS Number",
        "value": "89-69-0",
        "links": [],
        "cross_references": []
      },
      "formula": {
        "original_name": "Formula",
        "value": "C6-H2-Cl3-N-O2",
        "links": [],
        "cross_references": []
      },
      "major_category": {
        "original_name": "Major Category",
        "value": "Nitrogen Compounds",
        "links": [],
        "cross_references": [
          {
            "type": "name_match",
            "text": "nitrogen",
            "confidence": 1.0,
            "uuid": "db5e90a9-06d2-45b9-8b81-f345a89b0bc0",
            "name": "Nitrogen",
            "url": "https://haz-map.com/Agents/1072",
            "category": "agents"
          }
        ]
      },
      "synonyms": {
        "original_name": "Synonyms",
        "value": "2,4,5-Trichloronitrobenzene; 3,4,6-Trichloronitrobenzene; 5-Nitro-1,2,4-trichlorobenzene; Benzene, 1,2,4-trichloro-5-nitro-; [ChemIDplus] 2,4,5-Trichloro-1-nitrobenzene; 1,4,5-Trichloro-2-nitrobenzene; [CAMEO]",
        "links": [],
        "cross_references": [
          {
            "type": "name_match",
            "text": "benzene",
            "confidence": 1.0,
            "uuid": "b05124de-5f34-4c14-8f04-ccb20c3780d9",
            "name": "Benzene",
            "url": "https://haz-map.com/Agents/5",
            "category": "agents"
          },
          {
            "type": "name_match",
            "text": "chlorobenzene",
            "confidence": 1.0,
            "uuid": "7e598eca-f35d-493c-aa78-93bb67744c4c",
            "name": "Chlorobenzene",
            "url": "https://haz-map.com/Agents/85",
            "category": "agents"
          },
          {
            "type": "name_match",
            "text": "nitrobenzene",
            "confidence": 1.0,
            "uuid": "4488262c-4790-4774-a462-bf0cc71ff40c",
            "name": "Nitrobenzene",
            "url": "https://haz-map.com/Agents/569",
            "category": "agents"
          },
          {
            "type": "name_match",
            "text": "1,2,4-trichlorobenzene",
            "confidence": 1.0,
            "uuid": "0139af49-f424-4d9d-8284-3822042f51da",
            "name": "1,2,4-Trichlorobenzene",
            "url": "https://haz-map.com/Agents/661",
            "category": "agents"
          },
          {
            "type": "name_match",
            "text": "2,4,5-t",
            "confidence": 1.0,
            "uuid": "e264617e-1fc4-45f5-acbb-36f4d966512f",
            "name": "2,4,5-T",
            "url": "https://haz-map.com/Agents/687",
            "category": "agents"
          }
        ]
      },
      "category": {
        "original_name": "Category",
        "value": "Nitros, Aromatic",
        "links": [],
        "cross_references": []
      },
      "description": {
        "original_name": "Description",
        "value": "Yellow solid; [CAMEO] Light yellow solid; [Sigma-Aldrich MSDS]",
        "links": [],
        "cross_references": [
          {
            "type": "name_match",
            "text": "ht",
            "confidence": 1.0,
            "uuid": "764df367-8d53-4a11-81a2-31ccfe122a8d",
            "name": "HT",
            "url": "https://haz-map.com/Agents/2168",
            "category": "agents"
          }
        ]
      },
      "comments": {
        "original_name": "Comments",
        "value": "An irritant; May induce methemoglobinemia; [NTP] May cause irritation; May induce methemoglobinemia; Toxic by ingestion; Harmful by inhalation and skin absorption; [Sigma-Aldrich MSDS] See \"Pentachloronitrobenzene\" and \"2,3,4,5-Tetrachloronitrobenzene.\"",
        "links": [],
        "cross_references": [
          {
            "type": "name_match",
            "text": "benzene",
            "confidence": 1.0,
            "uuid": "b05124de-5f34-4c14-8f04-ccb20c3780d9",
            "name": "Benzene",
            "url": "https://haz-map.com/Agents/5",
            "category": "agents"
          },
          {
            "type": "name_match",
            "text": "nitrobenzene",
            "confidence": 1.0,
            "uuid": "4488262c-4790-4774-a462-bf0cc71ff40c",
            "name": "Nitrobenzene",
            "url": "https://haz-map.com/Agents/569",
            "category": "agents"
          },
          {
            "type": "name_match",
            "text": "pentachloronitrobenzene",
            "confidence": 1.0,
            "uuid": "e0da87cd-8ce6-4e09-8bf2-8ed36b74782e",
            "name": "Pentachloronitrobenzene",
            "url": "https://haz-map.com/Agents/1340",
            "category": "agents"
          },
          {
            "type": "name_match",
            "text": "2,3,4,5-tetrachloronitrobenzene",
            "confidence": 1.0,
            "uuid": "72fe59ff-be54-45be-a89f-eb29823e8166",
            "name": "2,3,4,5-Tetrachloronitrobenzene",
            "url": "https://haz-map.com/Agents/2945",
            "category": "agents"
          },
          {
            "type": "name_match",
            "text": "methemoglobin",
            "confidence": 1.0,
            "uuid": "afb7ebf5-d2a3-4e60-8d2e-3a19456344ee",
            "name": "Methemoglobin",
            "url": "https://haz-map.com/Agents/15467",
            "category": "agents"
          },
          {
            "type": "fuzzy_match",
            "text": "methemoglobinemia",
            "matched_name": "Methemoglobinemia, acute",
            "confidence": 0.7208333333333333,
            "uuid": "473a44bd-cf11-4710-a769-e8e2b25ba317",
            "category": "diseases",
            "url": "https://haz-map.com/Diseases/210"
          }
        ]
      },
      "biomedical_references": {
        "original_name": "Biomedical References",
        "value": "Search PubMed",
        "links": [
          {
            "text": "Search PubMed",
            "url": "https://www.ncbi.nlm.nih.gov/pubmed?term=1%2c2%2c4-Trichloro-5-nitrobenzene%20AND%20human%5Bmh%5D%20AND%20%28Occupational%20Diseases%20%5Bmh%5D%20OR%20Occupational%20Exposure%20%5Bmh%5D%29%20%20AND%20%28tox%5Bsb%5D%29&cmd=search"
          }
        ],
        "cross_references": []
      }
    },
    "exposure_assessment": {
      "vapor_pressure": {
        "original_name": "Vapor Pressure",
        "value": "0.000792 mm Hg",
        "links": [],
        "cross_references": []
      }
    },
    "adverse_effects": {
      "methemoglobinemia": {
        "original_name": "Methemoglobinemia",
        "value": "MetHgb is secondary toxic effect",
        "links": [],
        "cross_references": []
      }
    },
    "diseases_processes_and_activities_linked_to_this_agent": {
      "other_information": {
        "original_name": "Other Information",
        "value": "No other related information on this agent was found.",
        "links": [],
        "cross_references": []
      }
    }
  },
  "cross_references": [
    {
      "type": "name_match",
      "text": "benzene",
      "confidence": 1.0,
      "uuid": "b05124de-5f34-4c14-8f04-ccb20c3780d9",
      "name": "Benzene",
      "url": "https://haz-map.com/Agents/5",
      "category": "agents"
    },
    {
      "type": "name_match",
      "text": "chlorobenzene",
      "confidence": 1.0,
      "uuid": "7e598eca-f35d-493c-aa78-93bb67744c4c",
      "name": "Chlorobenzene",
      "url": "https://haz-map.com/Agents/85",
      "category": "agents"
    },
    {
      "type": "name_match",
      "text": "nitrobenzene",
      "confidence": 1.0,
      "uuid": "4488262c-4790-4774-a462-bf0cc71ff40c",
      "name": "Nitrobenzene",
      "url": "https://haz-map.com/Agents/569",
      "category": "agents"
    },
    {
      "type": "name_match",
      "text": "1,2,4-trichlorobenzene",
      "confidence": 1.0,
      "uuid": "0139af49-f424-4d9d-8284-3822042f51da",
      "name": "1,2,4-Trichlorobenzene",
      "url": "https://haz-map.com/Agents/661",
      "category": "agents"
    },
    {
      "type": "name_match",
      "text": "2,4,5-t",
      "confidence": 1.0,
      "uuid": "e264617e-1fc4-45f5-acbb-36f4d966512f",
      "name": "2,4,5-T",
      "url": "https://haz-map.com/Agents/687",
      "category": "agents"
    },
    {
      "type": "name_match",
      "text": "nitrogen",
      "confidence": 1.0,
      "uuid": "db5e90a9-06d2-45b9-8b81-f345a89b0bc0",
      "name": "Nitrogen",
      "url": "https://haz-map.com/Agents/1072",
      "category": "agents"
    },
    {
      "type": "name_match",
      "text": "pentachloronitrobenzene",
      "confidence": 1.0,
      "uuid": "e0da87cd-8ce6-4e09-8bf2-8ed36b74782e",
      "name": "Pentachloronitrobenzene",
      "url": "https://haz-map.com/Agents/1340",
      "category": "agents"
    },
    {
      "type": "name_match",
      "text": "ht",
      "confidence": 1.0,
      "uuid": "764df367-8d53-4a11-81a2-31ccfe122a8d",
      "name": "HT",
      "url": "https://haz-map.com/Agents/2168",
      "category": "agents"
    },
    {
      "type": "name_match",
      "text": "2,3,4,5-tetrachloronitrobenzene",
      "confidence": 1.0,
      "uuid": "72fe59ff-be54-45be-a89f-eb29823e8166",
      "name": "2,3,4,5-Tetrachloronitrobenzene",
      "url": "https://haz-map.com/Agents/2945",
      "category": "agents"
    },
    {
      "type": "name_match",
      "text": "methemoglobin",
      "confidence": 1.0,
      "uuid": "afb7ebf5-d2a3-4e60-8d2e-3a19456344ee",
      "name": "Methemoglobin",
      "url": "https://haz-map.com/Agents/15467",
      "category": "agents"
    },
    {
      "type": "name_match",
      "text": "1,2,4-trichloro-5-nitrobenzene",
      "confidence": 1.0,
      "uuid": "8ca45b25-04b5-4027-b26e-4f0bf533e720",
      "name": "1,2,4-Trichloro-5-nitrobenzene",
      "url": "https://haz-map.com/Agents/19194",
      "category": "agents"
    },
    {
      "type": "fuzzy_match",
      "text": "methemoglobinemia",
      "matched_name": "Methemoglobinemia, acute",
      "confidence": 0.7208333333333333,
      "uuid": "473a44bd-cf11-4710-a769-e8e2b25ba317",
      "category": "diseases",
      "url": "https://haz-map.com/Diseases/210"
    }
  ],
  "all_links": [
    {
      "text": "Search PubMed",
      "url": "https://www.ncbi.nlm.nih.gov/pubmed?term=1%2c2%2c4-Trichloro-5-nitrobenzene%20AND%20human%5Bmh%5D%20AND%20%28Occupational%20Diseases%20%5Bmh%5D%20OR%20Occupational%20Exposure%20%5Bmh%5D%29%20%20AND%20%28tox%5Bsb%5D%29&cmd=search"
    }
  ]
}