{
  "metadata": {
    "scraped_from": "https://haz-map.com/Agents/10982",
    "entity_name": "L-Camphor",
    "category": "agents",
    "uuid": "8cd3228e-7cc2-4444-84a4-f85bd6d391ee",
    "scraped_at": "2025-07-23T20:54:54.378027"
  },
  "parsed_at": "2025-07-24T00:59:10.089347",
  "title": "L-Camphor",
  "sections": {
    "general": {
      "agent_name": {
        "original_name": "Agent Name",
        "value": "L-Camphor",
        "links": [],
        "cross_references": [
          {
            "type": "name_match",
            "text": "l-camphor",
            "confidence": 1.0,
            "uuid": "8cd3228e-7cc2-4444-84a4-f85bd6d391ee",
            "name": "L-Camphor",
            "url": "https://haz-map.com/Agents/10982",
            "category": "agents"
          }
        ]
      },
      "cas_number": {
        "original_name": "CAS Number",
        "value": "464-48-2",
        "links": [],
        "cross_references": []
      },
      "formula": {
        "original_name": "Formula",
        "value": "C10-H16-O",
        "links": [],
        "cross_references": []
      },
      "major_category": {
        "original_name": "Major Category",
        "value": "Biological Agents",
        "links": [],
        "cross_references": []
      },
      "synonyms": {
        "original_name": "Synonyms",
        "value": "(-)-Alcanfor; l-Camphor; (-)-Bornan-2-one; Bicyclo(2.2.1)heptan-2-one, 1,7,7-trimethyl-, (1S,4S)-; Camphor, (1S,4S)-(-)-; [ChemIDplus] (1S)-(-)-Camphor; [Merck Index] (-)-Camphor; (1S)- 1,7,7-Trimethylbicyclo(2.2.1)heptane-2-one; (1S)-Camphor; Bicyclo(2.2.1)heptan-2-one, 1,7,7-trimethyl-, (1S)-; L-(-)-Camphor; [CAMEO] UN2717",
        "links": [],
        "cross_references": [
          {
            "type": "name_match",
            "text": "l-camphor",
            "confidence": 1.0,
            "uuid": "8cd3228e-7cc2-4444-84a4-f85bd6d391ee",
            "name": "L-Camphor",
            "url": "https://haz-map.com/Agents/10982",
            "category": "agents"
          }
        ]
      },
      "category": {
        "original_name": "Category",
        "value": "Plant Oils and Extracts",
        "links": [],
        "cross_references": []
      },
      "description": {
        "original_name": "Description",
        "value": "Colorless to white solid with a strong fragrant odor; [CAMEO] White powder; [Sigma-Aldrich MSDS]",
        "links": [],
        "cross_references": []
      },
      "sourcesuses": {
        "original_name": "Sources/Uses",
        "value": "Naturally occurring form of camphor; Used in organic synthesis and as an odorant, flavoring agent, moth repellent, preservative, and plasticizer in cosmetics; Also used as a topical analgesic and antipruritic; [Merck Index] Used as a plasticizer for cellulose esters and ethers, to make plastics, cymene, and incense, in lacquers, varnishes, explosives, embalming fluids, pyrotechnics, and insect repellents; [NTP]",
        "links": [],
        "cross_references": [
          {
            "type": "name_match",
            "text": "cellulose",
            "confidence": 1.0,
            "uuid": "b9b1b190-806c-4622-8201-8f09b0a87eca",
            "name": "Cellulose",
            "url": "https://haz-map.com/Agents/347",
            "category": "agents"
          },
          {
            "type": "name_match",
            "text": "moth",
            "confidence": 1.0,
            "uuid": "14a33a40-8ea5-4ef5-b71a-3731a9d4ba32",
            "name": "Moth",
            "url": "https://haz-map.com/Agents/907",
            "category": "agents"
          }
        ]
      },
      "comments": {
        "original_name": "Comments",
        "value": "May cause severe skin, eye, mucous membrane, and upper respiratory tract irritation; May cause CNS depression and other nervous system effects; Harmful by ingestion, inhalation, and skin absorption; [NTP] Causes convulsions in oral lethal-dose studies of rats; [RTECS] Camphor used topically during pregnancy in not likely to cause teratogenic effects; [TERIS] An irritant; Readily absorbed through skin; Targets the liver, kidney, and nerves; Ingestion may cause vertigo, confusion, clonic convulsions, coma, respiratory failure, and death; [Sigma-Aldrich MSDS] See \"Camphor, synthetic.\"",
        "links": [],
        "cross_references": [
          {
            "type": "name_match",
            "text": "convulsion",
            "confidence": 1.0,
            "uuid": "af2c36f8-707a-48e3-a62b-1aa07adc9b72",
            "name": "convulsion",
            "url": "https://haz-map.com/Findings/14",
            "category": "findings"
          },
          {
            "type": "name_match",
            "text": "confusion",
            "confidence": 1.0,
            "uuid": "cc9d5a44-5788-4530-9989-5b190b74590b",
            "name": "confusion",
            "url": "https://haz-map.com/Findings/135",
            "category": "findings"
          },
          {
            "type": "name_match",
            "text": "camphor, synthetic",
            "confidence": 1.0,
            "uuid": "038de6ee-b665-4b04-b190-4aa1c33cb59d",
            "name": "Camphor, synthetic",
            "url": "https://haz-map.com/Agents/338",
            "category": "agents"
          }
        ]
      },
      "biomedical_references": {
        "original_name": "Biomedical References",
        "value": "Search PubMed",
        "links": [
          {
            "text": "Search PubMed",
            "url": "https://www.ncbi.nlm.nih.gov/pubmed?term=L-Camphor%20AND%20human%5Bmh%5D%20AND%20%28Occupational%20Diseases%20%5Bmh%5D%20OR%20Occupational%20Exposure%20%5Bmh%5D%29%20%20AND%20%28tox%5Bsb%5D%29&cmd=search"
          }
        ],
        "cross_references": []
      }
    },
    "exposure_assessment": {
      "vapor_pressure": {
        "original_name": "Vapor Pressure",
        "value": "0.18 mm Hg",
        "links": [],
        "cross_references": []
      },
      "explanatory_notes": {
        "original_name": "Explanatory Notes",
        "value": "The Guide in the Emergency Response Guidebook is for \"Camphor.\"",
        "links": [],
        "cross_references": []
      }
    },
    "adverse_effects": {
      "neurotoxin": {
        "original_name": "Neurotoxin",
        "value": "Other CNS neurotoxin",
        "links": [],
        "cross_references": []
      },
      "hepatotoxin": {
        "original_name": "Hepatotoxin",
        "value": "Hepatoxic (a) from occupational exposure (secondary effect) or (b) in animal studies or in humans after ingestion",
        "links": [],
        "cross_references": []
      }
    },
    "diseases_processes_and_activities_linked_to_this_agent": {
      "processes": {
        "original_name": "Processes",
        "value": "Industrial Processes with risk of exposure: Painting (Pigments, Binders, and Biocides)",
        "links": [
          {
            "text": "Painting (Pigments, Binders, and Biocides)",
            "url": "https://haz-map.com/Processes/145"
          }
        ],
        "cross_references": [
          {
            "type": "url_match",
            "text": "Painting (Pigments, Binders, and Biocides)",
            "url": "https://haz-map.com/Processes/145",
            "confidence": 1.0,
            "uuid": "25867878-e178-4c21-906f-d392d86b76de",
            "name": "Painting (Pigments, Binders, and Biocides)",
            "category": "processes"
          },
          {
            "type": "name_match",
            "text": "painting",
            "confidence": 1.0,
            "uuid": "19816ce9-9edf-4a86-8e64-b0cbf7dcf520",
            "name": "Painting",
            "url": "https://haz-map.com/Activities/9",
            "category": "activities"
          }
        ]
      }
    }
  },
  "cross_references": [
    {
      "type": "url_match",
      "text": "Painting (Pigments, Binders, and Biocides)",
      "url": "https://haz-map.com/Processes/145",
      "confidence": 1.0,
      "uuid": "25867878-e178-4c21-906f-d392d86b76de",
      "name": "Painting (Pigments, Binders, and Biocides)",
      "category": "processes"
    },
    {
      "type": "name_match",
      "text": "painting",
      "confidence": 1.0,
      "uuid": "19816ce9-9edf-4a86-8e64-b0cbf7dcf520",
      "name": "Painting",
      "url": "https://haz-map.com/Activities/9",
      "category": "activities"
    },
    {
      "type": "name_match",
      "text": "convulsion",
      "confidence": 1.0,
      "uuid": "af2c36f8-707a-48e3-a62b-1aa07adc9b72",
      "name": "convulsion",
      "url": "https://haz-map.com/Findings/14",
      "category": "findings"
    },
    {
      "type": "name_match",
      "text": "confusion",
      "confidence": 1.0,
      "uuid": "cc9d5a44-5788-4530-9989-5b190b74590b",
      "name": "confusion",
      "url": "https://haz-map.com/Findings/135",
      "category": "findings"
    },
    {
      "type": "name_match",
      "text": "camphor, synthetic",
      "confidence": 1.0,
      "uuid": "038de6ee-b665-4b04-b190-4aa1c33cb59d",
      "name": "Camphor, synthetic",
      "url": "https://haz-map.com/Agents/338",
      "category": "agents"
    },
    {
      "type": "name_match",
      "text": "cellulose",
      "confidence": 1.0,
      "uuid": "b9b1b190-806c-4622-8201-8f09b0a87eca",
      "name": "Cellulose",
      "url": "https://haz-map.com/Agents/347",
      "category": "agents"
    },
    {
      "type": "name_match",
      "text": "moth",
      "confidence": 1.0,
      "uuid": "14a33a40-8ea5-4ef5-b71a-3731a9d4ba32",
      "name": "Moth",
      "url": "https://haz-map.com/Agents/907",
      "category": "agents"
    },
    {
      "type": "name_match",
      "text": "l-camphor",
      "confidence": 1.0,
      "uuid": "8cd3228e-7cc2-4444-84a4-f85bd6d391ee",
      "name": "L-Camphor",
      "url": "https://haz-map.com/Agents/10982",
      "category": "agents"
    }
  ],
  "all_links": [
    {
      "text": "Search PubMed",
      "url": "https://www.ncbi.nlm.nih.gov/pubmed?term=L-Camphor%20AND%20human%5Bmh%5D%20AND%20%28Occupational%20Diseases%20%5Bmh%5D%20OR%20Occupational%20Exposure%20%5Bmh%5D%29%20%20AND%20%28tox%5Bsb%5D%29&cmd=search"
    },
    {
      "text": "Painting (Pigments, Binders, and Biocides)",
      "url": "https://haz-map.com/Processes/145"
    }
  ]
}