{
  "metadata": {
    "scraped_from": "https://haz-map.com/Agents/21453",
    "entity_name": "2-(2H-Benzotriazol-2-yl)-4,6-di-tert-pentylphenol",
    "category": "agents",
    "uuid": "8d0c6fd8-8e17-413f-b80d-e1ee2b414de2",
    "scraped_at": "2025-07-23T22:44:14.682851"
  },
  "parsed_at": "2025-07-24T01:07:05.969221",
  "title": "2-(2H-Benzotriazol-2-yl)-4,6-di-tert-pentylphenol",
  "sections": {
    "general": {
      "agent_name": {
        "original_name": "Agent Name",
        "value": "2-(2H-Benzotriazol-2-yl)-4,6-di-tert-pentylphenol",
        "links": [],
        "cross_references": [
          {
            "type": "name_match",
            "text": "phenol",
            "confidence": 1.0,
            "uuid": "03141a03-a7df-4f51-9a37-adde1a7c4b31",
            "name": "Phenol",
            "url": "https://haz-map.com/Agents/84",
            "category": "agents"
          },
          {
            "type": "name_match",
            "text": "2-(2h-benzotriazol-2-yl)-4,6-di-tert-pentylphenol",
            "confidence": 1.0,
            "uuid": "8d0c6fd8-8e17-413f-b80d-e1ee2b414de2",
            "name": "2-(2H-Benzotriazol-2-yl)-4,6-di-tert-pentylphenol",
            "url": "https://haz-map.com/Agents/21453",
            "category": "agents"
          }
        ]
      },
      "cas_number": {
        "original_name": "CAS Number",
        "value": "25973-55-1",
        "links": [],
        "cross_references": []
      },
      "formula": {
        "original_name": "Formula",
        "value": "C22-H29-N3-O",
        "links": [],
        "cross_references": []
      },
      "major_category": {
        "original_name": "Major Category",
        "value": "Nitrogen Compounds",
        "links": [],
        "cross_references": [
          {
            "type": "name_match",
            "text": "nitrogen",
            "confidence": 1.0,
            "uuid": "db5e90a9-06d2-45b9-8b81-f345a89b0bc0",
            "name": "Nitrogen",
            "url": "https://haz-map.com/Agents/1072",
            "category": "agents"
          }
        ]
      },
      "synonyms": {
        "original_name": "Synonyms",
        "value": "2-(2H-Benzotriazol-2-yl)-4,6-ditertpentylphenol; Phenol, 2-(2H-benzotriazol-2-yl)-4,6-bis(1,1-dimethylpropyl)-; Phenol, 2-(2H-benzotriazol-2-yl)-4,6-di-tert-pentyl-; [ChemIDplus] 2-(2’-Hydroxy-3’,5’-di-t-amylphenyl) benzotriazole; [Reference #1] 2-(2'-Hydroxy-3',5'-di-tert-amylphenyl)benzotriazole; [FDA] 2-(2H-Benzotriazol-2-yl)-4,6-bis(1,1-dimethylpropyl)phenol; [ECHA REACH Registrations]",
        "links": [],
        "cross_references": [
          {
            "type": "name_match",
            "text": "phenol",
            "confidence": 1.0,
            "uuid": "03141a03-a7df-4f51-9a37-adde1a7c4b31",
            "name": "Phenol",
            "url": "https://haz-map.com/Agents/84",
            "category": "agents"
          },
          {
            "type": "name_match",
            "text": "benzotriazole",
            "confidence": 1.0,
            "uuid": "394b5c1d-ae71-40f8-b4a7-dd9c2be0aa72",
            "name": "Benzotriazole",
            "url": "https://haz-map.com/Agents/1355",
            "category": "agents"
          },
          {
            "type": "name_match",
            "text": "triazole",
            "confidence": 1.0,
            "uuid": "fedd8cf4-8628-4128-9167-4e645af62393",
            "name": "Triazole",
            "url": "https://haz-map.com/Agents/18138",
            "category": "agents"
          }
        ]
      },
      "category": {
        "original_name": "Category",
        "value": "Triazoles",
        "links": [],
        "cross_references": [
          {
            "type": "name_match",
            "text": "triazole",
            "confidence": 1.0,
            "uuid": "fedd8cf4-8628-4128-9167-4e645af62393",
            "name": "Triazole",
            "url": "https://haz-map.com/Agents/18138",
            "category": "agents"
          }
        ]
      },
      "description": {
        "original_name": "Description",
        "value": "Solid; [Sigma-Aldrich MSDS]",
        "links": [],
        "cross_references": []
      },
      "sourcesuses": {
        "original_name": "Sources/Uses",
        "value": "Used to make paints-coatings-thinners, polymers, flexible and rigid foams, adhesives-sealants, and plastic products; [ECHA REACH Registrations] Permitted for use as an inert ingredient in non-food pesticide products; [EPA]",
        "links": [],
        "cross_references": []
      },
      "comments": {
        "original_name": "Comments",
        "value": "Causes fatty liver degeneration, changes in liver weight, and multiple enzyme effects in 90-day constant oral studies of dogs; Causes changes in liver and kidney weights and normocytic anemia in 90-day constant oral studies of rats; [RTECS] Prolonged or repeated oral exposure may cause damage to the liver and kidney; [ECHA REACH Registrations] A skin and strong eye irritant; Targets the liver, kidney, and reproductive system; [Sigma-Aldrich MSDS]",
        "links": [],
        "cross_references": [
          {
            "type": "name_match",
            "text": "anemia",
            "confidence": 1.0,
            "uuid": "be5db7c0-2652-4940-a3d9-d0afb3e2b182",
            "name": "anemia",
            "url": "https://haz-map.com/Findings/54",
            "category": "findings"
          },
          {
            "type": "name_match",
            "text": "ht",
            "confidence": 1.0,
            "uuid": "764df367-8d53-4a11-81a2-31ccfe122a8d",
            "name": "HT",
            "url": "https://haz-map.com/Agents/2168",
            "category": "agents"
          }
        ]
      },
      "biomedical_references": {
        "original_name": "Biomedical References",
        "value": "Search PubMed",
        "links": [
          {
            "text": "Search PubMed",
            "url": "https://www.ncbi.nlm.nih.gov/pubmed?term=2-(2H-Benzotriazol-2-yl)-4%2c6-di-tert-pentylphenol%20AND%20human%5Bmh%5D%20AND%20%28Occupational%20Diseases%20%5Bmh%5D%20OR%20Occupational%20Exposure%20%5Bmh%5D%29%20%20AND%20%28tox%5Bsb%5D%29&cmd=search"
          }
        ],
        "cross_references": []
      }
    },
    "exposure_assessment": {
      "vapor_pressure": {
        "original_name": "Vapor Pressure",
        "value": "1.93E-10 mm Hg",
        "links": [],
        "cross_references": []
      }
    },
    "adverse_effects": {
      "hepatotoxin": {
        "original_name": "Hepatotoxin",
        "value": "Hepatoxic (a) from occupational exposure (secondary effect) or (b) in animal studies or in humans after ingestion",
        "links": [],
        "cross_references": []
      },
      "nephrotoxin": {
        "original_name": "Nephrotoxin",
        "value": "Yes",
        "links": [],
        "cross_references": []
      }
    },
    "diseases_processes_and_activities_linked_to_this_agent": {
      "processes": {
        "original_name": "Processes",
        "value": "Industrial Processes with risk of exposure: Painting (Pigments, Binders, and Biocides) Working with Glues and Adhesives",
        "links": [
          {
            "text": "Painting (Pigments, Binders, and Biocides)",
            "url": "https://haz-map.com/Processes/145"
          },
          {
            "text": "Working with Glues and Adhesives",
            "url": "https://haz-map.com/Processes/155"
          }
        ],
        "cross_references": [
          {
            "type": "url_match",
            "text": "Painting (Pigments, Binders, and Biocides)",
            "url": "https://haz-map.com/Processes/145",
            "confidence": 1.0,
            "uuid": "25867878-e178-4c21-906f-d392d86b76de",
            "name": "Painting (Pigments, Binders, and Biocides)",
            "category": "processes"
          },
          {
            "type": "url_match",
            "text": "Working with Glues and Adhesives",
            "url": "https://haz-map.com/Processes/155",
            "confidence": 1.0,
            "uuid": "acb9084f-52e8-4687-bd6a-bced94bda834",
            "name": "Working with Glues and Adhesives",
            "category": "processes"
          },
          {
            "type": "name_match",
            "text": "painting",
            "confidence": 1.0,
            "uuid": "19816ce9-9edf-4a86-8e64-b0cbf7dcf520",
            "name": "Painting",
            "url": "https://haz-map.com/Activities/9",
            "category": "activities"
          }
        ]
      }
    }
  },
  "cross_references": [
    {
      "type": "url_match",
      "text": "Painting (Pigments, Binders, and Biocides)",
      "url": "https://haz-map.com/Processes/145",
      "confidence": 1.0,
      "uuid": "25867878-e178-4c21-906f-d392d86b76de",
      "name": "Painting (Pigments, Binders, and Biocides)",
      "category": "processes"
    },
    {
      "type": "url_match",
      "text": "Working with Glues and Adhesives",
      "url": "https://haz-map.com/Processes/155",
      "confidence": 1.0,
      "uuid": "acb9084f-52e8-4687-bd6a-bced94bda834",
      "name": "Working with Glues and Adhesives",
      "category": "processes"
    },
    {
      "type": "name_match",
      "text": "painting",
      "confidence": 1.0,
      "uuid": "19816ce9-9edf-4a86-8e64-b0cbf7dcf520",
      "name": "Painting",
      "url": "https://haz-map.com/Activities/9",
      "category": "activities"
    },
    {
      "type": "name_match",
      "text": "anemia",
      "confidence": 1.0,
      "uuid": "be5db7c0-2652-4940-a3d9-d0afb3e2b182",
      "name": "anemia",
      "url": "https://haz-map.com/Findings/54",
      "category": "findings"
    },
    {
      "type": "name_match",
      "text": "phenol",
      "confidence": 1.0,
      "uuid": "03141a03-a7df-4f51-9a37-adde1a7c4b31",
      "name": "Phenol",
      "url": "https://haz-map.com/Agents/84",
      "category": "agents"
    },
    {
      "type": "name_match",
      "text": "nitrogen",
      "confidence": 1.0,
      "uuid": "db5e90a9-06d2-45b9-8b81-f345a89b0bc0",
      "name": "Nitrogen",
      "url": "https://haz-map.com/Agents/1072",
      "category": "agents"
    },
    {
      "type": "name_match",
      "text": "benzotriazole",
      "confidence": 1.0,
      "uuid": "394b5c1d-ae71-40f8-b4a7-dd9c2be0aa72",
      "name": "Benzotriazole",
      "url": "https://haz-map.com/Agents/1355",
      "category": "agents"
    },
    {
      "type": "name_match",
      "text": "ht",
      "confidence": 1.0,
      "uuid": "764df367-8d53-4a11-81a2-31ccfe122a8d",
      "name": "HT",
      "url": "https://haz-map.com/Agents/2168",
      "category": "agents"
    },
    {
      "type": "name_match",
      "text": "triazole",
      "confidence": 1.0,
      "uuid": "fedd8cf4-8628-4128-9167-4e645af62393",
      "name": "Triazole",
      "url": "https://haz-map.com/Agents/18138",
      "category": "agents"
    },
    {
      "type": "name_match",
      "text": "2-(2h-benzotriazol-2-yl)-4,6-di-tert-pentylphenol",
      "confidence": 1.0,
      "uuid": "8d0c6fd8-8e17-413f-b80d-e1ee2b414de2",
      "name": "2-(2H-Benzotriazol-2-yl)-4,6-di-tert-pentylphenol",
      "url": "https://haz-map.com/Agents/21453",
      "category": "agents"
    }
  ],
  "all_links": [
    {
      "text": "Search PubMed",
      "url": "https://www.ncbi.nlm.nih.gov/pubmed?term=2-(2H-Benzotriazol-2-yl)-4%2c6-di-tert-pentylphenol%20AND%20human%5Bmh%5D%20AND%20%28Occupational%20Diseases%20%5Bmh%5D%20OR%20Occupational%20Exposure%20%5Bmh%5D%29%20%20AND%20%28tox%5Bsb%5D%29&cmd=search"
    },
    {
      "text": "Painting (Pigments, Binders, and Biocides)",
      "url": "https://haz-map.com/Processes/145"
    },
    {
      "text": "Working with Glues and Adhesives",
      "url": "https://haz-map.com/Processes/155"
    }
  ]
}