{
  "metadata": {
    "scraped_from": "https://haz-map.com/Agents/134",
    "entity_name": "Methyl cellosolve acetate",
    "category": "agents",
    "uuid": "8df8fdca-e3d2-4c05-8aef-087fc08d663e",
    "scraped_at": "2025-07-23T18:35:40.898498"
  },
  "parsed_at": "2025-07-24T01:06:48.290136",
  "title": "Methyl cellosolve acetate",
  "sections": {
    "general": {
      "agent_name": {
        "original_name": "Agent Name",
        "value": "Methyl cellosolve acetate",
        "links": [],
        "cross_references": [
          {
            "type": "name_match",
            "text": "methyl cellosolve acetate",
            "confidence": 1.0,
            "uuid": "8df8fdca-e3d2-4c05-8aef-087fc08d663e",
            "name": "Methyl cellosolve acetate",
            "url": "https://haz-map.com/Agents/134",
            "category": "agents"
          }
        ]
      },
      "alternative_name": {
        "original_name": "Alternative Name",
        "value": "EGMEA",
        "links": [],
        "cross_references": []
      },
      "cas_number": {
        "original_name": "CAS Number",
        "value": "110-49-6",
        "links": [],
        "cross_references": []
      },
      "formula": {
        "original_name": "Formula",
        "value": "C5-H10-O3",
        "links": [],
        "cross_references": []
      },
      "major_category": {
        "original_name": "Major Category",
        "value": "Solvents",
        "links": [],
        "cross_references": []
      },
      "synonyms": {
        "original_name": "Synonyms",
        "value": "2-Methoxy-ethyl acetaat [Dutch]; 2-Methoxyaethylacetat [German]; 2-Methoxyethanol, acetate; 2-Methoxyethyl acetate; 2-Methoxyethyle, acetate de [French]; 2-Methoxyethylester kyseliny octove [Czech]; 2-Methyoxyethylacetate; 2-Metossietilacetato [Italian];Acetate de l'ether monomethylique de l'ethylene-glycol; [French]; Acetate de methyle glycol [French]; Acetato di metil cellosolve [Italian]; Acetic acid 2-methoxyethyl ester; Acetyl methyl cellosolve; Aethylenglykolmethylaetheracetat [German]; EGMEA; Ethanol, 2-methoxy-, acetate; Ethylene glycol acetate monomethyl ether; Ethylene glycol methyl ether acetate; Ethylene glycol monomethyl ether acetate; Ethylene glycol monomethyl ether monoacetate; Glycol monomethyl ether acetate; MeCsac; Methyl Cellosolve acetate; Methyl cellosolye acetaat [Dutch]; Methyl glycol acetate; Methyl glycol monoacetate; Methylcellosolveacetate; Methylcelosolvacetat [Czech]; Methylglycolacetate; Methylglykolacetat [German]; beta-Methoxyethyl acetate; [ChemIDplus] UN1189",
        "links": [],
        "cross_references": [
          {
            "type": "name_match",
            "text": "2-methoxyethanol",
            "confidence": 1.0,
            "uuid": "4eb8363e-151a-4fa4-8585-0ea740d2a76b",
            "name": "2-Methoxyethanol",
            "url": "https://haz-map.com/Agents/133",
            "category": "agents"
          },
          {
            "type": "name_match",
            "text": "methyl cellosolve acetate",
            "confidence": 1.0,
            "uuid": "8df8fdca-e3d2-4c05-8aef-087fc08d663e",
            "name": "Methyl cellosolve acetate",
            "url": "https://haz-map.com/Agents/134",
            "category": "agents"
          },
          {
            "type": "name_match",
            "text": "acetic acid",
            "confidence": 1.0,
            "uuid": "0905c6e4-df84-4895-a92d-658819239bbd",
            "name": "Acetic acid",
            "url": "https://haz-map.com/Agents/207",
            "category": "agents"
          },
          {
            "type": "name_match",
            "text": "ethyl ether",
            "confidence": 1.0,
            "uuid": "c95edddc-9ad3-44f8-bafa-78e0bd19db3a",
            "name": "Ethyl ether",
            "url": "https://haz-map.com/Agents/455",
            "category": "agents"
          },
          {
            "type": "name_match",
            "text": "ethylene glycol",
            "confidence": 1.0,
            "uuid": "99589035-d71c-415a-914c-81c7a166be11",
            "name": "Ethylene glycol",
            "url": "https://haz-map.com/Agents/488",
            "category": "agents"
          },
          {
            "type": "name_match",
            "text": "ethyl acetate",
            "confidence": 1.0,
            "uuid": "ed41957a-17a2-415b-87b5-5893e3fa08ad",
            "name": "Ethyl acetate",
            "url": "https://haz-map.com/Agents/721",
            "category": "agents"
          },
          {
            "type": "name_match",
            "text": "ethylene",
            "confidence": 1.0,
            "uuid": "958eacc0-5135-4b62-bb93-6df972bf552f",
            "name": "Ethylene",
            "url": "https://haz-map.com/Agents/1076",
            "category": "agents"
          },
          {
            "type": "name_match",
            "text": "tali",
            "confidence": 1.0,
            "uuid": "8c3a0f99-2143-4122-b539-ec5cc49596b0",
            "name": "Tali",
            "url": "https://haz-map.com/Agents/1128",
            "category": "agents"
          },
          {
            "type": "name_match",
            "text": "methoxyethanol",
            "confidence": 1.0,
            "uuid": "dea70ce5-4833-4625-9404-a494d1b23b98",
            "name": "Methoxyethanol",
            "url": "https://haz-map.com/Agents/15478",
            "category": "agents"
          }
        ]
      },
      "category": {
        "original_name": "Category",
        "value": "Glycol Ethers (E Series)",
        "links": [],
        "cross_references": [
          {
            "type": "name_match",
            "text": "glycol ethers",
            "confidence": 1.0,
            "uuid": "753cf9f5-dc59-44ba-9fd6-38aca4a3cdac",
            "name": "GLYCOL ETHERS",
            "url": "https://haz-map.com/Agents/688",
            "category": "agents"
          }
        ]
      },
      "description": {
        "original_name": "Description",
        "value": "Colorless liquid with a pleasant odor; [CAMEO]",
        "links": [],
        "cross_references": []
      },
      "sourcesuses": {
        "original_name": "Sources/Uses",
        "value": "Used as a solvent and in the production of photographic films and textile printing; [ACGIH]",
        "links": [],
        "cross_references": []
      },
      "comments": {
        "original_name": "Comments",
        "value": "After repeated 8-hour exposures to 200-1000 ppm, animals show evidence of kidney and bone marrow damage. [ACGIH] For ethylene glycol ethers, there is limited positive evidence of spontaneous abortions and decreased sperm counts in humans and strong positive evidence of birth defects and testicular damage in animals. [ATSDR Case Studies # 29] Potential adverse effects include injury to the bone marrow, kidneys, and CNS (unconsciousness). May be a reproductive toxin and defat the skin; [ICSC] See \"Glycol ethers.\"",
        "links": [],
        "cross_references": [
          {
            "type": "name_match",
            "text": "ethylene glycol",
            "confidence": 1.0,
            "uuid": "99589035-d71c-415a-914c-81c7a166be11",
            "name": "Ethylene glycol",
            "url": "https://haz-map.com/Agents/488",
            "category": "agents"
          },
          {
            "type": "name_match",
            "text": "glycol ethers",
            "confidence": 1.0,
            "uuid": "753cf9f5-dc59-44ba-9fd6-38aca4a3cdac",
            "name": "GLYCOL ETHERS",
            "url": "https://haz-map.com/Agents/688",
            "category": "agents"
          },
          {
            "type": "name_match",
            "text": "ethylene",
            "confidence": 1.0,
            "uuid": "958eacc0-5135-4b62-bb93-6df972bf552f",
            "name": "Ethylene",
            "url": "https://haz-map.com/Agents/1076",
            "category": "agents"
          }
        ]
      },
      "restricted": {
        "original_name": "Restricted",
        "value": "The Semiconductor Industry Association recommends elimination of this solvent because of potential reproductive effects. [CHS, p. 43]",
        "links": [],
        "cross_references": []
      },
      "biomedical_references": {
        "original_name": "Biomedical References",
        "value": "Search PubMed",
        "links": [
          {
            "text": "Search PubMed",
            "url": "https://www.ncbi.nlm.nih.gov/pubmed?term=Methyl+cellosolve+acetate%20AND%20human%5Bmh%5D%20AND%20%28Occupational%20Diseases%20%5Bmh%5D%20OR%20Occupational%20Exposure%20%5Bmh%5D%29%20%20AND%20%28tox%5Bsb%5D%29&cmd=search"
          }
        ],
        "cross_references": []
      }
    },
    "exposure_assessment": {
      "bei": {
        "original_name": "BEI",
        "value": "2-Methoxyacetic acid in urine = 1 mg/g creatinine; end of shift at end of workweek; [ACGIH]",
        "links": [],
        "cross_references": [
          {
            "type": "name_match",
            "text": "acetic acid",
            "confidence": 1.0,
            "uuid": "0905c6e4-df84-4895-a92d-658819239bbd",
            "name": "Acetic acid",
            "url": "https://haz-map.com/Agents/207",
            "category": "agents"
          },
          {
            "type": "name_match",
            "text": "methoxyacetic acid",
            "confidence": 1.0,
            "uuid": "58a7528e-2d9f-4a55-8b38-ad8cd55aabf5",
            "name": "Methoxyacetic acid",
            "url": "https://haz-map.com/Agents/7850",
            "category": "agents"
          },
          {
            "type": "name_match",
            "text": "ethoxyacetic acid",
            "confidence": 1.0,
            "uuid": "bd10ef10-7b1d-4f60-abbd-e0b39c1930a9",
            "name": "Ethoxyacetic acid",
            "url": "https://haz-map.com/Agents/8354",
            "category": "agents"
          },
          {
            "type": "name_match",
            "text": "creatinine",
            "confidence": 1.0,
            "uuid": "c7666d7f-1833-440d-aa4b-af286e0bdd66",
            "name": "Creatinine",
            "url": "https://haz-map.com/Agents/13323",
            "category": "agents"
          }
        ]
      },
      "skin_designation_acgih": {
        "original_name": "Skin Designation (ACGIH)",
        "value": "Yes",
        "links": [],
        "cross_references": []
      },
      "tlv_acgih": {
        "original_name": "TLV (ACGIH)",
        "value": "0.1 ppm",
        "links": [],
        "cross_references": []
      },
      "pel_osha": {
        "original_name": "PEL (OSHA)",
        "value": "25 ppm",
        "links": [],
        "cross_references": []
      },
      "mak": {
        "original_name": "MAK",
        "value": "1 ppm, sum of concentrations of CAS 109-86-4 and its acetate in air",
        "links": [],
        "cross_references": []
      },
      "idlh_niosh": {
        "original_name": "IDLH (NIOSH)",
        "value": "200 ppm",
        "links": [],
        "cross_references": []
      },
      "excerpts_from_documentation_for_idlhs": {
        "original_name": "Excerpts from Documentation for IDLHs",
        "value": "Human data: It has been stated that methyl Cellosolve® acetate is slightly less toxic than methyl Cellosolve® [Gosselin et al. 1984].",
        "links": [],
        "cross_references": [
          {
            "type": "name_match",
            "text": "ht",
            "confidence": 1.0,
            "uuid": "764df367-8d53-4a11-81a2-31ccfe122a8d",
            "name": "HT",
            "url": "https://haz-map.com/Agents/2168",
            "category": "agents"
          }
        ]
      },
      "vapor_pressure": {
        "original_name": "Vapor Pressure",
        "value": "7 mm Hg",
        "links": [],
        "cross_references": []
      },
      "odor_threshold_low": {
        "original_name": "Odor Threshold Low",
        "value": "0.33 ppm",
        "links": [],
        "cross_references": []
      },
      "odor_threshold_high": {
        "original_name": "Odor Threshold High",
        "value": "0.64 ppm",
        "links": [],
        "cross_references": []
      },
      "lethal_concentration": {
        "original_name": "Lethal Concentration",
        "value": "LCLo (rat) = 7,000 ppm/4 hr",
        "links": [],
        "cross_references": []
      },
      "explanatory_notes": {
        "original_name": "Explanatory Notes",
        "value": "Detection odor threshold from AIHA (mean = 0.33 ppm); Flash point = 111 deg F; VP from HSDB;",
        "links": [],
        "cross_references": [
          {
            "type": "name_match",
            "text": "ash",
            "confidence": 1.0,
            "uuid": "68b360f1-5ad0-4337-bea0-d7adca2961b5",
            "name": "Ash",
            "url": "https://haz-map.com/Agents/965",
            "category": "agents"
          }
        ]
      },
      "reference_link_2": {
        "original_name": "Reference Link #2",
        "value": "ICSC: Methoxyethyl acetate",
        "links": [
          {
            "text": "ICSC: Methoxyethyl acetate",
            "url": "https://www.ilo.org/dyn/icsc/showcard.home"
          }
        ],
        "cross_references": [
          {
            "type": "name_match",
            "text": "ethyl acetate",
            "confidence": 1.0,
            "uuid": "ed41957a-17a2-415b-87b5-5893e3fa08ad",
            "name": "Ethyl acetate",
            "url": "https://haz-map.com/Agents/721",
            "category": "agents"
          }
        ]
      },
      "nfpa": {
        "original_name": "NFPA",
        "value": "high ambient temp required",
        "links": [],
        "cross_references": []
      }
    },
    "adverse_effects": {
      "neurotoxin": {
        "original_name": "Neurotoxin",
        "value": "Acute solvent syndrome",
        "links": [],
        "cross_references": []
      },
      "hepatotoxin": {
        "original_name": "Hepatotoxin",
        "value": "Hepatoxic (a) from occupational exposure (secondary effect) or (b) in animal studies or in humans after ingestion",
        "links": [],
        "cross_references": []
      },
      "nephrotoxin": {
        "original_name": "Nephrotoxin",
        "value": "Yes",
        "links": [],
        "cross_references": []
      },
      "reproductive_toxin": {
        "original_name": "Reproductive Toxin",
        "value": "Yes",
        "links": [],
        "cross_references": []
      }
    },
    "diseases_processes_and_activities_linked_to_this_agent": {
      "diseases": {
        "original_name": "Diseases",
        "value": "Occupational diseases associated with exposure to this agent: Solvents, acute toxic effect",
        "links": [
          {
            "text": "Solvents, acute toxic effect",
            "url": "https://haz-map.com/Diseases/326"
          }
        ],
        "cross_references": [
          {
            "type": "url_match",
            "text": "Solvents, acute toxic effect",
            "url": "https://haz-map.com/Diseases/326",
            "confidence": 1.0,
            "uuid": "581e90e3-9d0c-45f0-aa6c-3468c28da129",
            "name": "Solvents, acute toxic effect",
            "category": "diseases"
          }
        ]
      },
      "processes": {
        "original_name": "Processes",
        "value": "Industrial Processes with risk of exposure: Semiconductor Manufacturing Textiles (Printing, Dyeing, or Finishing)",
        "links": [
          {
            "text": "Semiconductor Manufacturing",
            "url": "https://haz-map.com/Processes/97"
          },
          {
            "text": "Textiles (Printing, Dyeing, or Finishing)",
            "url": "https://haz-map.com/Processes/235"
          }
        ],
        "cross_references": [
          {
            "type": "url_match",
            "text": "Semiconductor Manufacturing",
            "url": "https://haz-map.com/Processes/97",
            "confidence": 1.0,
            "uuid": "a1adedb7-a724-4539-9aff-c43b42706b89",
            "name": "Semiconductor Manufacturing",
            "category": "processes"
          }
        ]
      }
    }
  },
  "cross_references": [
    {
      "type": "url_match",
      "text": "Solvents, acute toxic effect",
      "url": "https://haz-map.com/Diseases/326",
      "confidence": 1.0,
      "uuid": "581e90e3-9d0c-45f0-aa6c-3468c28da129",
      "name": "Solvents, acute toxic effect",
      "category": "diseases"
    },
    {
      "type": "url_match",
      "text": "Semiconductor Manufacturing",
      "url": "https://haz-map.com/Processes/97",
      "confidence": 1.0,
      "uuid": "a1adedb7-a724-4539-9aff-c43b42706b89",
      "name": "Semiconductor Manufacturing",
      "category": "processes"
    },
    {
      "type": "name_match",
      "text": "2-methoxyethanol",
      "confidence": 1.0,
      "uuid": "4eb8363e-151a-4fa4-8585-0ea740d2a76b",
      "name": "2-Methoxyethanol",
      "url": "https://haz-map.com/Agents/133",
      "category": "agents"
    },
    {
      "type": "name_match",
      "text": "methyl cellosolve acetate",
      "confidence": 1.0,
      "uuid": "8df8fdca-e3d2-4c05-8aef-087fc08d663e",
      "name": "Methyl cellosolve acetate",
      "url": "https://haz-map.com/Agents/134",
      "category": "agents"
    },
    {
      "type": "name_match",
      "text": "acetic acid",
      "confidence": 1.0,
      "uuid": "0905c6e4-df84-4895-a92d-658819239bbd",
      "name": "Acetic acid",
      "url": "https://haz-map.com/Agents/207",
      "category": "agents"
    },
    {
      "type": "name_match",
      "text": "ethyl ether",
      "confidence": 1.0,
      "uuid": "c95edddc-9ad3-44f8-bafa-78e0bd19db3a",
      "name": "Ethyl ether",
      "url": "https://haz-map.com/Agents/455",
      "category": "agents"
    },
    {
      "type": "name_match",
      "text": "ethylene glycol",
      "confidence": 1.0,
      "uuid": "99589035-d71c-415a-914c-81c7a166be11",
      "name": "Ethylene glycol",
      "url": "https://haz-map.com/Agents/488",
      "category": "agents"
    },
    {
      "type": "name_match",
      "text": "glycol ethers",
      "confidence": 1.0,
      "uuid": "753cf9f5-dc59-44ba-9fd6-38aca4a3cdac",
      "name": "GLYCOL ETHERS",
      "url": "https://haz-map.com/Agents/688",
      "category": "agents"
    },
    {
      "type": "name_match",
      "text": "ethyl acetate",
      "confidence": 1.0,
      "uuid": "ed41957a-17a2-415b-87b5-5893e3fa08ad",
      "name": "Ethyl acetate",
      "url": "https://haz-map.com/Agents/721",
      "category": "agents"
    },
    {
      "type": "name_match",
      "text": "ash",
      "confidence": 1.0,
      "uuid": "68b360f1-5ad0-4337-bea0-d7adca2961b5",
      "name": "Ash",
      "url": "https://haz-map.com/Agents/965",
      "category": "agents"
    },
    {
      "type": "name_match",
      "text": "ethylene",
      "confidence": 1.0,
      "uuid": "958eacc0-5135-4b62-bb93-6df972bf552f",
      "name": "Ethylene",
      "url": "https://haz-map.com/Agents/1076",
      "category": "agents"
    },
    {
      "type": "name_match",
      "text": "tali",
      "confidence": 1.0,
      "uuid": "8c3a0f99-2143-4122-b539-ec5cc49596b0",
      "name": "Tali",
      "url": "https://haz-map.com/Agents/1128",
      "category": "agents"
    },
    {
      "type": "name_match",
      "text": "ht",
      "confidence": 1.0,
      "uuid": "764df367-8d53-4a11-81a2-31ccfe122a8d",
      "name": "HT",
      "url": "https://haz-map.com/Agents/2168",
      "category": "agents"
    },
    {
      "type": "name_match",
      "text": "methoxyacetic acid",
      "confidence": 1.0,
      "uuid": "58a7528e-2d9f-4a55-8b38-ad8cd55aabf5",
      "name": "Methoxyacetic acid",
      "url": "https://haz-map.com/Agents/7850",
      "category": "agents"
    },
    {
      "type": "name_match",
      "text": "ethoxyacetic acid",
      "confidence": 1.0,
      "uuid": "bd10ef10-7b1d-4f60-abbd-e0b39c1930a9",
      "name": "Ethoxyacetic acid",
      "url": "https://haz-map.com/Agents/8354",
      "category": "agents"
    },
    {
      "type": "name_match",
      "text": "creatinine",
      "confidence": 1.0,
      "uuid": "c7666d7f-1833-440d-aa4b-af286e0bdd66",
      "name": "Creatinine",
      "url": "https://haz-map.com/Agents/13323",
      "category": "agents"
    },
    {
      "type": "name_match",
      "text": "methoxyethanol",
      "confidence": 1.0,
      "uuid": "dea70ce5-4833-4625-9404-a494d1b23b98",
      "name": "Methoxyethanol",
      "url": "https://haz-map.com/Agents/15478",
      "category": "agents"
    }
  ],
  "all_links": [
    {
      "text": "Search PubMed",
      "url": "https://www.ncbi.nlm.nih.gov/pubmed?term=Methyl+cellosolve+acetate%20AND%20human%5Bmh%5D%20AND%20%28Occupational%20Diseases%20%5Bmh%5D%20OR%20Occupational%20Exposure%20%5Bmh%5D%29%20%20AND%20%28tox%5Bsb%5D%29&cmd=search"
    },
    {
      "text": "ICSC: Methoxyethyl acetate",
      "url": "https://www.ilo.org/dyn/icsc/showcard.home"
    },
    {
      "text": "Solvents, acute toxic effect",
      "url": "https://haz-map.com/Diseases/326"
    },
    {
      "text": "Semiconductor Manufacturing",
      "url": "https://haz-map.com/Processes/97"
    },
    {
      "text": "Textiles (Printing, Dyeing, or Finishing)",
      "url": "https://haz-map.com/Processes/235"
    }
  ]
}