{
  "metadata": {
    "scraped_from": "https://haz-map.com/Agents/20611",
    "entity_name": "Dimethyl (2-oxopropyl)phosphonate",
    "category": "agents",
    "uuid": "8e1785a3-7151-44f5-9961-cffc3e484a3c",
    "scraped_at": "2025-07-23T22:28:29.515642"
  },
  "parsed_at": "2025-07-24T01:06:13.624135",
  "title": "Dimethyl (2-oxopropyl)phosphonate",
  "sections": {
    "general": {
      "agent_name": {
        "original_name": "Agent Name",
        "value": "Dimethyl (2-oxopropyl)phosphonate",
        "links": [],
        "cross_references": [
          {
            "type": "name_match",
            "text": "dimethyl (2-oxopropyl)phosphonate",
            "confidence": 1.0,
            "uuid": "8e1785a3-7151-44f5-9961-cffc3e484a3c",
            "name": "Dimethyl (2-oxopropyl)phosphonate",
            "url": "https://haz-map.com/Agents/20611",
            "category": "agents"
          }
        ]
      },
      "cas_number": {
        "original_name": "CAS Number",
        "value": "4202-14-6",
        "links": [],
        "cross_references": []
      },
      "formula": {
        "original_name": "Formula",
        "value": "C5-H11-O4-P",
        "links": [],
        "cross_references": []
      },
      "major_category": {
        "original_name": "Major Category",
        "value": "Other Classes",
        "links": [],
        "cross_references": []
      },
      "synonyms": {
        "original_name": "Synonyms",
        "value": "Dimethyl 2-oxopropylphosphonate; Dimethyl acetonylphosphonate; [Sigma-Aldrich MSDS]",
        "links": [],
        "cross_references": []
      },
      "category": {
        "original_name": "Category",
        "value": "Organophosphates, Other",
        "links": [],
        "cross_references": [
          {
            "type": "name_match",
            "text": "organophosphates",
            "confidence": 1.0,
            "uuid": "8d2d239c-20f9-4f02-9916-5e7667b9990c",
            "name": "ORGANOPHOSPHATES",
            "url": "https://haz-map.com/Agents/702",
            "category": "agents"
          }
        ]
      },
      "description": {
        "original_name": "Description",
        "value": "Clear light yellow liquid; [Sigma-Aldrich MSDS]",
        "links": [],
        "cross_references": [
          {
            "type": "name_match",
            "text": "ht",
            "confidence": 1.0,
            "uuid": "764df367-8d53-4a11-81a2-31ccfe122a8d",
            "name": "HT",
            "url": "https://haz-map.com/Agents/2168",
            "category": "agents"
          }
        ]
      },
      "comments": {
        "original_name": "Comments",
        "value": "May cause irritation; [Sigma-Aldrich MSDS] See \"Dimethyl methylphosphonate,\" \"Diisopropyl methylphosphonate,\" and \"Diethyl ethylphosphonate.\"",
        "links": [],
        "cross_references": [
          {
            "type": "name_match",
            "text": "diethyl ethylphosphonate",
            "confidence": 1.0,
            "uuid": "acd65475-8273-4e0d-a8c8-9a08254550cd",
            "name": "Diethyl ethylphosphonate",
            "url": "https://haz-map.com/Agents/4844",
            "category": "agents"
          },
          {
            "type": "name_match",
            "text": "diisopropyl methylphosphonate",
            "confidence": 1.0,
            "uuid": "cd92db16-4be1-482c-8020-e61c1426fb90",
            "name": "Diisopropyl methylphosphonate",
            "url": "https://haz-map.com/Agents/4908",
            "category": "agents"
          },
          {
            "type": "name_match",
            "text": "dimethyl methylphosphonate",
            "confidence": 1.0,
            "uuid": "6732b8a8-aac0-4ad7-8de5-62eef4b3d04b",
            "name": "Dimethyl methylphosphonate",
            "url": "https://haz-map.com/Agents/4952",
            "category": "agents"
          },
          {
            "type": "name_match",
            "text": "ethyl methylphosphonate",
            "confidence": 1.0,
            "uuid": "857e0fbc-0e5d-4936-9be9-3a9076ca604d",
            "name": "Ethyl methylphosphonate",
            "url": "https://haz-map.com/Agents/15536",
            "category": "agents"
          }
        ]
      },
      "biomedical_references": {
        "original_name": "Biomedical References",
        "value": "Search PubMed",
        "links": [
          {
            "text": "Search PubMed",
            "url": "https://www.ncbi.nlm.nih.gov/pubmed?term=Dimethyl+(2-oxopropyl)phosphonate%20AND%20human%5Bmh%5D%20AND%20%28Occupational%20Diseases%20%5Bmh%5D%20OR%20Occupational%20Exposure%20%5Bmh%5D%29%20%20AND%20%28tox%5Bsb%5D%29&cmd=search"
          }
        ],
        "cross_references": []
      }
    },
    "exposure_assessment": {
      "vapor_pressure": {
        "original_name": "Vapor Pressure",
        "value": "0.072 mm Hg",
        "links": [],
        "cross_references": []
      }
    },
    "diseases_processes_and_activities_linked_to_this_agent": {
      "other_information": {
        "original_name": "Other Information",
        "value": "No other related information on this agent was found.",
        "links": [],
        "cross_references": []
      }
    }
  },
  "cross_references": [
    {
      "type": "name_match",
      "text": "organophosphates",
      "confidence": 1.0,
      "uuid": "8d2d239c-20f9-4f02-9916-5e7667b9990c",
      "name": "ORGANOPHOSPHATES",
      "url": "https://haz-map.com/Agents/702",
      "category": "agents"
    },
    {
      "type": "name_match",
      "text": "ht",
      "confidence": 1.0,
      "uuid": "764df367-8d53-4a11-81a2-31ccfe122a8d",
      "name": "HT",
      "url": "https://haz-map.com/Agents/2168",
      "category": "agents"
    },
    {
      "type": "name_match",
      "text": "diethyl ethylphosphonate",
      "confidence": 1.0,
      "uuid": "acd65475-8273-4e0d-a8c8-9a08254550cd",
      "name": "Diethyl ethylphosphonate",
      "url": "https://haz-map.com/Agents/4844",
      "category": "agents"
    },
    {
      "type": "name_match",
      "text": "diisopropyl methylphosphonate",
      "confidence": 1.0,
      "uuid": "cd92db16-4be1-482c-8020-e61c1426fb90",
      "name": "Diisopropyl methylphosphonate",
      "url": "https://haz-map.com/Agents/4908",
      "category": "agents"
    },
    {
      "type": "name_match",
      "text": "dimethyl methylphosphonate",
      "confidence": 1.0,
      "uuid": "6732b8a8-aac0-4ad7-8de5-62eef4b3d04b",
      "name": "Dimethyl methylphosphonate",
      "url": "https://haz-map.com/Agents/4952",
      "category": "agents"
    },
    {
      "type": "name_match",
      "text": "ethyl methylphosphonate",
      "confidence": 1.0,
      "uuid": "857e0fbc-0e5d-4936-9be9-3a9076ca604d",
      "name": "Ethyl methylphosphonate",
      "url": "https://haz-map.com/Agents/15536",
      "category": "agents"
    },
    {
      "type": "name_match",
      "text": "dimethyl (2-oxopropyl)phosphonate",
      "confidence": 1.0,
      "uuid": "8e1785a3-7151-44f5-9961-cffc3e484a3c",
      "name": "Dimethyl (2-oxopropyl)phosphonate",
      "url": "https://haz-map.com/Agents/20611",
      "category": "agents"
    }
  ],
  "all_links": [
    {
      "text": "Search PubMed",
      "url": "https://www.ncbi.nlm.nih.gov/pubmed?term=Dimethyl+(2-oxopropyl)phosphonate%20AND%20human%5Bmh%5D%20AND%20%28Occupational%20Diseases%20%5Bmh%5D%20OR%20Occupational%20Exposure%20%5Bmh%5D%29%20%20AND%20%28tox%5Bsb%5D%29&cmd=search"
    }
  ]
}