{
  "metadata": {
    "scraped_from": "https://haz-map.com/Agents/19205",
    "entity_name": "alpha-Butylene dibromide",
    "category": "agents",
    "uuid": "8ea6928c-c863-4406-b739-cf1fee4d7a57",
    "scraped_at": "2025-07-23T22:01:25.280076"
  },
  "parsed_at": "2025-07-24T00:59:10.255932",
  "title": "alpha-Butylene dibromide",
  "sections": {
    "general": {
      "agent_name": {
        "original_name": "Agent Name",
        "value": "alpha-Butylene dibromide",
        "links": [],
        "cross_references": [
          {
            "type": "name_match",
            "text": "alpha-butylene dibromide",
            "confidence": 1.0,
            "uuid": "8ea6928c-c863-4406-b739-cf1fee4d7a57",
            "name": "alpha-Butylene dibromide",
            "url": "https://haz-map.com/Agents/19205",
            "category": "agents"
          }
        ]
      },
      "alternative_name": {
        "original_name": "Alternative Name",
        "value": "1,2-Dibromobutane",
        "links": [],
        "cross_references": []
      },
      "cas_number": {
        "original_name": "CAS Number",
        "value": "533-98-2",
        "links": [],
        "cross_references": []
      },
      "formula": {
        "original_name": "Formula",
        "value": "C4-H8-Br2",
        "links": [],
        "cross_references": []
      },
      "major_category": {
        "original_name": "Major Category",
        "value": "Other Classes",
        "links": [],
        "cross_references": []
      },
      "synonyms": {
        "original_name": "Synonyms",
        "value": "1,2-Dibromobutane; Butane, 1,2-dibromo-; [ChemIDplus]",
        "links": [],
        "cross_references": []
      },
      "category": {
        "original_name": "Category",
        "value": "Halogenated Aliphatics, Saturated",
        "links": [],
        "cross_references": []
      },
      "description": {
        "original_name": "Description",
        "value": "Yellowish liquid; [Merck Index] Colorless liquid; [Sigma-Aldrich MSDS]",
        "links": [],
        "cross_references": []
      },
      "comments": {
        "original_name": "Comments",
        "value": "A skin and strong eye irritant; Harmful by ingestion, inhalation, and skin absorption; [Sigma-Aldrich MSDS] See \"2-Bromobutane\" and 1-Bromopropane.\"",
        "links": [],
        "cross_references": [
          {
            "type": "name_match",
            "text": "propane",
            "confidence": 1.0,
            "uuid": "563a611b-46ea-4bdc-b77b-17d8f7646283",
            "name": "Propane",
            "url": "https://haz-map.com/Agents/607",
            "category": "agents"
          },
          {
            "type": "name_match",
            "text": "1-bromopropane",
            "confidence": 1.0,
            "uuid": "dec7d8e2-7871-42a6-980a-cdac3431b37e",
            "name": "1-Bromopropane",
            "url": "https://haz-map.com/Agents/1646",
            "category": "agents"
          },
          {
            "type": "name_match",
            "text": "2-bromobutane",
            "confidence": 1.0,
            "uuid": "5ed7bd5e-675c-4985-a03b-571bc69ee9b7",
            "name": "2-Bromobutane",
            "url": "https://haz-map.com/Agents/3077",
            "category": "agents"
          }
        ]
      },
      "biomedical_references": {
        "original_name": "Biomedical References",
        "value": "Search PubMed",
        "links": [
          {
            "text": "Search PubMed",
            "url": "https://www.ncbi.nlm.nih.gov/pubmed?term=alpha-Butylene+dibromide%20AND%20human%5Bmh%5D%20AND%20%28Occupational%20Diseases%20%5Bmh%5D%20OR%20Occupational%20Exposure%20%5Bmh%5D%29%20%20AND%20%28tox%5Bsb%5D%29&cmd=search"
          }
        ],
        "cross_references": []
      }
    },
    "exposure_assessment": {
      "vapor_pressure": {
        "original_name": "Vapor Pressure",
        "value": "3.1 mm Hg",
        "links": [],
        "cross_references": []
      }
    },
    "diseases_processes_and_activities_linked_to_this_agent": {
      "other_information": {
        "original_name": "Other Information",
        "value": "No other related information on this agent was found.",
        "links": [],
        "cross_references": []
      }
    }
  },
  "cross_references": [
    {
      "type": "name_match",
      "text": "propane",
      "confidence": 1.0,
      "uuid": "563a611b-46ea-4bdc-b77b-17d8f7646283",
      "name": "Propane",
      "url": "https://haz-map.com/Agents/607",
      "category": "agents"
    },
    {
      "type": "name_match",
      "text": "1-bromopropane",
      "confidence": 1.0,
      "uuid": "dec7d8e2-7871-42a6-980a-cdac3431b37e",
      "name": "1-Bromopropane",
      "url": "https://haz-map.com/Agents/1646",
      "category": "agents"
    },
    {
      "type": "name_match",
      "text": "2-bromobutane",
      "confidence": 1.0,
      "uuid": "5ed7bd5e-675c-4985-a03b-571bc69ee9b7",
      "name": "2-Bromobutane",
      "url": "https://haz-map.com/Agents/3077",
      "category": "agents"
    },
    {
      "type": "name_match",
      "text": "alpha-butylene dibromide",
      "confidence": 1.0,
      "uuid": "8ea6928c-c863-4406-b739-cf1fee4d7a57",
      "name": "alpha-Butylene dibromide",
      "url": "https://haz-map.com/Agents/19205",
      "category": "agents"
    }
  ],
  "all_links": [
    {
      "text": "Search PubMed",
      "url": "https://www.ncbi.nlm.nih.gov/pubmed?term=alpha-Butylene+dibromide%20AND%20human%5Bmh%5D%20AND%20%28Occupational%20Diseases%20%5Bmh%5D%20OR%20Occupational%20Exposure%20%5Bmh%5D%29%20%20AND%20%28tox%5Bsb%5D%29&cmd=search"
    }
  ]
}