{
  "metadata": {
    "scraped_from": "https://haz-map.com/Agents/20557",
    "entity_name": "Dibenzylamine",
    "category": "agents",
    "uuid": "8efd13a4-c06a-4267-9d86-303ca7e86ccc",
    "scraped_at": "2025-07-23T22:27:25.364739"
  },
  "parsed_at": "2025-07-24T00:57:24.875575",
  "title": "Dibenzylamine",
  "sections": {
    "general": {
      "agent_name": {
        "original_name": "Agent Name",
        "value": "Dibenzylamine",
        "links": [],
        "cross_references": [
          {
            "type": "name_match",
            "text": "benzylamine",
            "confidence": 1.0,
            "uuid": "e3ff102c-c372-46ae-ab9f-a1fd3d630249",
            "name": "Benzylamine",
            "url": "https://haz-map.com/Agents/1380",
            "category": "agents"
          },
          {
            "type": "name_match",
            "text": "dibenzylamine",
            "confidence": 1.0,
            "uuid": "8efd13a4-c06a-4267-9d86-303ca7e86ccc",
            "name": "Dibenzylamine",
            "url": "https://haz-map.com/Agents/20557",
            "category": "agents"
          }
        ]
      },
      "cas_number": {
        "original_name": "CAS Number",
        "value": "103-49-1",
        "links": [],
        "cross_references": []
      },
      "formula": {
        "original_name": "Formula",
        "value": "C14-H15-N",
        "links": [],
        "cross_references": []
      },
      "major_category": {
        "original_name": "Major Category",
        "value": "Nitrogen Compounds",
        "links": [],
        "cross_references": [
          {
            "type": "name_match",
            "text": "nitrogen",
            "confidence": 1.0,
            "uuid": "db5e90a9-06d2-45b9-8b81-f345a89b0bc0",
            "name": "Nitrogen",
            "url": "https://haz-map.com/Agents/1072",
            "category": "agents"
          }
        ]
      },
      "synonyms": {
        "original_name": "Synonyms",
        "value": "(N-Benzylaminomethyl)benzene; Bibenzylamine; DBA; DBA (VAN); N,N-Dibenzylamine; N-(Phenylmethyl)benzenemethanamine; N-Benzylbenzylamine; Benzenemethanamine, N-(phenylmethyl)-; [ChemIDplus] 1-Phenyl-N-(phenylmethyl)methanamine; [ECHA REACH Registrations] UN2735",
        "links": [],
        "cross_references": [
          {
            "type": "name_match",
            "text": "benzene",
            "confidence": 1.0,
            "uuid": "b05124de-5f34-4c14-8f04-ccb20c3780d9",
            "name": "Benzene",
            "url": "https://haz-map.com/Agents/5",
            "category": "agents"
          },
          {
            "type": "name_match",
            "text": "benzylamine",
            "confidence": 1.0,
            "uuid": "e3ff102c-c372-46ae-ab9f-a1fd3d630249",
            "name": "Benzylamine",
            "url": "https://haz-map.com/Agents/1380",
            "category": "agents"
          },
          {
            "type": "name_match",
            "text": "dibenzylamine",
            "confidence": 1.0,
            "uuid": "8efd13a4-c06a-4267-9d86-303ca7e86ccc",
            "name": "Dibenzylamine",
            "url": "https://haz-map.com/Agents/20557",
            "category": "agents"
          }
        ]
      },
      "category": {
        "original_name": "Category",
        "value": "Amines, Polyaromatic",
        "links": [],
        "cross_references": []
      },
      "description": {
        "original_name": "Description",
        "value": "Liquid with an ammoniacal odor; [Merck Index] Colorless liquid with a weak odor; [Alfa Aesar MSDS]",
        "links": [],
        "cross_references": [
          {
            "type": "name_match",
            "text": "ammonia",
            "confidence": 1.0,
            "uuid": "4a9ab845-a2cc-47e0-ab5c-e53693380800",
            "name": "Ammonia",
            "url": "https://haz-map.com/Agents/291",
            "category": "agents"
          }
        ]
      },
      "sourcesuses": {
        "original_name": "Sources/Uses",
        "value": "Used in the detection of cobalt, cyanate, and iron; [Merck Index] Used to make fine chemicals; [ExPub: ECHA REACH Registrations]",
        "links": [],
        "cross_references": [
          {
            "type": "name_match",
            "text": "cobalt",
            "confidence": 1.0,
            "uuid": "a4fbb4f1-add0-4f74-b979-12bd4131c80e",
            "name": "Cobalt",
            "url": "https://haz-map.com/Agents/37",
            "category": "agents"
          },
          {
            "type": "name_match",
            "text": "mica",
            "confidence": 1.0,
            "uuid": "433f26f1-c399-4596-b179-ce3843cfd465",
            "name": "Mica",
            "url": "https://haz-map.com/Agents/621",
            "category": "agents"
          },
          {
            "type": "name_match",
            "text": "iron",
            "confidence": 1.0,
            "uuid": "a6101f16-ec31-4d6c-af41-cbdbda5b1c7c",
            "name": "Iron",
            "url": "https://haz-map.com/Agents/1993",
            "category": "agents"
          }
        ]
      },
      "comments": {
        "original_name": "Comments",
        "value": "Causes burns; Inhalation may cause corrosive injuries to upper respiratory tract and lungs; Harmful by ingestion; [Alfa Aesar MSDS] See \"Diphenylamine.\"",
        "links": [],
        "cross_references": [
          {
            "type": "name_match",
            "text": "burn",
            "confidence": 1.0,
            "uuid": "63665de5-6376-4918-8dbf-4c10c4d63837",
            "name": "burn",
            "url": "https://haz-map.com/Findings/204",
            "category": "findings"
          },
          {
            "type": "name_match",
            "text": "diphenylamine",
            "confidence": 1.0,
            "uuid": "3f92d416-f15a-456f-86a5-60c536b4229b",
            "name": "Diphenylamine",
            "url": "https://haz-map.com/Agents/471",
            "category": "agents"
          }
        ]
      },
      "biomedical_references": {
        "original_name": "Biomedical References",
        "value": "Search PubMed",
        "links": [
          {
            "text": "Search PubMed",
            "url": "https://www.ncbi.nlm.nih.gov/pubmed?term=Dibenzylamine%20AND%20human%5Bmh%5D%20AND%20%28Occupational%20Diseases%20%5Bmh%5D%20OR%20Occupational%20Exposure%20%5Bmh%5D%29%20%20AND%20%28tox%5Bsb%5D%29&cmd=search"
          }
        ],
        "cross_references": []
      }
    },
    "exposure_assessment": {
      "vapor_pressure": {
        "original_name": "Vapor Pressure",
        "value": "0.00026 mm Hg",
        "links": [],
        "cross_references": []
      },
      "explanatory_notes": {
        "original_name": "Explanatory Notes",
        "value": "The Guide in the Emergency Response Guidebook is for \"Amines, liquid, corrosive, n.o.s.\"",
        "links": [],
        "cross_references": []
      }
    },
    "adverse_effects": {
      "toxic_pneumonitis": {
        "original_name": "Toxic Pneumonitis",
        "value": "Yes",
        "links": [],
        "cross_references": []
      },
      "dermatotoxin": {
        "original_name": "Dermatotoxin",
        "value": "Skin burns",
        "links": [],
        "cross_references": [
          {
            "type": "name_match",
            "text": "burn",
            "confidence": 1.0,
            "uuid": "63665de5-6376-4918-8dbf-4c10c4d63837",
            "name": "burn",
            "url": "https://haz-map.com/Findings/204",
            "category": "findings"
          }
        ]
      }
    },
    "diseases_processes_and_activities_linked_to_this_agent": {
      "other_information": {
        "original_name": "Other Information",
        "value": "No other related information on this agent was found.",
        "links": [],
        "cross_references": []
      }
    }
  },
  "cross_references": [
    {
      "type": "name_match",
      "text": "burn",
      "confidence": 1.0,
      "uuid": "63665de5-6376-4918-8dbf-4c10c4d63837",
      "name": "burn",
      "url": "https://haz-map.com/Findings/204",
      "category": "findings"
    },
    {
      "type": "name_match",
      "text": "benzene",
      "confidence": 1.0,
      "uuid": "b05124de-5f34-4c14-8f04-ccb20c3780d9",
      "name": "Benzene",
      "url": "https://haz-map.com/Agents/5",
      "category": "agents"
    },
    {
      "type": "name_match",
      "text": "cobalt",
      "confidence": 1.0,
      "uuid": "a4fbb4f1-add0-4f74-b979-12bd4131c80e",
      "name": "Cobalt",
      "url": "https://haz-map.com/Agents/37",
      "category": "agents"
    },
    {
      "type": "name_match",
      "text": "ammonia",
      "confidence": 1.0,
      "uuid": "4a9ab845-a2cc-47e0-ab5c-e53693380800",
      "name": "Ammonia",
      "url": "https://haz-map.com/Agents/291",
      "category": "agents"
    },
    {
      "type": "name_match",
      "text": "diphenylamine",
      "confidence": 1.0,
      "uuid": "3f92d416-f15a-456f-86a5-60c536b4229b",
      "name": "Diphenylamine",
      "url": "https://haz-map.com/Agents/471",
      "category": "agents"
    },
    {
      "type": "name_match",
      "text": "mica",
      "confidence": 1.0,
      "uuid": "433f26f1-c399-4596-b179-ce3843cfd465",
      "name": "Mica",
      "url": "https://haz-map.com/Agents/621",
      "category": "agents"
    },
    {
      "type": "name_match",
      "text": "nitrogen",
      "confidence": 1.0,
      "uuid": "db5e90a9-06d2-45b9-8b81-f345a89b0bc0",
      "name": "Nitrogen",
      "url": "https://haz-map.com/Agents/1072",
      "category": "agents"
    },
    {
      "type": "name_match",
      "text": "benzylamine",
      "confidence": 1.0,
      "uuid": "e3ff102c-c372-46ae-ab9f-a1fd3d630249",
      "name": "Benzylamine",
      "url": "https://haz-map.com/Agents/1380",
      "category": "agents"
    },
    {
      "type": "name_match",
      "text": "iron",
      "confidence": 1.0,
      "uuid": "a6101f16-ec31-4d6c-af41-cbdbda5b1c7c",
      "name": "Iron",
      "url": "https://haz-map.com/Agents/1993",
      "category": "agents"
    },
    {
      "type": "name_match",
      "text": "dibenzylamine",
      "confidence": 1.0,
      "uuid": "8efd13a4-c06a-4267-9d86-303ca7e86ccc",
      "name": "Dibenzylamine",
      "url": "https://haz-map.com/Agents/20557",
      "category": "agents"
    }
  ],
  "all_links": [
    {
      "text": "Search PubMed",
      "url": "https://www.ncbi.nlm.nih.gov/pubmed?term=Dibenzylamine%20AND%20human%5Bmh%5D%20AND%20%28Occupational%20Diseases%20%5Bmh%5D%20OR%20Occupational%20Exposure%20%5Bmh%5D%29%20%20AND%20%28tox%5Bsb%5D%29&cmd=search"
    }
  ]
}