{
  "metadata": {
    "scraped_from": "https://haz-map.com/Agents/19270",
    "entity_name": "1,4-Bis(trifluoromethyl)benzene",
    "category": "agents",
    "uuid": "8f2d50c5-1da3-4955-91b6-271cb3a7fe08",
    "scraped_at": "2025-07-23T22:02:40.545164"
  },
  "parsed_at": "2025-07-24T01:01:10.248888",
  "title": "1,4-Bis(trifluoromethyl)benzene",
  "sections": {
    "general": {
      "agent_name": {
        "original_name": "Agent Name",
        "value": "1,4-Bis(trifluoromethyl)benzene",
        "links": [],
        "cross_references": [
          {
            "type": "name_match",
            "text": "benzene",
            "confidence": 1.0,
            "uuid": "b05124de-5f34-4c14-8f04-ccb20c3780d9",
            "name": "Benzene",
            "url": "https://haz-map.com/Agents/5",
            "category": "agents"
          },
          {
            "type": "name_match",
            "text": "1,4-bis(trifluoromethyl)benzene",
            "confidence": 1.0,
            "uuid": "8f2d50c5-1da3-4955-91b6-271cb3a7fe08",
            "name": "1,4-Bis(trifluoromethyl)benzene",
            "url": "https://haz-map.com/Agents/19270",
            "category": "agents"
          }
        ]
      },
      "cas_number": {
        "original_name": "CAS Number",
        "value": "433-19-2",
        "links": [],
        "cross_references": []
      },
      "formula": {
        "original_name": "Formula",
        "value": "C8-H4-F6",
        "links": [],
        "cross_references": []
      },
      "major_category": {
        "original_name": "Major Category",
        "value": "Other Classes",
        "links": [],
        "cross_references": []
      },
      "synonyms": {
        "original_name": "Synonyms",
        "value": "Hexafluoro-p-xylene; p-Bis(trifluoromethyl)benzene; Benzene, 1,4-bis(trifluoromethyl)-; p-Xylene, alpha,alpha,alpha,alpha',alpha',alpha'-hexafluoro-(8CI); [ChemIDplus] alpha,alpha,alpha,alpha',alpha',alpha'-Hexafluoro-p-xylene; [Sigma-Aldrich MSDS] UN1993",
        "links": [],
        "cross_references": [
          {
            "type": "name_match",
            "text": "benzene",
            "confidence": 1.0,
            "uuid": "b05124de-5f34-4c14-8f04-ccb20c3780d9",
            "name": "Benzene",
            "url": "https://haz-map.com/Agents/5",
            "category": "agents"
          },
          {
            "type": "name_match",
            "text": "p-xylene",
            "confidence": 1.0,
            "uuid": "10e69ddd-48a3-4d40-83ee-196e9b9dab5a",
            "name": "p-Xylene",
            "url": "https://haz-map.com/Agents/17009",
            "category": "agents"
          }
        ]
      },
      "category": {
        "original_name": "Category",
        "value": "Halogenated Monoaromatics",
        "links": [],
        "cross_references": []
      },
      "description": {
        "original_name": "Description",
        "value": "Colorless liquid; [Sigma-Aldrich MSDS]",
        "links": [],
        "cross_references": []
      },
      "comments": {
        "original_name": "Comments",
        "value": "A skin and strong eye irritant; [Sigma-Aldrich MSDS] See \"1-Chloro-4-(trifluoromethyl)benzene,\" \"3,4-Dichlorobenzotrifluoride,\" and \"Benzotrifluoride.\"",
        "links": [],
        "cross_references": [
          {
            "type": "name_match",
            "text": "benzene",
            "confidence": 1.0,
            "uuid": "b05124de-5f34-4c14-8f04-ccb20c3780d9",
            "name": "Benzene",
            "url": "https://haz-map.com/Agents/5",
            "category": "agents"
          },
          {
            "type": "name_match",
            "text": "3,4-dichlorobenzotrifluoride",
            "confidence": 1.0,
            "uuid": "666aac19-8b3e-4b68-9b2a-b0ea92993282",
            "name": "3,4-Dichlorobenzotrifluoride",
            "url": "https://haz-map.com/Agents/3195",
            "category": "agents"
          },
          {
            "type": "name_match",
            "text": "benzotrifluoride",
            "confidence": 1.0,
            "uuid": "371c7ab2-83f0-45a3-a637-417d4f548a19",
            "name": "Benzotrifluoride",
            "url": "https://haz-map.com/Agents/3871",
            "category": "agents"
          },
          {
            "type": "name_match",
            "text": "1-chloro-4-(trifluoromethyl)benzene",
            "confidence": 1.0,
            "uuid": "29323d79-c1d5-4479-9a54-6c07c8681b3f",
            "name": "1-Chloro-4-(trifluoromethyl)benzene",
            "url": "https://haz-map.com/Agents/7582",
            "category": "agents"
          }
        ]
      },
      "biomedical_references": {
        "original_name": "Biomedical References",
        "value": "Search PubMed",
        "links": [
          {
            "text": "Search PubMed",
            "url": "https://www.ncbi.nlm.nih.gov/pubmed?term=1%2c4-Bis(trifluoromethyl)benzene%20AND%20human%5Bmh%5D%20AND%20%28Occupational%20Diseases%20%5Bmh%5D%20OR%20Occupational%20Exposure%20%5Bmh%5D%29%20%20AND%20%28tox%5Bsb%5D%29&cmd=search"
          }
        ],
        "cross_references": []
      }
    },
    "exposure_assessment": {
      "vapor_pressure": {
        "original_name": "Vapor Pressure",
        "value": "18.5 mm Hg",
        "links": [],
        "cross_references": []
      },
      "explanatory_notes": {
        "original_name": "Explanatory Notes",
        "value": "The Guide in the Emergency Response Guidebook is for \"Flammable liquid, n.o.s.\"",
        "links": [],
        "cross_references": []
      }
    },
    "diseases_processes_and_activities_linked_to_this_agent": {
      "other_information": {
        "original_name": "Other Information",
        "value": "No other related information on this agent was found.",
        "links": [],
        "cross_references": []
      }
    }
  },
  "cross_references": [
    {
      "type": "name_match",
      "text": "benzene",
      "confidence": 1.0,
      "uuid": "b05124de-5f34-4c14-8f04-ccb20c3780d9",
      "name": "Benzene",
      "url": "https://haz-map.com/Agents/5",
      "category": "agents"
    },
    {
      "type": "name_match",
      "text": "3,4-dichlorobenzotrifluoride",
      "confidence": 1.0,
      "uuid": "666aac19-8b3e-4b68-9b2a-b0ea92993282",
      "name": "3,4-Dichlorobenzotrifluoride",
      "url": "https://haz-map.com/Agents/3195",
      "category": "agents"
    },
    {
      "type": "name_match",
      "text": "benzotrifluoride",
      "confidence": 1.0,
      "uuid": "371c7ab2-83f0-45a3-a637-417d4f548a19",
      "name": "Benzotrifluoride",
      "url": "https://haz-map.com/Agents/3871",
      "category": "agents"
    },
    {
      "type": "name_match",
      "text": "1-chloro-4-(trifluoromethyl)benzene",
      "confidence": 1.0,
      "uuid": "29323d79-c1d5-4479-9a54-6c07c8681b3f",
      "name": "1-Chloro-4-(trifluoromethyl)benzene",
      "url": "https://haz-map.com/Agents/7582",
      "category": "agents"
    },
    {
      "type": "name_match",
      "text": "p-xylene",
      "confidence": 1.0,
      "uuid": "10e69ddd-48a3-4d40-83ee-196e9b9dab5a",
      "name": "p-Xylene",
      "url": "https://haz-map.com/Agents/17009",
      "category": "agents"
    },
    {
      "type": "name_match",
      "text": "1,4-bis(trifluoromethyl)benzene",
      "confidence": 1.0,
      "uuid": "8f2d50c5-1da3-4955-91b6-271cb3a7fe08",
      "name": "1,4-Bis(trifluoromethyl)benzene",
      "url": "https://haz-map.com/Agents/19270",
      "category": "agents"
    }
  ],
  "all_links": [
    {
      "text": "Search PubMed",
      "url": "https://www.ncbi.nlm.nih.gov/pubmed?term=1%2c4-Bis(trifluoromethyl)benzene%20AND%20human%5Bmh%5D%20AND%20%28Occupational%20Diseases%20%5Bmh%5D%20OR%20Occupational%20Exposure%20%5Bmh%5D%29%20%20AND%20%28tox%5Bsb%5D%29&cmd=search"
    }
  ]
}