{
  "metadata": {
    "scraped_from": "https://haz-map.com/Agents/19636",
    "entity_name": "2-Methoxybenzyl alcohol",
    "category": "agents",
    "uuid": "8fb71769-8d3e-4cc3-a863-0e7e45e7c339",
    "scraped_at": "2025-07-23T22:09:58.848475"
  },
  "parsed_at": "2025-07-24T00:55:56.076298",
  "title": "2-Methoxybenzyl alcohol",
  "sections": {
    "general": {
      "agent_name": {
        "original_name": "Agent Name",
        "value": "2-Methoxybenzyl alcohol",
        "links": [],
        "cross_references": [
          {
            "type": "name_match",
            "text": "benzyl alcohol",
            "confidence": 1.0,
            "uuid": "aa5ddab1-d568-4556-bbb6-b1adaca0f801",
            "name": "Benzyl alcohol",
            "url": "https://haz-map.com/Agents/1267",
            "category": "agents"
          },
          {
            "type": "name_match",
            "text": "2-methoxybenzyl alcohol",
            "confidence": 1.0,
            "uuid": "8fb71769-8d3e-4cc3-a863-0e7e45e7c339",
            "name": "2-Methoxybenzyl alcohol",
            "url": "https://haz-map.com/Agents/19636",
            "category": "agents"
          }
        ]
      },
      "cas_number": {
        "original_name": "CAS Number",
        "value": "612-16-8",
        "links": [],
        "cross_references": []
      },
      "formula": {
        "original_name": "Formula",
        "value": "C8-H10-O2",
        "links": [],
        "cross_references": []
      },
      "major_category": {
        "original_name": "Major Category",
        "value": "Other Classes",
        "links": [],
        "cross_references": []
      },
      "synonyms": {
        "original_name": "Synonyms",
        "value": "2-Methoxybenzenemethanol; Benzenemethanol, 2-methoxy-; [ChemIDplus] o-Anisyl alcohol; [Acros Organics MSDS]",
        "links": [],
        "cross_references": [
          {
            "type": "name_match",
            "text": "benzene",
            "confidence": 1.0,
            "uuid": "b05124de-5f34-4c14-8f04-ccb20c3780d9",
            "name": "Benzene",
            "url": "https://haz-map.com/Agents/5",
            "category": "agents"
          }
        ]
      },
      "category": {
        "original_name": "Category",
        "value": "Other Aromatic Compounds",
        "links": [],
        "cross_references": []
      },
      "description": {
        "original_name": "Description",
        "value": "Clear orange to light orange-brown liquid; [Acros Organics MSDS]",
        "links": [],
        "cross_references": [
          {
            "type": "name_match",
            "text": "ht",
            "confidence": 1.0,
            "uuid": "764df367-8d53-4a11-81a2-31ccfe122a8d",
            "name": "HT",
            "url": "https://haz-map.com/Agents/2168",
            "category": "agents"
          }
        ]
      },
      "comments": {
        "original_name": "Comments",
        "value": "An irritant; Harmful by ingestion; [Acros Organics MSDS] See \"2,5-Dimethoxybenzyl alcohol.\" See \"Benzyl alcohol.\" See \"1,3-Dimethoxybenzene\" and \"Anisole.\"",
        "links": [],
        "cross_references": [
          {
            "type": "name_match",
            "text": "benzene",
            "confidence": 1.0,
            "uuid": "b05124de-5f34-4c14-8f04-ccb20c3780d9",
            "name": "Benzene",
            "url": "https://haz-map.com/Agents/5",
            "category": "agents"
          },
          {
            "type": "name_match",
            "text": "benzyl alcohol",
            "confidence": 1.0,
            "uuid": "aa5ddab1-d568-4556-bbb6-b1adaca0f801",
            "name": "Benzyl alcohol",
            "url": "https://haz-map.com/Agents/1267",
            "category": "agents"
          },
          {
            "type": "name_match",
            "text": "anisole",
            "confidence": 1.0,
            "uuid": "f122d940-2dba-441c-9dbf-c185355d4cb0",
            "name": "Anisole",
            "url": "https://haz-map.com/Agents/3708",
            "category": "agents"
          },
          {
            "type": "name_match",
            "text": "1,3-dimethoxybenzene",
            "confidence": 1.0,
            "uuid": "a8da2c62-ff0e-44e3-ba3b-71eaab8d6b9d",
            "name": "1,3-Dimethoxybenzene",
            "url": "https://haz-map.com/Agents/19255",
            "category": "agents"
          },
          {
            "type": "name_match",
            "text": "2,5-dimethoxybenzyl alcohol",
            "confidence": 1.0,
            "uuid": "81be8ddb-4bd6-41e6-8108-4b59b0e167f8",
            "name": "2,5-Dimethoxybenzyl alcohol",
            "url": "https://haz-map.com/Agents/19490",
            "category": "agents"
          }
        ]
      },
      "biomedical_references": {
        "original_name": "Biomedical References",
        "value": "Search PubMed",
        "links": [
          {
            "text": "Search PubMed",
            "url": "https://www.ncbi.nlm.nih.gov/pubmed?term=2-Methoxybenzyl+alcohol%20AND%20human%5Bmh%5D%20AND%20%28Occupational%20Diseases%20%5Bmh%5D%20OR%20Occupational%20Exposure%20%5Bmh%5D%29%20%20AND%20%28tox%5Bsb%5D%29&cmd=search"
          }
        ],
        "cross_references": []
      }
    },
    "exposure_assessment": {
      "vapor_pressure": {
        "original_name": "Vapor Pressure",
        "value": "0.00429 mm Hg",
        "links": [],
        "cross_references": []
      }
    },
    "diseases_processes_and_activities_linked_to_this_agent": {
      "other_information": {
        "original_name": "Other Information",
        "value": "No other related information on this agent was found.",
        "links": [],
        "cross_references": []
      }
    }
  },
  "cross_references": [
    {
      "type": "name_match",
      "text": "benzene",
      "confidence": 1.0,
      "uuid": "b05124de-5f34-4c14-8f04-ccb20c3780d9",
      "name": "Benzene",
      "url": "https://haz-map.com/Agents/5",
      "category": "agents"
    },
    {
      "type": "name_match",
      "text": "benzyl alcohol",
      "confidence": 1.0,
      "uuid": "aa5ddab1-d568-4556-bbb6-b1adaca0f801",
      "name": "Benzyl alcohol",
      "url": "https://haz-map.com/Agents/1267",
      "category": "agents"
    },
    {
      "type": "name_match",
      "text": "ht",
      "confidence": 1.0,
      "uuid": "764df367-8d53-4a11-81a2-31ccfe122a8d",
      "name": "HT",
      "url": "https://haz-map.com/Agents/2168",
      "category": "agents"
    },
    {
      "type": "name_match",
      "text": "anisole",
      "confidence": 1.0,
      "uuid": "f122d940-2dba-441c-9dbf-c185355d4cb0",
      "name": "Anisole",
      "url": "https://haz-map.com/Agents/3708",
      "category": "agents"
    },
    {
      "type": "name_match",
      "text": "1,3-dimethoxybenzene",
      "confidence": 1.0,
      "uuid": "a8da2c62-ff0e-44e3-ba3b-71eaab8d6b9d",
      "name": "1,3-Dimethoxybenzene",
      "url": "https://haz-map.com/Agents/19255",
      "category": "agents"
    },
    {
      "type": "name_match",
      "text": "2,5-dimethoxybenzyl alcohol",
      "confidence": 1.0,
      "uuid": "81be8ddb-4bd6-41e6-8108-4b59b0e167f8",
      "name": "2,5-Dimethoxybenzyl alcohol",
      "url": "https://haz-map.com/Agents/19490",
      "category": "agents"
    },
    {
      "type": "name_match",
      "text": "2-methoxybenzyl alcohol",
      "confidence": 1.0,
      "uuid": "8fb71769-8d3e-4cc3-a863-0e7e45e7c339",
      "name": "2-Methoxybenzyl alcohol",
      "url": "https://haz-map.com/Agents/19636",
      "category": "agents"
    }
  ],
  "all_links": [
    {
      "text": "Search PubMed",
      "url": "https://www.ncbi.nlm.nih.gov/pubmed?term=2-Methoxybenzyl+alcohol%20AND%20human%5Bmh%5D%20AND%20%28Occupational%20Diseases%20%5Bmh%5D%20OR%20Occupational%20Exposure%20%5Bmh%5D%29%20%20AND%20%28tox%5Bsb%5D%29&cmd=search"
    }
  ]
}