{
  "metadata": {
    "scraped_from": "https://haz-map.com/Agents/9921",
    "entity_name": "2,3-Dihydroxybenzoic acid",
    "category": "agents",
    "uuid": "90255f14-cc51-4590-a763-7e28cadfeb07",
    "scraped_at": "2025-07-23T20:43:02.888310"
  },
  "parsed_at": "2025-07-24T01:02:21.250060",
  "title": "2,3-Dihydroxybenzoic acid",
  "sections": {
    "general": {
      "agent_name": {
        "original_name": "Agent Name",
        "value": "2,3-Dihydroxybenzoic acid",
        "links": [],
        "cross_references": [
          {
            "type": "name_match",
            "text": "benzoic acid",
            "confidence": 1.0,
            "uuid": "d2c5d3be-d826-4f55-bc32-7b16821aef40",
            "name": "Benzoic acid",
            "url": "https://haz-map.com/Agents/1883",
            "category": "agents"
          },
          {
            "type": "name_match",
            "text": "2,3-dihydroxybenzoic acid",
            "confidence": 1.0,
            "uuid": "90255f14-cc51-4590-a763-7e28cadfeb07",
            "name": "2,3-Dihydroxybenzoic acid",
            "url": "https://haz-map.com/Agents/9921",
            "category": "agents"
          },
          {
            "type": "name_match",
            "text": "hydroxybenzoic acid",
            "confidence": 1.0,
            "uuid": "c0fe1112-f757-4a77-a4ed-4b5a9997c734",
            "name": "Hydroxybenzoic acid",
            "url": "https://haz-map.com/Agents/14820",
            "category": "agents"
          }
        ]
      },
      "cas_number": {
        "original_name": "CAS Number",
        "value": "303-38-8",
        "links": [],
        "cross_references": []
      },
      "formula": {
        "original_name": "Formula",
        "value": "C7-H6-O4",
        "links": [],
        "cross_references": []
      },
      "major_category": {
        "original_name": "Major Category",
        "value": "Other Classes",
        "links": [],
        "cross_references": []
      },
      "synonyms": {
        "original_name": "Synonyms",
        "value": "2,3 DHB; 2-Pyrocatechuic acid; 3-Hydroxysalicylic acid; Catecholcarboxylic acid; DHBA; DOBK; Pyrocatechuic acid; Benzoic acid, 2,3-dihydroxy-; o-Pyrocatechuic acid (6CI,8CI); [ChemIDplus]",
        "links": [],
        "cross_references": [
          {
            "type": "name_match",
            "text": "catechol",
            "confidence": 1.0,
            "uuid": "f171132b-f7fb-42b9-ba76-091eb240fa4a",
            "name": "Catechol",
            "url": "https://haz-map.com/Agents/346",
            "category": "agents"
          },
          {
            "type": "name_match",
            "text": "benzoic acid",
            "confidence": 1.0,
            "uuid": "d2c5d3be-d826-4f55-bc32-7b16821aef40",
            "name": "Benzoic acid",
            "url": "https://haz-map.com/Agents/1883",
            "category": "agents"
          },
          {
            "type": "name_match",
            "text": "salicylic acid",
            "confidence": 1.0,
            "uuid": "8a628207-ea97-4f5a-8ad4-dce124203ade",
            "name": "Salicylic acid",
            "url": "https://haz-map.com/Agents/1914",
            "category": "agents"
          }
        ]
      },
      "category": {
        "original_name": "Category",
        "value": "Benzoic Acid Derivatives",
        "links": [],
        "cross_references": [
          {
            "type": "name_match",
            "text": "benzoic acid",
            "confidence": 1.0,
            "uuid": "d2c5d3be-d826-4f55-bc32-7b16821aef40",
            "name": "Benzoic acid",
            "url": "https://haz-map.com/Agents/1883",
            "category": "agents"
          }
        ]
      },
      "description": {
        "original_name": "Description",
        "value": "Beige powder; [Aldrich MSDS]",
        "links": [],
        "cross_references": []
      },
      "comments": {
        "original_name": "Comments",
        "value": "Causes other changes in kidney, ureter, and bladder, changes in kidney weight, and changes in blood serum composition in 7-day intermittent subcutaneous studies of rats; [RTECS] A skin and strong eye irritant; [Aldrich MSDS] See \"4-Hydroxybenzoic acid.\"",
        "links": [],
        "cross_references": [
          {
            "type": "name_match",
            "text": "benzoic acid",
            "confidence": 1.0,
            "uuid": "d2c5d3be-d826-4f55-bc32-7b16821aef40",
            "name": "Benzoic acid",
            "url": "https://haz-map.com/Agents/1883",
            "category": "agents"
          },
          {
            "type": "name_match",
            "text": "ht",
            "confidence": 1.0,
            "uuid": "764df367-8d53-4a11-81a2-31ccfe122a8d",
            "name": "HT",
            "url": "https://haz-map.com/Agents/2168",
            "category": "agents"
          },
          {
            "type": "name_match",
            "text": "4-hydroxybenzoic acid",
            "confidence": 1.0,
            "uuid": "3fcbee71-1f51-40c2-84f9-1b67dcff5878",
            "name": "4-Hydroxybenzoic acid",
            "url": "https://haz-map.com/Agents/3479",
            "category": "agents"
          },
          {
            "type": "name_match",
            "text": "dde",
            "confidence": 1.0,
            "uuid": "88506fb4-e7b1-4bde-a283-917057f67fc2",
            "name": "DDE",
            "url": "https://haz-map.com/Agents/4656",
            "category": "agents"
          },
          {
            "type": "name_match",
            "text": "hydroxybenzoic acid",
            "confidence": 1.0,
            "uuid": "c0fe1112-f757-4a77-a4ed-4b5a9997c734",
            "name": "Hydroxybenzoic acid",
            "url": "https://haz-map.com/Agents/14820",
            "category": "agents"
          }
        ]
      },
      "biomedical_references": {
        "original_name": "Biomedical References",
        "value": "Search PubMed",
        "links": [
          {
            "text": "Search PubMed",
            "url": "https://www.ncbi.nlm.nih.gov/pubmed?term=2%2c3-Dihydroxybenzoic+acid%20AND%20human%5Bmh%5D%20AND%20%28Occupational%20Diseases%20%5Bmh%5D%20OR%20Occupational%20Exposure%20%5Bmh%5D%29%20%20AND%20%28tox%5Bsb%5D%29&cmd=search"
          }
        ],
        "cross_references": []
      }
    },
    "exposure_assessment": {
      "vapor_pressure": {
        "original_name": "Vapor Pressure",
        "value": "2.1E-06 mm Hg",
        "links": [],
        "cross_references": []
      }
    },
    "diseases_processes_and_activities_linked_to_this_agent": {
      "other_information": {
        "original_name": "Other Information",
        "value": "No other related information on this agent was found.",
        "links": [],
        "cross_references": []
      }
    }
  },
  "cross_references": [
    {
      "type": "name_match",
      "text": "catechol",
      "confidence": 1.0,
      "uuid": "f171132b-f7fb-42b9-ba76-091eb240fa4a",
      "name": "Catechol",
      "url": "https://haz-map.com/Agents/346",
      "category": "agents"
    },
    {
      "type": "name_match",
      "text": "benzoic acid",
      "confidence": 1.0,
      "uuid": "d2c5d3be-d826-4f55-bc32-7b16821aef40",
      "name": "Benzoic acid",
      "url": "https://haz-map.com/Agents/1883",
      "category": "agents"
    },
    {
      "type": "name_match",
      "text": "salicylic acid",
      "confidence": 1.0,
      "uuid": "8a628207-ea97-4f5a-8ad4-dce124203ade",
      "name": "Salicylic acid",
      "url": "https://haz-map.com/Agents/1914",
      "category": "agents"
    },
    {
      "type": "name_match",
      "text": "ht",
      "confidence": 1.0,
      "uuid": "764df367-8d53-4a11-81a2-31ccfe122a8d",
      "name": "HT",
      "url": "https://haz-map.com/Agents/2168",
      "category": "agents"
    },
    {
      "type": "name_match",
      "text": "4-hydroxybenzoic acid",
      "confidence": 1.0,
      "uuid": "3fcbee71-1f51-40c2-84f9-1b67dcff5878",
      "name": "4-Hydroxybenzoic acid",
      "url": "https://haz-map.com/Agents/3479",
      "category": "agents"
    },
    {
      "type": "name_match",
      "text": "dde",
      "confidence": 1.0,
      "uuid": "88506fb4-e7b1-4bde-a283-917057f67fc2",
      "name": "DDE",
      "url": "https://haz-map.com/Agents/4656",
      "category": "agents"
    },
    {
      "type": "name_match",
      "text": "2,3-dihydroxybenzoic acid",
      "confidence": 1.0,
      "uuid": "90255f14-cc51-4590-a763-7e28cadfeb07",
      "name": "2,3-Dihydroxybenzoic acid",
      "url": "https://haz-map.com/Agents/9921",
      "category": "agents"
    },
    {
      "type": "name_match",
      "text": "hydroxybenzoic acid",
      "confidence": 1.0,
      "uuid": "c0fe1112-f757-4a77-a4ed-4b5a9997c734",
      "name": "Hydroxybenzoic acid",
      "url": "https://haz-map.com/Agents/14820",
      "category": "agents"
    }
  ],
  "all_links": [
    {
      "text": "Search PubMed",
      "url": "https://www.ncbi.nlm.nih.gov/pubmed?term=2%2c3-Dihydroxybenzoic+acid%20AND%20human%5Bmh%5D%20AND%20%28Occupational%20Diseases%20%5Bmh%5D%20OR%20Occupational%20Exposure%20%5Bmh%5D%29%20%20AND%20%28tox%5Bsb%5D%29&cmd=search"
    }
  ]
}