{
  "metadata": {
    "scraped_from": "https://haz-map.com/Agents/21139",
    "entity_name": "Methyl nicotinate",
    "category": "agents",
    "uuid": "903bdb1b-52a9-4a19-8b4b-e86b82b84445",
    "scraped_at": "2025-07-23T22:38:12.109123"
  },
  "parsed_at": "2025-07-24T01:05:27.341699",
  "title": "Methyl nicotinate",
  "sections": {
    "general": {
      "agent_name": {
        "original_name": "Agent Name",
        "value": "Methyl nicotinate",
        "links": [],
        "cross_references": [
          {
            "type": "name_match",
            "text": "ethyl nicotinate",
            "confidence": 1.0,
            "uuid": "9650f520-0abd-45a1-927a-128da19f77d3",
            "name": "Ethyl nicotinate",
            "url": "https://haz-map.com/Agents/20785",
            "category": "agents"
          },
          {
            "type": "name_match",
            "text": "methyl nicotinate",
            "confidence": 1.0,
            "uuid": "903bdb1b-52a9-4a19-8b4b-e86b82b84445",
            "name": "Methyl nicotinate",
            "url": "https://haz-map.com/Agents/21139",
            "category": "agents"
          }
        ]
      },
      "cas_number": {
        "original_name": "CAS Number",
        "value": "93-60-7",
        "links": [],
        "cross_references": []
      },
      "formula": {
        "original_name": "Formula",
        "value": "C7-H7-N-O2",
        "links": [],
        "cross_references": []
      },
      "major_category": {
        "original_name": "Major Category",
        "value": "Nitrogen Compounds",
        "links": [],
        "cross_references": [
          {
            "type": "name_match",
            "text": "nitrogen",
            "confidence": 1.0,
            "uuid": "db5e90a9-06d2-45b9-8b81-f345a89b0bc0",
            "name": "Nitrogen",
            "url": "https://haz-map.com/Agents/1072",
            "category": "agents"
          }
        ]
      },
      "synonyms": {
        "original_name": "Synonyms",
        "value": "Methylnicotinate; 3-(Carbomethoxy)pyridine; 3-(Methoxycarbonyl)pyridine; 3-Pyridinecarboxylic acid, methyl ester; Heat spray; m-(Methoxycarbonyl)pyridine; Methyl 3-pyridinecarboxylate; Methyl-nicotinate; Nicometh; Nicotinic acid, methyl ester; Nikomet; [ChemIDplus] 3-Pyridinecarboxylic acid methyl ester; Nicotinic acid methyl ester; Midalgan; [Merck Index] MNIC; [DOD] 3-Carbomethoxypyridine; [JECFA]",
        "links": [],
        "cross_references": [
          {
            "type": "name_match",
            "text": "pyridine",
            "confidence": 1.0,
            "uuid": "a2d916a4-844b-4df6-9be5-868b2b364d71",
            "name": "Pyridine",
            "url": "https://haz-map.com/Agents/616",
            "category": "agents"
          },
          {
            "type": "name_match",
            "text": "carbon",
            "confidence": 1.0,
            "uuid": "b53f8815-ee80-40ef-b4aa-3b000e17dab5",
            "name": "Carbon",
            "url": "https://haz-map.com/Agents/1891",
            "category": "agents"
          },
          {
            "type": "name_match",
            "text": "nicotinic acid",
            "confidence": 1.0,
            "uuid": "a2557ad0-66df-43a7-b01e-f9390d8e602f",
            "name": "Nicotinic acid",
            "url": "https://haz-map.com/Agents/15893",
            "category": "agents"
          }
        ]
      },
      "category": {
        "original_name": "Category",
        "value": "Pyridines",
        "links": [],
        "cross_references": [
          {
            "type": "name_match",
            "text": "pyridine",
            "confidence": 1.0,
            "uuid": "a2d916a4-844b-4df6-9be5-868b2b364d71",
            "name": "Pyridine",
            "url": "https://haz-map.com/Agents/616",
            "category": "agents"
          }
        ]
      },
      "description": {
        "original_name": "Description",
        "value": "Solid; [Merck Index]",
        "links": [],
        "cross_references": []
      },
      "sourcesuses": {
        "original_name": "Sources/Uses",
        "value": "Used as a rubefacient; [Merck Index] Topical vasodilator used to test the efficacy of skin protection compounds (i.e. products designed to provide barriers to chemical warfare agents); [DOD] Used as a flavoring agent; [FDA]",
        "links": [],
        "cross_references": [
          {
            "type": "name_match",
            "text": "mica",
            "confidence": 1.0,
            "uuid": "433f26f1-c399-4596-b179-ce3843cfd465",
            "name": "Mica",
            "url": "https://haz-map.com/Agents/621",
            "category": "agents"
          }
        ]
      },
      "comments": {
        "original_name": "Comments",
        "value": "\"Erythema provoked is basis of a methylnicotinate test of anti-inflammatories.\" [ChemIDplus] Contact irritant that causes non-immunologic contact reactions; [ToxPlanet: DOD] Safe when used as a flavoring agent in food; [JECFA] A skin and strong eye irritant; [Sigma-Aldrich MSDS] See \"Ethyl nicotinate\" and \"Methyl isonicotinate.\"",
        "links": [],
        "cross_references": [
          {
            "type": "name_match",
            "text": "ethyl nicotinate",
            "confidence": 1.0,
            "uuid": "9650f520-0abd-45a1-927a-128da19f77d3",
            "name": "Ethyl nicotinate",
            "url": "https://haz-map.com/Agents/20785",
            "category": "agents"
          },
          {
            "type": "name_match",
            "text": "methyl isonicotinate",
            "confidence": 1.0,
            "uuid": "ce35195c-fbdf-4d4d-b219-198afc998182",
            "name": "Methyl isonicotinate",
            "url": "https://haz-map.com/Agents/20839",
            "category": "agents"
          }
        ]
      },
      "biomedical_references": {
        "original_name": "Biomedical References",
        "value": "Search PubMed",
        "links": [
          {
            "text": "Search PubMed",
            "url": "https://www.ncbi.nlm.nih.gov/pubmed?term=Methyl+nicotinate%20AND%20human%5Bmh%5D%20AND%20%28Occupational%20Diseases%20%5Bmh%5D%20OR%20Occupational%20Exposure%20%5Bmh%5D%29%20%20AND%20%28tox%5Bsb%5D%29&cmd=search"
          }
        ],
        "cross_references": []
      }
    },
    "exposure_assessment": {
      "vapor_pressure": {
        "original_name": "Vapor Pressure",
        "value": "0.277 mm Hg",
        "links": [],
        "cross_references": []
      }
    },
    "diseases_processes_and_activities_linked_to_this_agent": {
      "other_information": {
        "original_name": "Other Information",
        "value": "No other related information on this agent was found.",
        "links": [],
        "cross_references": []
      }
    }
  },
  "cross_references": [
    {
      "type": "name_match",
      "text": "pyridine",
      "confidence": 1.0,
      "uuid": "a2d916a4-844b-4df6-9be5-868b2b364d71",
      "name": "Pyridine",
      "url": "https://haz-map.com/Agents/616",
      "category": "agents"
    },
    {
      "type": "name_match",
      "text": "mica",
      "confidence": 1.0,
      "uuid": "433f26f1-c399-4596-b179-ce3843cfd465",
      "name": "Mica",
      "url": "https://haz-map.com/Agents/621",
      "category": "agents"
    },
    {
      "type": "name_match",
      "text": "nitrogen",
      "confidence": 1.0,
      "uuid": "db5e90a9-06d2-45b9-8b81-f345a89b0bc0",
      "name": "Nitrogen",
      "url": "https://haz-map.com/Agents/1072",
      "category": "agents"
    },
    {
      "type": "name_match",
      "text": "carbon",
      "confidence": 1.0,
      "uuid": "b53f8815-ee80-40ef-b4aa-3b000e17dab5",
      "name": "Carbon",
      "url": "https://haz-map.com/Agents/1891",
      "category": "agents"
    },
    {
      "type": "name_match",
      "text": "nicotinic acid",
      "confidence": 1.0,
      "uuid": "a2557ad0-66df-43a7-b01e-f9390d8e602f",
      "name": "Nicotinic acid",
      "url": "https://haz-map.com/Agents/15893",
      "category": "agents"
    },
    {
      "type": "name_match",
      "text": "ethyl nicotinate",
      "confidence": 1.0,
      "uuid": "9650f520-0abd-45a1-927a-128da19f77d3",
      "name": "Ethyl nicotinate",
      "url": "https://haz-map.com/Agents/20785",
      "category": "agents"
    },
    {
      "type": "name_match",
      "text": "methyl isonicotinate",
      "confidence": 1.0,
      "uuid": "ce35195c-fbdf-4d4d-b219-198afc998182",
      "name": "Methyl isonicotinate",
      "url": "https://haz-map.com/Agents/20839",
      "category": "agents"
    },
    {
      "type": "name_match",
      "text": "methyl nicotinate",
      "confidence": 1.0,
      "uuid": "903bdb1b-52a9-4a19-8b4b-e86b82b84445",
      "name": "Methyl nicotinate",
      "url": "https://haz-map.com/Agents/21139",
      "category": "agents"
    }
  ],
  "all_links": [
    {
      "text": "Search PubMed",
      "url": "https://www.ncbi.nlm.nih.gov/pubmed?term=Methyl+nicotinate%20AND%20human%5Bmh%5D%20AND%20%28Occupational%20Diseases%20%5Bmh%5D%20OR%20Occupational%20Exposure%20%5Bmh%5D%29%20%20AND%20%28tox%5Bsb%5D%29&cmd=search"
    }
  ]
}