{
  "metadata": {
    "scraped_from": "https://haz-map.com/Agents/6271",
    "entity_name": "N-Phenylformamide",
    "category": "agents",
    "uuid": "9043ff17-f510-473c-8157-d99c098dd84a",
    "scraped_at": "2025-07-23T20:00:33.014981"
  },
  "parsed_at": "2025-07-24T01:15:33.813964",
  "title": "N-Phenylformamide",
  "sections": {
    "general": {
      "agent_name": {
        "original_name": "Agent Name",
        "value": "N-Phenylformamide",
        "links": [],
        "cross_references": [
          {
            "type": "name_match",
            "text": "formamide",
            "confidence": 1.0,
            "uuid": "70c12f11-5fdc-417f-a614-4b4de0f81d0b",
            "name": "Formamide",
            "url": "https://haz-map.com/Agents/496",
            "category": "agents"
          },
          {
            "type": "name_match",
            "text": "n-phenylformamide",
            "confidence": 1.0,
            "uuid": "9043ff17-f510-473c-8157-d99c098dd84a",
            "name": "N-Phenylformamide",
            "url": "https://haz-map.com/Agents/6271",
            "category": "agents"
          }
        ]
      },
      "alternative_name": {
        "original_name": "Alternative Name",
        "value": "Formanilide",
        "links": [],
        "cross_references": []
      },
      "cas_number": {
        "original_name": "CAS Number",
        "value": "103-70-8",
        "links": [],
        "cross_references": []
      },
      "formula": {
        "original_name": "Formula",
        "value": "C7-H7-N-O",
        "links": [],
        "cross_references": []
      },
      "major_category": {
        "original_name": "Major Category",
        "value": "Nitrogen Compounds",
        "links": [],
        "cross_references": [
          {
            "type": "name_match",
            "text": "nitrogen",
            "confidence": 1.0,
            "uuid": "db5e90a9-06d2-45b9-8b81-f345a89b0bc0",
            "name": "Nitrogen",
            "url": "https://haz-map.com/Agents/1072",
            "category": "agents"
          }
        ]
      },
      "synonyms": {
        "original_name": "Synonyms",
        "value": "Aniline, N-formyl-; Carbanilaldehyde; Formamide, N-phenyl-; Formamidobenzene; Formylaniline; N-Formylaniline; Phenyl formamide; Formanilide; [ChemIDplus]",
        "links": [],
        "cross_references": [
          {
            "type": "name_match",
            "text": "benzene",
            "confidence": 1.0,
            "uuid": "b05124de-5f34-4c14-8f04-ccb20c3780d9",
            "name": "Benzene",
            "url": "https://haz-map.com/Agents/5",
            "category": "agents"
          },
          {
            "type": "name_match",
            "text": "aniline",
            "confidence": 1.0,
            "uuid": "e4932692-8d9c-4a98-8c5c-81e55b12aedf",
            "name": "Aniline",
            "url": "https://haz-map.com/Agents/296",
            "category": "agents"
          },
          {
            "type": "name_match",
            "text": "formamide",
            "confidence": 1.0,
            "uuid": "70c12f11-5fdc-417f-a614-4b4de0f81d0b",
            "name": "Formamide",
            "url": "https://haz-map.com/Agents/496",
            "category": "agents"
          }
        ]
      },
      "category": {
        "original_name": "Category",
        "value": "Other Aromatics (Nitrogen)",
        "links": [],
        "cross_references": [
          {
            "type": "name_match",
            "text": "nitrogen",
            "confidence": 1.0,
            "uuid": "db5e90a9-06d2-45b9-8b81-f345a89b0bc0",
            "name": "Nitrogen",
            "url": "https://haz-map.com/Agents/1072",
            "category": "agents"
          }
        ]
      },
      "description": {
        "original_name": "Description",
        "value": "White solid; [HSDB] White crystalline powder; [Alfa Aesar MSDS]",
        "links": [],
        "cross_references": [
          {
            "type": "fuzzy_match",
            "text": "crystalline",
            "matched_name": "Silica, crystalline",
            "confidence": 0.7061403508771931,
            "uuid": "f920e8a2-46df-41b7-af8d-0368a777251e",
            "category": "agents",
            "url": "https://haz-map.com/Agents/427"
          }
        ]
      },
      "sourcesuses": {
        "original_name": "Sources/Uses",
        "value": "Used for chemical synthesis and formerly as a local anesthetic, analgesic, and antipyretic; [HSDB]",
        "links": [],
        "cross_references": [
          {
            "type": "name_match",
            "text": "mica",
            "confidence": 1.0,
            "uuid": "433f26f1-c399-4596-b179-ce3843cfd465",
            "name": "Mica",
            "url": "https://haz-map.com/Agents/621",
            "category": "agents"
          }
        ]
      },
      "comments": {
        "original_name": "Comments",
        "value": "Emergency treatment: Symptomatic drug ingestion; [HSDB] Causes somnolence, muscle weakness, and respiratory stimulation in intravenous lethal-dose studies of dogs; [RTECS] May cause irritation; [Alfa Aesar MSDS] See \"N-Methylformamide.\"",
        "links": [],
        "cross_references": [
          {
            "type": "name_match",
            "text": "weakness",
            "confidence": 1.0,
            "uuid": "44bfccd5-0f7a-48f7-b4eb-de9a6ef23064",
            "name": "weakness",
            "url": "https://haz-map.com/Findings/83",
            "category": "findings"
          },
          {
            "type": "name_match",
            "text": "formamide",
            "confidence": 1.0,
            "uuid": "70c12f11-5fdc-417f-a614-4b4de0f81d0b",
            "name": "Formamide",
            "url": "https://haz-map.com/Agents/496",
            "category": "agents"
          },
          {
            "type": "name_match",
            "text": "n-methylformamide",
            "confidence": 1.0,
            "uuid": "2ecc64d4-3d59-4a56-bfeb-66f81a51b1a4",
            "name": "N-Methylformamide",
            "url": "https://haz-map.com/Agents/6251",
            "category": "agents"
          }
        ]
      },
      "biomedical_references": {
        "original_name": "Biomedical References",
        "value": "Search PubMed",
        "links": [
          {
            "text": "Search PubMed",
            "url": "https://www.ncbi.nlm.nih.gov/pubmed?term=N-Phenylformamide%20AND%20human%5Bmh%5D%20AND%20%28Occupational%20Diseases%20%5Bmh%5D%20OR%20Occupational%20Exposure%20%5Bmh%5D%29%20%20AND%20%28tox%5Bsb%5D%29&cmd=search"
          }
        ],
        "cross_references": []
      }
    },
    "exposure_assessment": {
      "vapor_pressure": {
        "original_name": "Vapor Pressure",
        "value": "0.00357 mm Hg",
        "links": [],
        "cross_references": []
      }
    },
    "diseases_processes_and_activities_linked_to_this_agent": {
      "other_information": {
        "original_name": "Other Information",
        "value": "No other related information on this agent was found.",
        "links": [],
        "cross_references": []
      }
    }
  },
  "cross_references": [
    {
      "type": "name_match",
      "text": "weakness",
      "confidence": 1.0,
      "uuid": "44bfccd5-0f7a-48f7-b4eb-de9a6ef23064",
      "name": "weakness",
      "url": "https://haz-map.com/Findings/83",
      "category": "findings"
    },
    {
      "type": "name_match",
      "text": "benzene",
      "confidence": 1.0,
      "uuid": "b05124de-5f34-4c14-8f04-ccb20c3780d9",
      "name": "Benzene",
      "url": "https://haz-map.com/Agents/5",
      "category": "agents"
    },
    {
      "type": "name_match",
      "text": "aniline",
      "confidence": 1.0,
      "uuid": "e4932692-8d9c-4a98-8c5c-81e55b12aedf",
      "name": "Aniline",
      "url": "https://haz-map.com/Agents/296",
      "category": "agents"
    },
    {
      "type": "name_match",
      "text": "formamide",
      "confidence": 1.0,
      "uuid": "70c12f11-5fdc-417f-a614-4b4de0f81d0b",
      "name": "Formamide",
      "url": "https://haz-map.com/Agents/496",
      "category": "agents"
    },
    {
      "type": "name_match",
      "text": "mica",
      "confidence": 1.0,
      "uuid": "433f26f1-c399-4596-b179-ce3843cfd465",
      "name": "Mica",
      "url": "https://haz-map.com/Agents/621",
      "category": "agents"
    },
    {
      "type": "name_match",
      "text": "nitrogen",
      "confidence": 1.0,
      "uuid": "db5e90a9-06d2-45b9-8b81-f345a89b0bc0",
      "name": "Nitrogen",
      "url": "https://haz-map.com/Agents/1072",
      "category": "agents"
    },
    {
      "type": "name_match",
      "text": "n-methylformamide",
      "confidence": 1.0,
      "uuid": "2ecc64d4-3d59-4a56-bfeb-66f81a51b1a4",
      "name": "N-Methylformamide",
      "url": "https://haz-map.com/Agents/6251",
      "category": "agents"
    },
    {
      "type": "name_match",
      "text": "n-phenylformamide",
      "confidence": 1.0,
      "uuid": "9043ff17-f510-473c-8157-d99c098dd84a",
      "name": "N-Phenylformamide",
      "url": "https://haz-map.com/Agents/6271",
      "category": "agents"
    },
    {
      "type": "fuzzy_match",
      "text": "crystalline",
      "matched_name": "Silica, crystalline",
      "confidence": 0.7061403508771931,
      "uuid": "f920e8a2-46df-41b7-af8d-0368a777251e",
      "category": "agents",
      "url": "https://haz-map.com/Agents/427"
    }
  ],
  "all_links": [
    {
      "text": "Search PubMed",
      "url": "https://www.ncbi.nlm.nih.gov/pubmed?term=N-Phenylformamide%20AND%20human%5Bmh%5D%20AND%20%28Occupational%20Diseases%20%5Bmh%5D%20OR%20Occupational%20Exposure%20%5Bmh%5D%29%20%20AND%20%28tox%5Bsb%5D%29&cmd=search"
    }
  ]
}