{
  "metadata": {
    "scraped_from": "https://haz-map.com/Agents/6544",
    "entity_name": "Pebulate",
    "category": "agents",
    "uuid": "904e2ae4-c04e-42b5-9d4d-904e97cc7310",
    "scraped_at": "2025-07-23T20:02:56.336081"
  },
  "parsed_at": "2025-07-24T01:02:11.246063",
  "title": "Pebulate",
  "sections": {
    "general": {
      "agent_name": {
        "original_name": "Agent Name",
        "value": "Pebulate",
        "links": [],
        "cross_references": [
          {
            "type": "name_match",
            "text": "pebulate",
            "confidence": 1.0,
            "uuid": "904e2ae4-c04e-42b5-9d4d-904e97cc7310",
            "name": "Pebulate",
            "url": "https://haz-map.com/Agents/6544",
            "category": "agents"
          }
        ]
      },
      "cas_number": {
        "original_name": "CAS Number",
        "value": "1114-71-2",
        "links": [],
        "cross_references": []
      },
      "formula": {
        "original_name": "Formula",
        "value": "C10-H21-N-O-S",
        "links": [],
        "cross_references": []
      },
      "major_category": {
        "original_name": "Major Category",
        "value": "Pesticides",
        "links": [],
        "cross_references": []
      },
      "synonyms": {
        "original_name": "Synonyms",
        "value": "Butylethylthiocarbamic acid S-propyl ester; Carbamic acid, butylethylthio-, S-propyl ester; Carbamothioic acid, butylethyl-, S-propyl ester; n-Propyl-N-ethyl-N-(n-butyl)thiolcarbamate; PEBC; Propyl N-ethyl-N-butylthiocarbamate; Propyl ethylbutylthiocarbamate; Propyl ethylbutylthiolcarbamate; Propyl-ethylbutylthiocarbamate; Propylethyl-n-butylthiocarbamate; R-2061; S-(n-Propyl)-N-ethyl-N-butylthiocarbamate; S-(n-Propyl)-N-ethyl-N-n-butylthiocarbamate; S-Propyl butylethylcarbamothioate; S-Propyl butylethylthiocarbamate; S-Propyl-N-aethyl-N-butyl-thiocarbamat [German]; Stauffer R-2061; Tillam [Russian]; Tillam-6-E; [ChemIDplus]",
        "links": [],
        "cross_references": [
          {
            "type": "name_match",
            "text": "moth",
            "confidence": 1.0,
            "uuid": "14a33a40-8ea5-4ef5-b71a-3731a9d4ba32",
            "name": "Moth",
            "url": "https://haz-map.com/Agents/907",
            "category": "agents"
          }
        ]
      },
      "category": {
        "original_name": "Category",
        "value": "Herbicides, Thiocarbamate",
        "links": [],
        "cross_references": [
          {
            "type": "name_match",
            "text": "herbicides",
            "confidence": 1.0,
            "uuid": "195f29ae-3f15-47c5-836d-0a9791db3fc1",
            "name": "HERBICIDES",
            "url": "https://haz-map.com/Agents/703",
            "category": "agents"
          }
        ]
      },
      "description": {
        "original_name": "Description",
        "value": "Colorless or yellow liquid; [HSDB] Slightly yellow liquid; [MSDSonline]",
        "links": [],
        "cross_references": [
          {
            "type": "name_match",
            "text": "ht",
            "confidence": 1.0,
            "uuid": "764df367-8d53-4a11-81a2-31ccfe122a8d",
            "name": "HT",
            "url": "https://haz-map.com/Agents/2168",
            "category": "agents"
          }
        ]
      },
      "sourcesuses": {
        "original_name": "Sources/Uses",
        "value": "Used as selective pre-emergence herbicide for control of annual grasses and some broad-leaved weeds in sugar beet, tomatoes, tobacco, etc; Not currently registered with the EPA for use in the US; [HSDB] Banned for use in the EU; [eChemPortal: ESIS]",
        "links": [],
        "cross_references": []
      },
      "comments": {
        "original_name": "Comments",
        "value": "An eye irritant; A cholinesterase inhibitor; [HSDB] An eye irritant; [MSDSonline]",
        "links": [],
        "cross_references": [
          {
            "type": "name_match",
            "text": "choline",
            "confidence": 1.0,
            "uuid": "a21a71e9-9d67-4563-9da2-98c4dcb1b766",
            "name": "Choline",
            "url": "https://haz-map.com/Agents/12978",
            "category": "agents"
          }
        ]
      },
      "reference_link_1": {
        "original_name": "Reference Link #1",
        "value": "INCHEM: Thiocarbamate pesticides: a general introduction (EHC 76 - 1988)",
        "links": [
          {
            "text": "INCHEM: Thiocarbamate pesticides: a general introduction (EHC 76 - 1988)",
            "url": "http://www.inchem.org/documents/ehc/ehc/ehc76.htm"
          }
        ],
        "cross_references": []
      },
      "biomedical_references": {
        "original_name": "Biomedical References",
        "value": "Search PubMed",
        "links": [
          {
            "text": "Search PubMed",
            "url": "https://www.ncbi.nlm.nih.gov/pubmed?term=Pebulate%20AND%20human%5Bmh%5D%20AND%20%28Occupational%20Diseases%20%5Bmh%5D%20OR%20Occupational%20Exposure%20%5Bmh%5D%29%20%20AND%20%28tox%5Bsb%5D%29&cmd=search"
          }
        ],
        "cross_references": []
      }
    },
    "exposure_assessment": {
      "vapor_pressure": {
        "original_name": "Vapor Pressure",
        "value": "0.0885 mm Hg",
        "links": [],
        "cross_references": []
      },
      "explanatory_notes": {
        "original_name": "Explanatory Notes",
        "value": "VP from ChemIDplus;",
        "links": [],
        "cross_references": []
      },
      "reference_link_2": {
        "original_name": "Reference Link #2",
        "value": "EPA Pesticide Chemical Search",
        "links": [
          {
            "text": "EPA Pesticide Chemical Search",
            "url": "https://iaspub.epa.gov/apex/pesticides/f?p=CHEMICALSEARCH:1:"
          }
        ],
        "cross_references": [
          {
            "type": "name_match",
            "text": "mica",
            "confidence": 1.0,
            "uuid": "433f26f1-c399-4596-b179-ce3843cfd465",
            "name": "Mica",
            "url": "https://haz-map.com/Agents/621",
            "category": "agents"
          }
        ]
      }
    },
    "diseases_processes_and_activities_linked_to_this_agent": {
      "processes": {
        "original_name": "Processes",
        "value": "Industrial Processes with risk of exposure: Farming (Pesticides)",
        "links": [
          {
            "text": "Farming (Pesticides)",
            "url": "https://haz-map.com/Processes/218"
          }
        ],
        "cross_references": [
          {
            "type": "url_match",
            "text": "Farming (Pesticides)",
            "url": "https://haz-map.com/Processes/218",
            "confidence": 1.0,
            "uuid": "cf1e5815-c9bb-4917-82a5-391848170b7e",
            "name": "Farming (Pesticides)",
            "category": "processes"
          }
        ]
      }
    }
  },
  "cross_references": [
    {
      "type": "url_match",
      "text": "Farming (Pesticides)",
      "url": "https://haz-map.com/Processes/218",
      "confidence": 1.0,
      "uuid": "cf1e5815-c9bb-4917-82a5-391848170b7e",
      "name": "Farming (Pesticides)",
      "category": "processes"
    },
    {
      "type": "name_match",
      "text": "mica",
      "confidence": 1.0,
      "uuid": "433f26f1-c399-4596-b179-ce3843cfd465",
      "name": "Mica",
      "url": "https://haz-map.com/Agents/621",
      "category": "agents"
    },
    {
      "type": "name_match",
      "text": "herbicides",
      "confidence": 1.0,
      "uuid": "195f29ae-3f15-47c5-836d-0a9791db3fc1",
      "name": "HERBICIDES",
      "url": "https://haz-map.com/Agents/703",
      "category": "agents"
    },
    {
      "type": "name_match",
      "text": "moth",
      "confidence": 1.0,
      "uuid": "14a33a40-8ea5-4ef5-b71a-3731a9d4ba32",
      "name": "Moth",
      "url": "https://haz-map.com/Agents/907",
      "category": "agents"
    },
    {
      "type": "name_match",
      "text": "ht",
      "confidence": 1.0,
      "uuid": "764df367-8d53-4a11-81a2-31ccfe122a8d",
      "name": "HT",
      "url": "https://haz-map.com/Agents/2168",
      "category": "agents"
    },
    {
      "type": "name_match",
      "text": "pebulate",
      "confidence": 1.0,
      "uuid": "904e2ae4-c04e-42b5-9d4d-904e97cc7310",
      "name": "Pebulate",
      "url": "https://haz-map.com/Agents/6544",
      "category": "agents"
    },
    {
      "type": "name_match",
      "text": "choline",
      "confidence": 1.0,
      "uuid": "a21a71e9-9d67-4563-9da2-98c4dcb1b766",
      "name": "Choline",
      "url": "https://haz-map.com/Agents/12978",
      "category": "agents"
    }
  ],
  "all_links": [
    {
      "text": "INCHEM: Thiocarbamate pesticides: a general introduction (EHC 76 - 1988)",
      "url": "http://www.inchem.org/documents/ehc/ehc/ehc76.htm"
    },
    {
      "text": "Search PubMed",
      "url": "https://www.ncbi.nlm.nih.gov/pubmed?term=Pebulate%20AND%20human%5Bmh%5D%20AND%20%28Occupational%20Diseases%20%5Bmh%5D%20OR%20Occupational%20Exposure%20%5Bmh%5D%29%20%20AND%20%28tox%5Bsb%5D%29&cmd=search"
    },
    {
      "text": "EPA Pesticide Chemical Search",
      "url": "https://iaspub.epa.gov/apex/pesticides/f?p=CHEMICALSEARCH:1:"
    },
    {
      "text": "Farming (Pesticides)",
      "url": "https://haz-map.com/Processes/218"
    }
  ]
}