{
  "metadata": {
    "scraped_from": "https://haz-map.com/Agents/12905",
    "entity_name": "Chlorflurenol",
    "category": "agents",
    "uuid": "90624387-355d-4c23-a062-63bb2a807609",
    "scraped_at": "2025-07-23T21:11:00.767094"
  },
  "parsed_at": "2025-07-24T01:02:08.451463",
  "title": "Chlorflurenol",
  "sections": {
    "general": {
      "agent_name": {
        "original_name": "Agent Name",
        "value": "Chlorflurenol",
        "links": [],
        "cross_references": [
          {
            "type": "name_match",
            "text": "chlorflurenol",
            "confidence": 1.0,
            "uuid": "90624387-355d-4c23-a062-63bb2a807609",
            "name": "Chlorflurenol",
            "url": "https://haz-map.com/Agents/12905",
            "category": "agents"
          }
        ]
      },
      "cas_number": {
        "original_name": "CAS Number",
        "value": "2464-37-1",
        "links": [],
        "cross_references": []
      },
      "formula": {
        "original_name": "Formula",
        "value": "C14-H9-Cl-O3",
        "links": [],
        "cross_references": []
      },
      "major_category": {
        "original_name": "Major Category",
        "value": "Pesticides",
        "links": [],
        "cross_references": []
      },
      "synonyms": {
        "original_name": "Synonyms",
        "value": "2-Chloro-9-hydroxy-9H-fluorene-9-carboxylic acid; 2-Chloro-9-hydroxyfluorene-9-carboxylic acid; CF 125; CME 73170P; Chlorflurecol; Chloroflurenol [ISO-French]; IT 3299; 9H-Fluorene-9-carboxylic acid, 2-chloro-9-hydroxy-; Fluorene-9-carboxylic acid, 2-chloro-9-hydroxy- (8CI); [ChemIDplus]",
        "links": [],
        "cross_references": [
          {
            "type": "name_match",
            "text": "fluorene",
            "confidence": 1.0,
            "uuid": "4ec22b2a-d246-4dea-a0fe-a9022b632454",
            "name": "Fluorene",
            "url": "https://haz-map.com/Agents/7844",
            "category": "agents"
          },
          {
            "type": "name_match",
            "text": "9-hydroxyfluorene",
            "confidence": 1.0,
            "uuid": "f8c3d07e-6fa0-4e63-bd4c-9c767e906d19",
            "name": "9-Hydroxyfluorene",
            "url": "https://haz-map.com/Agents/11339",
            "category": "agents"
          }
        ]
      },
      "category": {
        "original_name": "Category",
        "value": "Herbicides, Other",
        "links": [],
        "cross_references": [
          {
            "type": "name_match",
            "text": "herbicides",
            "confidence": 1.0,
            "uuid": "195f29ae-3f15-47c5-836d-0a9791db3fc1",
            "name": "HERBICIDES",
            "url": "https://haz-map.com/Agents/703",
            "category": "agents"
          }
        ]
      },
      "description": {
        "original_name": "Description",
        "value": "Formulated as an emulsifiable concentrate and granular; [Reference #1] Solid; [Sigma-Aldrich MSDS]",
        "links": [],
        "cross_references": []
      },
      "sourcesuses": {
        "original_name": "Sources/Uses",
        "value": "Used as an herbicide and plant growth regulator for agricultural, commercial, and residential applications; No registered feed/food uses; [Reference #1]",
        "links": [],
        "cross_references": []
      },
      "comments": {
        "original_name": "Comments",
        "value": "Composed of three components said to be inseparable and manufactured in a consistent ratio; Contains 65-70% Methyl 2-chloro-9-hydroxyfluorene-9-carboxylate, 10-15% methyl 2,7-dichloro-9-hydroxyfluorene-9-carboxylate, and 15-20% methyl 9-hydroxyfluorene-9-carboxylate; “All loaders, applicators and other handlers must wear: long sleeve shirt, long pants, shoes plus socks, and chemical-resistant gloves.” [Reference #1] May cause irritation; [Sigma-Aldrich MSDS]",
        "links": [],
        "cross_references": [
          {
            "type": "name_match",
            "text": "mica",
            "confidence": 1.0,
            "uuid": "433f26f1-c399-4596-b179-ce3843cfd465",
            "name": "Mica",
            "url": "https://haz-map.com/Agents/621",
            "category": "agents"
          },
          {
            "type": "name_match",
            "text": "fluorene",
            "confidence": 1.0,
            "uuid": "4ec22b2a-d246-4dea-a0fe-a9022b632454",
            "name": "Fluorene",
            "url": "https://haz-map.com/Agents/7844",
            "category": "agents"
          },
          {
            "type": "name_match",
            "text": "9-hydroxyfluorene",
            "confidence": 1.0,
            "uuid": "f8c3d07e-6fa0-4e63-bd4c-9c767e906d19",
            "name": "9-Hydroxyfluorene",
            "url": "https://haz-map.com/Agents/11339",
            "category": "agents"
          }
        ]
      },
      "reference_link_1": {
        "original_name": "Reference Link #1",
        "value": "EPA Pesticide Chemical Search",
        "links": [
          {
            "text": "EPA Pesticide Chemical Search",
            "url": "https://iaspub.epa.gov/apex/pesticides/f?p=CHEMICALSEARCH:1:"
          }
        ],
        "cross_references": [
          {
            "type": "name_match",
            "text": "mica",
            "confidence": 1.0,
            "uuid": "433f26f1-c399-4596-b179-ce3843cfd465",
            "name": "Mica",
            "url": "https://haz-map.com/Agents/621",
            "category": "agents"
          }
        ]
      },
      "biomedical_references": {
        "original_name": "Biomedical References",
        "value": "Search PubMed",
        "links": [
          {
            "text": "Search PubMed",
            "url": "https://www.ncbi.nlm.nih.gov/pubmed?term=Chlorflurenol%20AND%20human%5Bmh%5D%20AND%20%28Occupational%20Diseases%20%5Bmh%5D%20OR%20Occupational%20Exposure%20%5Bmh%5D%29%20%20AND%20%28tox%5Bsb%5D%29&cmd=search"
          }
        ],
        "cross_references": []
      }
    },
    "exposure_assessment": {
      "vapor_pressure": {
        "original_name": "Vapor Pressure",
        "value": "5E-05 mm Hg",
        "links": [],
        "cross_references": []
      }
    },
    "diseases_processes_and_activities_linked_to_this_agent": {
      "processes": {
        "original_name": "Processes",
        "value": "Industrial Processes with risk of exposure: Farming (Pesticides)",
        "links": [
          {
            "text": "Farming (Pesticides)",
            "url": "https://haz-map.com/Processes/218"
          }
        ],
        "cross_references": [
          {
            "type": "url_match",
            "text": "Farming (Pesticides)",
            "url": "https://haz-map.com/Processes/218",
            "confidence": 1.0,
            "uuid": "cf1e5815-c9bb-4917-82a5-391848170b7e",
            "name": "Farming (Pesticides)",
            "category": "processes"
          }
        ]
      }
    }
  },
  "cross_references": [
    {
      "type": "url_match",
      "text": "Farming (Pesticides)",
      "url": "https://haz-map.com/Processes/218",
      "confidence": 1.0,
      "uuid": "cf1e5815-c9bb-4917-82a5-391848170b7e",
      "name": "Farming (Pesticides)",
      "category": "processes"
    },
    {
      "type": "name_match",
      "text": "mica",
      "confidence": 1.0,
      "uuid": "433f26f1-c399-4596-b179-ce3843cfd465",
      "name": "Mica",
      "url": "https://haz-map.com/Agents/621",
      "category": "agents"
    },
    {
      "type": "name_match",
      "text": "herbicides",
      "confidence": 1.0,
      "uuid": "195f29ae-3f15-47c5-836d-0a9791db3fc1",
      "name": "HERBICIDES",
      "url": "https://haz-map.com/Agents/703",
      "category": "agents"
    },
    {
      "type": "name_match",
      "text": "fluorene",
      "confidence": 1.0,
      "uuid": "4ec22b2a-d246-4dea-a0fe-a9022b632454",
      "name": "Fluorene",
      "url": "https://haz-map.com/Agents/7844",
      "category": "agents"
    },
    {
      "type": "name_match",
      "text": "9-hydroxyfluorene",
      "confidence": 1.0,
      "uuid": "f8c3d07e-6fa0-4e63-bd4c-9c767e906d19",
      "name": "9-Hydroxyfluorene",
      "url": "https://haz-map.com/Agents/11339",
      "category": "agents"
    },
    {
      "type": "name_match",
      "text": "chlorflurenol",
      "confidence": 1.0,
      "uuid": "90624387-355d-4c23-a062-63bb2a807609",
      "name": "Chlorflurenol",
      "url": "https://haz-map.com/Agents/12905",
      "category": "agents"
    }
  ],
  "all_links": [
    {
      "text": "EPA Pesticide Chemical Search",
      "url": "https://iaspub.epa.gov/apex/pesticides/f?p=CHEMICALSEARCH:1:"
    },
    {
      "text": "Search PubMed",
      "url": "https://www.ncbi.nlm.nih.gov/pubmed?term=Chlorflurenol%20AND%20human%5Bmh%5D%20AND%20%28Occupational%20Diseases%20%5Bmh%5D%20OR%20Occupational%20Exposure%20%5Bmh%5D%29%20%20AND%20%28tox%5Bsb%5D%29&cmd=search"
    },
    {
      "text": "Farming (Pesticides)",
      "url": "https://haz-map.com/Processes/218"
    }
  ]
}