{
  "metadata": {
    "scraped_from": "https://haz-map.com/Agents/19416",
    "entity_name": "2-(Methylthio)benzothiazole",
    "category": "agents",
    "uuid": "9080c0a5-8356-484a-9e95-174d82f1fc9f",
    "scraped_at": "2025-07-23T22:05:38.919708"
  },
  "parsed_at": "2025-07-24T01:13:14.835281",
  "title": "2-(Methylthio)benzothiazole",
  "sections": {
    "general": {
      "agent_name": {
        "original_name": "Agent Name",
        "value": "2-(Methylthio)benzothiazole",
        "links": [],
        "cross_references": [
          {
            "type": "name_match",
            "text": "benzothiazole",
            "confidence": 1.0,
            "uuid": "6c7cc5de-c267-4997-9bab-ec67f286b5bb",
            "name": "Benzothiazole",
            "url": "https://haz-map.com/Agents/3866",
            "category": "agents"
          },
          {
            "type": "name_match",
            "text": "thiazole",
            "confidence": 1.0,
            "uuid": "239903f2-a226-4a4b-bc83-285f21b9610c",
            "name": "Thiazole",
            "url": "https://haz-map.com/Agents/17380",
            "category": "agents"
          },
          {
            "type": "name_match",
            "text": "2-(methylthio)benzothiazole",
            "confidence": 1.0,
            "uuid": "9080c0a5-8356-484a-9e95-174d82f1fc9f",
            "name": "2-(Methylthio)benzothiazole",
            "url": "https://haz-map.com/Agents/19416",
            "category": "agents"
          }
        ]
      },
      "cas_number": {
        "original_name": "CAS Number",
        "value": "615-22-5",
        "links": [],
        "cross_references": []
      },
      "formula": {
        "original_name": "Formula",
        "value": "C8-H7-N-S2",
        "links": [],
        "cross_references": []
      },
      "major_category": {
        "original_name": "Major Category",
        "value": "Nitrogen Compounds",
        "links": [],
        "cross_references": [
          {
            "type": "name_match",
            "text": "nitrogen",
            "confidence": 1.0,
            "uuid": "db5e90a9-06d2-45b9-8b81-f345a89b0bc0",
            "name": "Nitrogen",
            "url": "https://haz-map.com/Agents/1072",
            "category": "agents"
          }
        ]
      },
      "synonyms": {
        "original_name": "Synonyms",
        "value": "2-(Methylmercapto)benzothiazole; Benzothiazole, 2-(methylthio)-; [ChemIDplus]",
        "links": [],
        "cross_references": [
          {
            "type": "name_match",
            "text": "benzothiazole",
            "confidence": 1.0,
            "uuid": "6c7cc5de-c267-4997-9bab-ec67f286b5bb",
            "name": "Benzothiazole",
            "url": "https://haz-map.com/Agents/3866",
            "category": "agents"
          },
          {
            "type": "name_match",
            "text": "thiazole",
            "confidence": 1.0,
            "uuid": "239903f2-a226-4a4b-bc83-285f21b9610c",
            "name": "Thiazole",
            "url": "https://haz-map.com/Agents/17380",
            "category": "agents"
          }
        ]
      },
      "category": {
        "original_name": "Category",
        "value": "Thiazoles",
        "links": [],
        "cross_references": [
          {
            "type": "name_match",
            "text": "thiazole",
            "confidence": 1.0,
            "uuid": "239903f2-a226-4a4b-bc83-285f21b9610c",
            "name": "Thiazole",
            "url": "https://haz-map.com/Agents/17380",
            "category": "agents"
          }
        ]
      },
      "description": {
        "original_name": "Description",
        "value": "Yellow liquid with an unpleasant odor; [Acros Organics MSDS]",
        "links": [],
        "cross_references": []
      },
      "comments": {
        "original_name": "Comments",
        "value": "Reacts with water producing toxic fumes; May cause irritation; [Acros Organics MSDS] See \"Mercaptobenzothiazole.\"",
        "links": [],
        "cross_references": [
          {
            "type": "name_match",
            "text": "mercaptobenzothiazole",
            "confidence": 1.0,
            "uuid": "69fdbc1b-da83-4a93-bf41-d6db5fda95a4",
            "name": "Mercaptobenzothiazole",
            "url": "https://haz-map.com/Agents/845",
            "category": "agents"
          },
          {
            "type": "name_match",
            "text": "benzothiazole",
            "confidence": 1.0,
            "uuid": "6c7cc5de-c267-4997-9bab-ec67f286b5bb",
            "name": "Benzothiazole",
            "url": "https://haz-map.com/Agents/3866",
            "category": "agents"
          },
          {
            "type": "name_match",
            "text": "thiazole",
            "confidence": 1.0,
            "uuid": "239903f2-a226-4a4b-bc83-285f21b9610c",
            "name": "Thiazole",
            "url": "https://haz-map.com/Agents/17380",
            "category": "agents"
          },
          {
            "type": "name_match",
            "text": "water",
            "confidence": 1.0,
            "uuid": "6f2a7557-dfd2-49bc-9b4b-a93cd8e225d4",
            "name": "Water",
            "url": "https://haz-map.com/Agents/18668",
            "category": "agents"
          }
        ]
      },
      "biomedical_references": {
        "original_name": "Biomedical References",
        "value": "Search PubMed",
        "links": [
          {
            "text": "Search PubMed",
            "url": "https://www.ncbi.nlm.nih.gov/pubmed?term=2-(Methylthio)benzothiazole%20AND%20human%5Bmh%5D%20AND%20%28Occupational%20Diseases%20%5Bmh%5D%20OR%20Occupational%20Exposure%20%5Bmh%5D%29%20%20AND%20%28tox%5Bsb%5D%29&cmd=search"
          }
        ],
        "cross_references": []
      }
    },
    "exposure_assessment": {
      "vapor_pressure": {
        "original_name": "Vapor Pressure",
        "value": "0.00026 mm Hg",
        "links": [],
        "cross_references": []
      }
    },
    "diseases_processes_and_activities_linked_to_this_agent": {
      "other_information": {
        "original_name": "Other Information",
        "value": "No other related information on this agent was found.",
        "links": [],
        "cross_references": []
      }
    }
  },
  "cross_references": [
    {
      "type": "name_match",
      "text": "mercaptobenzothiazole",
      "confidence": 1.0,
      "uuid": "69fdbc1b-da83-4a93-bf41-d6db5fda95a4",
      "name": "Mercaptobenzothiazole",
      "url": "https://haz-map.com/Agents/845",
      "category": "agents"
    },
    {
      "type": "name_match",
      "text": "nitrogen",
      "confidence": 1.0,
      "uuid": "db5e90a9-06d2-45b9-8b81-f345a89b0bc0",
      "name": "Nitrogen",
      "url": "https://haz-map.com/Agents/1072",
      "category": "agents"
    },
    {
      "type": "name_match",
      "text": "benzothiazole",
      "confidence": 1.0,
      "uuid": "6c7cc5de-c267-4997-9bab-ec67f286b5bb",
      "name": "Benzothiazole",
      "url": "https://haz-map.com/Agents/3866",
      "category": "agents"
    },
    {
      "type": "name_match",
      "text": "thiazole",
      "confidence": 1.0,
      "uuid": "239903f2-a226-4a4b-bc83-285f21b9610c",
      "name": "Thiazole",
      "url": "https://haz-map.com/Agents/17380",
      "category": "agents"
    },
    {
      "type": "name_match",
      "text": "water",
      "confidence": 1.0,
      "uuid": "6f2a7557-dfd2-49bc-9b4b-a93cd8e225d4",
      "name": "Water",
      "url": "https://haz-map.com/Agents/18668",
      "category": "agents"
    },
    {
      "type": "name_match",
      "text": "2-(methylthio)benzothiazole",
      "confidence": 1.0,
      "uuid": "9080c0a5-8356-484a-9e95-174d82f1fc9f",
      "name": "2-(Methylthio)benzothiazole",
      "url": "https://haz-map.com/Agents/19416",
      "category": "agents"
    }
  ],
  "all_links": [
    {
      "text": "Search PubMed",
      "url": "https://www.ncbi.nlm.nih.gov/pubmed?term=2-(Methylthio)benzothiazole%20AND%20human%5Bmh%5D%20AND%20%28Occupational%20Diseases%20%5Bmh%5D%20OR%20Occupational%20Exposure%20%5Bmh%5D%29%20%20AND%20%28tox%5Bsb%5D%29&cmd=search"
    }
  ]
}