{
  "metadata": {
    "scraped_from": "https://haz-map.com/Agents/12311",
    "entity_name": "Hymecromone",
    "category": "agents",
    "uuid": "9095c763-691d-4449-8f1f-123d8baccd23",
    "scraped_at": "2025-07-23T21:07:07.186618"
  },
  "parsed_at": "2025-07-24T01:17:46.198362",
  "title": "Hymecromone",
  "sections": {
    "general": {
      "agent_name": {
        "original_name": "Agent Name",
        "value": "Hymecromone",
        "links": [],
        "cross_references": [
          {
            "type": "name_match",
            "text": "hymecromone",
            "confidence": 1.0,
            "uuid": "9095c763-691d-4449-8f1f-123d8baccd23",
            "name": "Hymecromone",
            "url": "https://haz-map.com/Agents/12311",
            "category": "agents"
          }
        ]
      },
      "cas_number": {
        "original_name": "CAS Number",
        "value": "90-33-5",
        "links": [],
        "cross_references": []
      },
      "formula": {
        "original_name": "Formula",
        "value": "C10-H8-O3",
        "links": [],
        "cross_references": []
      },
      "major_category": {
        "original_name": "Major Category",
        "value": "Other Classes",
        "links": [],
        "cross_references": []
      },
      "synonyms": {
        "original_name": "Synonyms",
        "value": "2H-1-Benzopyran, 7-hydroxy-4-methyl-2-oxo-; 2H-1-Benzopyran-2-one, 7-hydroxy-4-methyl-; 4-Methyl-7-hydroxycoumarin; 4-Methylumbelliferon [Czech]; 4-Methylumbelliferone; 7-Hydroxy-4-methyl-2-oxo-2H-1-benzopyran; 7-Hydroxy-4-methylcoumarin; Bilcolic; Bilicante; Cantabilin; Cantabiline; Cholestil; Cholonerton; Coumarin 4; Crodimon; Cumarote-C; Eurogale; Himecromona [INN-Spanish]; Hymecromon; Hymecromone; Hymecromonum [INN-Latin]; Imecromone [DCIT]; LM 94; LM-94; Medilla; Mendiaxon; Methylumbelliferone; Omega 127; Pilot 447; Resocyanine; beta-Methylumbelliferone; Coumarin, 7-hydroxy-4-methyl-; [ChemIDplus] 7-Hydroxy-4-methyl-2H-1-benzopyran-2-one; 7-Hydroxy-4-methyl-2-oxo-3-chromene; 4-MU; Biliton H; Cholspasmin; Himecol; [Merck Index] 7-Hydroxy-4-methyl-2,H-1-benzo-pyran-2-one; Coumarin 456; Eurogae; Imechromone; IM 94; Umbelliferone, 4-methyl; [CAMEO]",
        "links": [],
        "cross_references": [
          {
            "type": "name_match",
            "text": "coumarin",
            "confidence": 1.0,
            "uuid": "275bf055-292c-48e9-8519-bb571bbad6e1",
            "name": "Coumarin",
            "url": "https://haz-map.com/Agents/7832",
            "category": "agents"
          },
          {
            "type": "name_match",
            "text": "hymecromone",
            "confidence": 1.0,
            "uuid": "9095c763-691d-4449-8f1f-123d8baccd23",
            "name": "Hymecromone",
            "url": "https://haz-map.com/Agents/12311",
            "category": "agents"
          },
          {
            "type": "name_match",
            "text": "umbelliferone",
            "confidence": 1.0,
            "uuid": "8147e058-f1ae-434d-a907-c239f41d488f",
            "name": "Umbelliferone",
            "url": "https://haz-map.com/Agents/18494",
            "category": "agents"
          }
        ]
      },
      "category": {
        "original_name": "Category",
        "value": "Other Aromatic Compounds",
        "links": [],
        "cross_references": []
      },
      "description": {
        "original_name": "Description",
        "value": "Colorless solid; [CAMEO] Off-white powder; [Acros Organics MSDS]",
        "links": [],
        "cross_references": []
      },
      "sourcesuses": {
        "original_name": "Sources/Uses",
        "value": "Used as an analytical reagent, fluorescent indicator, and antispasmodic drug; [Merck Index] Used in tunable lasers; [NTP]",
        "links": [],
        "cross_references": []
      },
      "comments": {
        "original_name": "Comments",
        "value": "An irritant; [NTP] Causes tearing, ptosis, and altered sleep time in oral lethal-dose studies of mice and rats; Causes changes in liver and pituitary weights in 26-week constant oral studies of rats; [RTECS] An irritant; Harmful by inhalation and skin absorption; [Acros Organics MSDS]",
        "links": [],
        "cross_references": [
          {
            "type": "name_match",
            "text": "tea",
            "confidence": 1.0,
            "uuid": "773409e5-ac1a-4c9e-9470-9667ca82091c",
            "name": "Tea",
            "url": "https://haz-map.com/Agents/878",
            "category": "agents"
          },
          {
            "type": "name_match",
            "text": "ht",
            "confidence": 1.0,
            "uuid": "764df367-8d53-4a11-81a2-31ccfe122a8d",
            "name": "HT",
            "url": "https://haz-map.com/Agents/2168",
            "category": "agents"
          }
        ]
      },
      "biomedical_references": {
        "original_name": "Biomedical References",
        "value": "Search PubMed",
        "links": [
          {
            "text": "Search PubMed",
            "url": "https://www.ncbi.nlm.nih.gov/pubmed?term=Hymecromone%20AND%20human%5Bmh%5D%20AND%20%28Occupational%20Diseases%20%5Bmh%5D%20OR%20Occupational%20Exposure%20%5Bmh%5D%29%20%20AND%20%28tox%5Bsb%5D%29&cmd=search"
          }
        ],
        "cross_references": []
      }
    },
    "exposure_assessment": {
      "vapor_pressure": {
        "original_name": "Vapor Pressure",
        "value": "7.24E-06 mm Hg",
        "links": [],
        "cross_references": []
      }
    },
    "diseases_processes_and_activities_linked_to_this_agent": {
      "other_information": {
        "original_name": "Other Information",
        "value": "No other related information on this agent was found.",
        "links": [],
        "cross_references": []
      }
    }
  },
  "cross_references": [
    {
      "type": "name_match",
      "text": "tea",
      "confidence": 1.0,
      "uuid": "773409e5-ac1a-4c9e-9470-9667ca82091c",
      "name": "Tea",
      "url": "https://haz-map.com/Agents/878",
      "category": "agents"
    },
    {
      "type": "name_match",
      "text": "ht",
      "confidence": 1.0,
      "uuid": "764df367-8d53-4a11-81a2-31ccfe122a8d",
      "name": "HT",
      "url": "https://haz-map.com/Agents/2168",
      "category": "agents"
    },
    {
      "type": "name_match",
      "text": "coumarin",
      "confidence": 1.0,
      "uuid": "275bf055-292c-48e9-8519-bb571bbad6e1",
      "name": "Coumarin",
      "url": "https://haz-map.com/Agents/7832",
      "category": "agents"
    },
    {
      "type": "name_match",
      "text": "hymecromone",
      "confidence": 1.0,
      "uuid": "9095c763-691d-4449-8f1f-123d8baccd23",
      "name": "Hymecromone",
      "url": "https://haz-map.com/Agents/12311",
      "category": "agents"
    },
    {
      "type": "name_match",
      "text": "umbelliferone",
      "confidence": 1.0,
      "uuid": "8147e058-f1ae-434d-a907-c239f41d488f",
      "name": "Umbelliferone",
      "url": "https://haz-map.com/Agents/18494",
      "category": "agents"
    }
  ],
  "all_links": [
    {
      "text": "Search PubMed",
      "url": "https://www.ncbi.nlm.nih.gov/pubmed?term=Hymecromone%20AND%20human%5Bmh%5D%20AND%20%28Occupational%20Diseases%20%5Bmh%5D%20OR%20Occupational%20Exposure%20%5Bmh%5D%29%20%20AND%20%28tox%5Bsb%5D%29&cmd=search"
    }
  ]
}