{
  "metadata": {
    "scraped_from": "https://haz-map.com/Agents/17073",
    "entity_name": "Quinalizarin",
    "category": "agents",
    "uuid": "90974e44-d645-48a9-92dd-a41da4469cd5",
    "scraped_at": "2025-07-23T21:43:19.495598"
  },
  "parsed_at": "2025-07-24T01:04:05.712767",
  "title": "Quinalizarin",
  "sections": {
    "general": {
      "agent_name": {
        "original_name": "Agent Name",
        "value": "Quinalizarin",
        "links": [],
        "cross_references": [
          {
            "type": "name_match",
            "text": "alizarin",
            "confidence": 1.0,
            "uuid": "39ef3865-0065-4bcb-b826-5d0ca8fc731f",
            "name": "Alizarin",
            "url": "https://haz-map.com/Agents/1958",
            "category": "agents"
          },
          {
            "type": "name_match",
            "text": "quinalizarin",
            "confidence": 1.0,
            "uuid": "90974e44-d645-48a9-92dd-a41da4469cd5",
            "name": "Quinalizarin",
            "url": "https://haz-map.com/Agents/17073",
            "category": "agents"
          }
        ]
      },
      "alternative_name": {
        "original_name": "Alternative Name",
        "value": "1,2,5,8-Tetrahydroxy anthraquinone",
        "links": [],
        "cross_references": [
          {
            "type": "name_match",
            "text": "quinone",
            "confidence": 1.0,
            "uuid": "d01e66c3-ad06-4707-8d42-3c6655001c1a",
            "name": "Quinone",
            "url": "https://haz-map.com/Agents/303",
            "category": "agents"
          },
          {
            "type": "name_match",
            "text": "anthraquinone",
            "confidence": 1.0,
            "uuid": "953f43e3-2275-41f0-9f8e-f5764f83b717",
            "name": "Anthraquinone",
            "url": "https://haz-map.com/Agents/3713",
            "category": "agents"
          }
        ]
      },
      "cas_number": {
        "original_name": "CAS Number",
        "value": "81-61-8",
        "links": [],
        "cross_references": []
      },
      "formula": {
        "original_name": "Formula",
        "value": "C14-H8-O6",
        "links": [],
        "cross_references": []
      },
      "major_category": {
        "original_name": "Major Category",
        "value": "Dyes",
        "links": [],
        "cross_references": []
      },
      "synonyms": {
        "original_name": "Synonyms",
        "value": "1,2,5,8-Tetrahydroxy anthraquinone; 1,2,5,8-Tetrahydroxy-9,10-anthracenedione; 1,2,5,8-Tetrahydroxy-9,10-anthraquinone; 1,2,5,8-Tetrahydroxyanthracinon; 1,2,5,8-Tetrahydroxyanthraquinone; 1,4,5,6-Tetrahydroxyanthraquinone; Alizarinbordeaux; Alizarine Bordeaux; Alizarine Bordeaux B; C.I. 58500; C.I. Mordant Violet 26; Khinalizarin; Quinalizarine; 9,10-Anthracenedione, 1,2,5,8-tetrahydroxy-; Anthraquinone, 1,2,5,8-tetrahydroxy-; [ChemIDplus]",
        "links": [],
        "cross_references": [
          {
            "type": "name_match",
            "text": "quinone",
            "confidence": 1.0,
            "uuid": "d01e66c3-ad06-4707-8d42-3c6655001c1a",
            "name": "Quinone",
            "url": "https://haz-map.com/Agents/303",
            "category": "agents"
          },
          {
            "type": "name_match",
            "text": "alizarin",
            "confidence": 1.0,
            "uuid": "39ef3865-0065-4bcb-b826-5d0ca8fc731f",
            "name": "Alizarin",
            "url": "https://haz-map.com/Agents/1958",
            "category": "agents"
          },
          {
            "type": "name_match",
            "text": "anthraquinone",
            "confidence": 1.0,
            "uuid": "953f43e3-2275-41f0-9f8e-f5764f83b717",
            "name": "Anthraquinone",
            "url": "https://haz-map.com/Agents/3713",
            "category": "agents"
          },
          {
            "type": "name_match",
            "text": "anthracene",
            "confidence": 1.0,
            "uuid": "f11a62e4-1e69-4f6d-a8b7-240c9de086ff",
            "name": "Anthracene",
            "url": "https://haz-map.com/Agents/7821",
            "category": "agents"
          },
          {
            "type": "name_match",
            "text": "quinalizarin",
            "confidence": 1.0,
            "uuid": "90974e44-d645-48a9-92dd-a41da4469cd5",
            "name": "Quinalizarin",
            "url": "https://haz-map.com/Agents/17073",
            "category": "agents"
          }
        ]
      },
      "category": {
        "original_name": "Category",
        "value": "Anthraquinone Dyes",
        "links": [],
        "cross_references": [
          {
            "type": "name_match",
            "text": "quinone",
            "confidence": 1.0,
            "uuid": "d01e66c3-ad06-4707-8d42-3c6655001c1a",
            "name": "Quinone",
            "url": "https://haz-map.com/Agents/303",
            "category": "agents"
          },
          {
            "type": "name_match",
            "text": "anthraquinone",
            "confidence": 1.0,
            "uuid": "953f43e3-2275-41f0-9f8e-f5764f83b717",
            "name": "Anthraquinone",
            "url": "https://haz-map.com/Agents/3713",
            "category": "agents"
          }
        ]
      },
      "description": {
        "original_name": "Description",
        "value": "Red solid with a green metallic luster; [Merck Index] Red-brown powder; [Acros Organics MSDS]",
        "links": [],
        "cross_references": []
      },
      "sourcesuses": {
        "original_name": "Sources/Uses",
        "value": "An irritant; [Acros Organics MSDS] A dye, still occasionally used to print cotton; [Merck Index]",
        "links": [],
        "cross_references": []
      },
      "comments": {
        "original_name": "Comments",
        "value": "Oral lethal dose (rat) > 500 mg/kg; [RTECS]",
        "links": [],
        "cross_references": []
      },
      "biomedical_references": {
        "original_name": "Biomedical References",
        "value": "Search PubMed",
        "links": [
          {
            "text": "Search PubMed",
            "url": "https://www.ncbi.nlm.nih.gov/pubmed?term=Quinalizarin%20AND%20human%5Bmh%5D%20AND%20%28Occupational%20Diseases%20%5Bmh%5D%20OR%20Occupational%20Exposure%20%5Bmh%5D%29%20%20AND%20%28tox%5Bsb%5D%29&cmd=search"
          }
        ],
        "cross_references": []
      }
    },
    "exposure_assessment": {
      "vapor_pressure": {
        "original_name": "Vapor Pressure",
        "value": "4.64E-12 mm Hg",
        "links": [],
        "cross_references": []
      }
    },
    "diseases_processes_and_activities_linked_to_this_agent": {
      "processes": {
        "original_name": "Processes",
        "value": "Industrial Processes with risk of exposure: Textiles (Printing, Dyeing, or Finishing)",
        "links": [
          {
            "text": "Textiles (Printing, Dyeing, or Finishing)",
            "url": "https://haz-map.com/Processes/235"
          }
        ],
        "cross_references": []
      }
    }
  },
  "cross_references": [
    {
      "type": "name_match",
      "text": "quinone",
      "confidence": 1.0,
      "uuid": "d01e66c3-ad06-4707-8d42-3c6655001c1a",
      "name": "Quinone",
      "url": "https://haz-map.com/Agents/303",
      "category": "agents"
    },
    {
      "type": "name_match",
      "text": "alizarin",
      "confidence": 1.0,
      "uuid": "39ef3865-0065-4bcb-b826-5d0ca8fc731f",
      "name": "Alizarin",
      "url": "https://haz-map.com/Agents/1958",
      "category": "agents"
    },
    {
      "type": "name_match",
      "text": "anthraquinone",
      "confidence": 1.0,
      "uuid": "953f43e3-2275-41f0-9f8e-f5764f83b717",
      "name": "Anthraquinone",
      "url": "https://haz-map.com/Agents/3713",
      "category": "agents"
    },
    {
      "type": "name_match",
      "text": "anthracene",
      "confidence": 1.0,
      "uuid": "f11a62e4-1e69-4f6d-a8b7-240c9de086ff",
      "name": "Anthracene",
      "url": "https://haz-map.com/Agents/7821",
      "category": "agents"
    },
    {
      "type": "name_match",
      "text": "quinalizarin",
      "confidence": 1.0,
      "uuid": "90974e44-d645-48a9-92dd-a41da4469cd5",
      "name": "Quinalizarin",
      "url": "https://haz-map.com/Agents/17073",
      "category": "agents"
    }
  ],
  "all_links": [
    {
      "text": "Search PubMed",
      "url": "https://www.ncbi.nlm.nih.gov/pubmed?term=Quinalizarin%20AND%20human%5Bmh%5D%20AND%20%28Occupational%20Diseases%20%5Bmh%5D%20OR%20Occupational%20Exposure%20%5Bmh%5D%29%20%20AND%20%28tox%5Bsb%5D%29&cmd=search"
    },
    {
      "text": "Textiles (Printing, Dyeing, or Finishing)",
      "url": "https://haz-map.com/Processes/235"
    }
  ]
}