{
  "metadata": {
    "scraped_from": "https://haz-map.com/Agents/20046",
    "entity_name": "4-Hydroxy-2-butanone",
    "category": "agents",
    "uuid": "90b9ebde-61e9-4652-9174-cbd4818c6c21",
    "scraped_at": "2025-07-23T22:17:56.413579"
  },
  "parsed_at": "2025-07-24T01:16:10.111011",
  "title": "4-Hydroxy-2-butanone",
  "sections": {
    "general": {
      "agent_name": {
        "original_name": "Agent Name",
        "value": "4-Hydroxy-2-butanone",
        "links": [],
        "cross_references": [
          {
            "type": "name_match",
            "text": "2-butanone",
            "confidence": 1.0,
            "uuid": "7755b6c7-e823-404c-b6cc-3fe49558cf7d",
            "name": "2-Butanone",
            "url": "https://haz-map.com/Agents/320",
            "category": "agents"
          },
          {
            "type": "name_match",
            "text": "4-hydroxy-2-butanone",
            "confidence": 1.0,
            "uuid": "90b9ebde-61e9-4652-9174-cbd4818c6c21",
            "name": "4-Hydroxy-2-butanone",
            "url": "https://haz-map.com/Agents/20046",
            "category": "agents"
          }
        ]
      },
      "cas_number": {
        "original_name": "CAS Number",
        "value": "590-90-9",
        "links": [],
        "cross_references": []
      },
      "formula": {
        "original_name": "Formula",
        "value": "C4-H8-O2",
        "links": [],
        "cross_references": []
      },
      "major_category": {
        "original_name": "Major Category",
        "value": "Solvents",
        "links": [],
        "cross_references": []
      },
      "synonyms": {
        "original_name": "Synonyms",
        "value": "3-Ketobutan-1-ol; 3-Oxo-1-butanol; 3-Oxobutanol; 4-Butanol-2-one; Methylolacetone; Monomethylolacetone; 2-Butanone, 4-hydroxy-; 4-Hydroxybutan-2-one; [ChemIDplus]",
        "links": [],
        "cross_references": [
          {
            "type": "name_match",
            "text": "acetone",
            "confidence": 1.0,
            "uuid": "31b7bdae-eb37-44cc-9c56-b6dfc1908d64",
            "name": "Acetone",
            "url": "https://haz-map.com/Agents/138",
            "category": "agents"
          },
          {
            "type": "name_match",
            "text": "2-butanone",
            "confidence": 1.0,
            "uuid": "7755b6c7-e823-404c-b6cc-3fe49558cf7d",
            "name": "2-Butanone",
            "url": "https://haz-map.com/Agents/320",
            "category": "agents"
          }
        ]
      },
      "category": {
        "original_name": "Category",
        "value": "Other Solvents",
        "links": [],
        "cross_references": []
      },
      "description": {
        "original_name": "Description",
        "value": "Colorless liquid; [Alfa Aesar MSDS]",
        "links": [],
        "cross_references": []
      },
      "comments": {
        "original_name": "Comments",
        "value": "An irritant; [Alfa Aesar MSDS] See \"3-Hydroxy-3-methyl-2-butanone.\"",
        "links": [],
        "cross_references": [
          {
            "type": "name_match",
            "text": "2-butanone",
            "confidence": 1.0,
            "uuid": "7755b6c7-e823-404c-b6cc-3fe49558cf7d",
            "name": "2-Butanone",
            "url": "https://haz-map.com/Agents/320",
            "category": "agents"
          },
          {
            "type": "name_match",
            "text": "3-hydroxy-3-methyl-2-butanone",
            "confidence": 1.0,
            "uuid": "80d72104-dcbc-4ecc-9bea-48d3912dda35",
            "name": "3-Hydroxy-3-methyl-2-butanone",
            "url": "https://haz-map.com/Agents/11560",
            "category": "agents"
          }
        ]
      },
      "biomedical_references": {
        "original_name": "Biomedical References",
        "value": "Search PubMed",
        "links": [
          {
            "text": "Search PubMed",
            "url": "https://www.ncbi.nlm.nih.gov/pubmed?term=4-Hydroxy-2-butanone%20AND%20human%5Bmh%5D%20AND%20%28Occupational%20Diseases%20%5Bmh%5D%20OR%20Occupational%20Exposure%20%5Bmh%5D%29%20%20AND%20%28tox%5Bsb%5D%29&cmd=search"
          }
        ],
        "cross_references": []
      }
    },
    "exposure_assessment": {
      "vapor_pressure": {
        "original_name": "Vapor Pressure",
        "value": "0.857 mm Hg",
        "links": [],
        "cross_references": []
      }
    },
    "adverse_effects": {
      "neurotoxin": {
        "original_name": "Neurotoxin",
        "value": "Acute solvent syndrome",
        "links": [],
        "cross_references": []
      }
    },
    "diseases_processes_and_activities_linked_to_this_agent": {
      "diseases": {
        "original_name": "Diseases",
        "value": "Occupational diseases associated with exposure to this agent: Solvents, acute toxic effect",
        "links": [
          {
            "text": "Solvents, acute toxic effect",
            "url": "https://haz-map.com/Diseases/326"
          }
        ],
        "cross_references": [
          {
            "type": "url_match",
            "text": "Solvents, acute toxic effect",
            "url": "https://haz-map.com/Diseases/326",
            "confidence": 1.0,
            "uuid": "581e90e3-9d0c-45f0-aa6c-3468c28da129",
            "name": "Solvents, acute toxic effect",
            "category": "diseases"
          }
        ]
      }
    }
  },
  "cross_references": [
    {
      "type": "url_match",
      "text": "Solvents, acute toxic effect",
      "url": "https://haz-map.com/Diseases/326",
      "confidence": 1.0,
      "uuid": "581e90e3-9d0c-45f0-aa6c-3468c28da129",
      "name": "Solvents, acute toxic effect",
      "category": "diseases"
    },
    {
      "type": "name_match",
      "text": "acetone",
      "confidence": 1.0,
      "uuid": "31b7bdae-eb37-44cc-9c56-b6dfc1908d64",
      "name": "Acetone",
      "url": "https://haz-map.com/Agents/138",
      "category": "agents"
    },
    {
      "type": "name_match",
      "text": "2-butanone",
      "confidence": 1.0,
      "uuid": "7755b6c7-e823-404c-b6cc-3fe49558cf7d",
      "name": "2-Butanone",
      "url": "https://haz-map.com/Agents/320",
      "category": "agents"
    },
    {
      "type": "name_match",
      "text": "3-hydroxy-3-methyl-2-butanone",
      "confidence": 1.0,
      "uuid": "80d72104-dcbc-4ecc-9bea-48d3912dda35",
      "name": "3-Hydroxy-3-methyl-2-butanone",
      "url": "https://haz-map.com/Agents/11560",
      "category": "agents"
    },
    {
      "type": "name_match",
      "text": "4-hydroxy-2-butanone",
      "confidence": 1.0,
      "uuid": "90b9ebde-61e9-4652-9174-cbd4818c6c21",
      "name": "4-Hydroxy-2-butanone",
      "url": "https://haz-map.com/Agents/20046",
      "category": "agents"
    }
  ],
  "all_links": [
    {
      "text": "Search PubMed",
      "url": "https://www.ncbi.nlm.nih.gov/pubmed?term=4-Hydroxy-2-butanone%20AND%20human%5Bmh%5D%20AND%20%28Occupational%20Diseases%20%5Bmh%5D%20OR%20Occupational%20Exposure%20%5Bmh%5D%29%20%20AND%20%28tox%5Bsb%5D%29&cmd=search"
    },
    {
      "text": "Solvents, acute toxic effect",
      "url": "https://haz-map.com/Diseases/326"
    }
  ]
}