{
  "metadata": {
    "scraped_from": "https://haz-map.com/Agents/2880",
    "entity_name": "1-Docosanol",
    "category": "agents",
    "uuid": "90f630b6-7655-4918-b062-a86d48b30c97",
    "scraped_at": "2025-07-23T19:20:22.240699"
  },
  "parsed_at": "2025-07-24T00:57:09.712421",
  "title": "1-Docosanol",
  "sections": {
    "general": {
      "agent_name": {
        "original_name": "Agent Name",
        "value": "1-Docosanol",
        "links": [],
        "cross_references": [
          {
            "type": "name_match",
            "text": "1-docosanol",
            "confidence": 1.0,
            "uuid": "90f630b6-7655-4918-b062-a86d48b30c97",
            "name": "1-Docosanol",
            "url": "https://haz-map.com/Agents/2880",
            "category": "agents"
          }
        ]
      },
      "cas_number": {
        "original_name": "CAS Number",
        "value": "661-19-8",
        "links": [],
        "cross_references": []
      },
      "formula": {
        "original_name": "Formula",
        "value": "C22-H46-O",
        "links": [],
        "cross_references": []
      },
      "major_category": {
        "original_name": "Major Category",
        "value": "Other Classes",
        "links": [],
        "cross_references": []
      },
      "synonyms": {
        "original_name": "Synonyms",
        "value": "Abreva; Behenic alcohol; Behenyl alcohol; Docosanol; Docosyl alcohol; IK 2; Lanette 22; Lidavol; Stenol 1822; Stenol 1822A; Tadenan; n-Docosanol; [ChemIDplus]",
        "links": [],
        "cross_references": []
      },
      "category": {
        "original_name": "Category",
        "value": "Alcohols and Polyols, Other",
        "links": [],
        "cross_references": []
      },
      "description": {
        "original_name": "Description",
        "value": "Colorless waxy solid; [HSDB] Powder; [MSDSonline]",
        "links": [],
        "cross_references": []
      },
      "sourcesuses": {
        "original_name": "Sources/Uses",
        "value": "Used in synthetic fibers and lubricants and as an evaporation retardant on water surfaces; [HSDB] Used to treat benign prostatic hypertrophy; [Merck Index]",
        "links": [],
        "cross_references": [
          {
            "type": "name_match",
            "text": "water",
            "confidence": 1.0,
            "uuid": "6f2a7557-dfd2-49bc-9b4b-a93cd8e225d4",
            "name": "Water",
            "url": "https://haz-map.com/Agents/18668",
            "category": "agents"
          }
        ]
      },
      "comments": {
        "original_name": "Comments",
        "value": "Aliphatic alcohols are metabolized and eliminated efficiently; Not skin sensitizers; May have low-grade liver effects; CNS depression seen in shorter chain alcohols, e.g., 1-hexanol and 1-octanol; [Reference #1] May cause irritation; [MSDSonline]",
        "links": [],
        "cross_references": [
          {
            "type": "name_match",
            "text": "1-hexanol",
            "confidence": 1.0,
            "uuid": "544454a9-fa4b-4f9e-b09e-b08ab6e3c908",
            "name": "1-Hexanol",
            "url": "https://haz-map.com/Agents/1480",
            "category": "agents"
          },
          {
            "type": "name_match",
            "text": "1-octanol",
            "confidence": 1.0,
            "uuid": "c73abd5d-2b7c-4354-92c8-91ab1b01d982",
            "name": "1-Octanol",
            "url": "https://haz-map.com/Agents/2916",
            "category": "agents"
          }
        ]
      },
      "reference_link_1": {
        "original_name": "Reference Link #1",
        "value": "OECD SIDS: Long Chain Alcohols (C6-22 primary aliphatic alcohols) - 2006",
        "links": [
          {
            "text": "OECD SIDS: Long Chain Alcohols (C6-22 primary aliphatic alcohols) - 2006",
            "url": "http://webnet.oecd.org/Hpv/UI/handler.axd?id=9802ef92-2c9d-4f21-877e-90b6133efd73"
          }
        ],
        "cross_references": []
      },
      "biomedical_references": {
        "original_name": "Biomedical References",
        "value": "Search PubMed",
        "links": [
          {
            "text": "Search PubMed",
            "url": "https://www.ncbi.nlm.nih.gov/pubmed?term=1-Docosanol%20AND%20human%5Bmh%5D%20AND%20%28Occupational%20Diseases%20%5Bmh%5D%20OR%20Occupational%20Exposure%20%5Bmh%5D%29%20%20AND%20%28tox%5Bsb%5D%29&cmd=search"
          }
        ],
        "cross_references": []
      }
    },
    "exposure_assessment": {
      "vapor_pressure": {
        "original_name": "Vapor Pressure",
        "value": "6.1E-08 mm Hg",
        "links": [],
        "cross_references": []
      },
      "explanatory_notes": {
        "original_name": "Explanatory Notes",
        "value": "Flash point = 195 deg C; [eChemPortal: IUCLID]",
        "links": [],
        "cross_references": [
          {
            "type": "name_match",
            "text": "ash",
            "confidence": 1.0,
            "uuid": "68b360f1-5ad0-4337-bea0-d7adca2961b5",
            "name": "Ash",
            "url": "https://haz-map.com/Agents/965",
            "category": "agents"
          }
        ]
      }
    },
    "diseases_processes_and_activities_linked_to_this_agent": {
      "other_information": {
        "original_name": "Other Information",
        "value": "No other related information on this agent was found.",
        "links": [],
        "cross_references": []
      }
    }
  },
  "cross_references": [
    {
      "type": "name_match",
      "text": "ash",
      "confidence": 1.0,
      "uuid": "68b360f1-5ad0-4337-bea0-d7adca2961b5",
      "name": "Ash",
      "url": "https://haz-map.com/Agents/965",
      "category": "agents"
    },
    {
      "type": "name_match",
      "text": "1-hexanol",
      "confidence": 1.0,
      "uuid": "544454a9-fa4b-4f9e-b09e-b08ab6e3c908",
      "name": "1-Hexanol",
      "url": "https://haz-map.com/Agents/1480",
      "category": "agents"
    },
    {
      "type": "name_match",
      "text": "1-docosanol",
      "confidence": 1.0,
      "uuid": "90f630b6-7655-4918-b062-a86d48b30c97",
      "name": "1-Docosanol",
      "url": "https://haz-map.com/Agents/2880",
      "category": "agents"
    },
    {
      "type": "name_match",
      "text": "1-octanol",
      "confidence": 1.0,
      "uuid": "c73abd5d-2b7c-4354-92c8-91ab1b01d982",
      "name": "1-Octanol",
      "url": "https://haz-map.com/Agents/2916",
      "category": "agents"
    },
    {
      "type": "name_match",
      "text": "water",
      "confidence": 1.0,
      "uuid": "6f2a7557-dfd2-49bc-9b4b-a93cd8e225d4",
      "name": "Water",
      "url": "https://haz-map.com/Agents/18668",
      "category": "agents"
    }
  ],
  "all_links": [
    {
      "text": "OECD SIDS: Long Chain Alcohols (C6-22 primary aliphatic alcohols) - 2006",
      "url": "http://webnet.oecd.org/Hpv/UI/handler.axd?id=9802ef92-2c9d-4f21-877e-90b6133efd73"
    },
    {
      "text": "Search PubMed",
      "url": "https://www.ncbi.nlm.nih.gov/pubmed?term=1-Docosanol%20AND%20human%5Bmh%5D%20AND%20%28Occupational%20Diseases%20%5Bmh%5D%20OR%20Occupational%20Exposure%20%5Bmh%5D%29%20%20AND%20%28tox%5Bsb%5D%29&cmd=search"
    }
  ]
}