{
  "metadata": {
    "scraped_from": "https://haz-map.com/Agents/6145",
    "entity_name": "Methyl stearate",
    "category": "agents",
    "uuid": "91849015-475c-4677-ae71-64afce7c32d0",
    "scraped_at": "2025-07-23T19:58:59.342188"
  },
  "parsed_at": "2025-07-24T01:02:49.555279",
  "title": "Methyl stearate",
  "sections": {
    "general": {
      "agent_name": {
        "original_name": "Agent Name",
        "value": "Methyl stearate",
        "links": [],
        "cross_references": [
          {
            "type": "name_match",
            "text": "tea",
            "confidence": 1.0,
            "uuid": "773409e5-ac1a-4c9e-9470-9667ca82091c",
            "name": "Tea",
            "url": "https://haz-map.com/Agents/878",
            "category": "agents"
          },
          {
            "type": "name_match",
            "text": "methyl stearate",
            "confidence": 1.0,
            "uuid": "91849015-475c-4677-ae71-64afce7c32d0",
            "name": "Methyl stearate",
            "url": "https://haz-map.com/Agents/6145",
            "category": "agents"
          }
        ]
      },
      "cas_number": {
        "original_name": "CAS Number",
        "value": "112-61-8",
        "links": [],
        "cross_references": []
      },
      "formula": {
        "original_name": "Formula",
        "value": "C19-H38-O2",
        "links": [],
        "cross_references": []
      },
      "major_category": {
        "original_name": "Major Category",
        "value": "Other Classes",
        "links": [],
        "cross_references": []
      },
      "synonyms": {
        "original_name": "Synonyms",
        "value": "Emery 2218; Kemester 9018; Kemester 9718; Metholene 2218; Methyl n-octadecanoate; Methyl octadecanoate; Octadecanoic acid, methyl ester; Stearic acid, methyl ester; n-Octadecanoic acid methyl ester; [ChemIDplus]",
        "links": [],
        "cross_references": [
          {
            "type": "name_match",
            "text": "emery",
            "confidence": 1.0,
            "uuid": "9c489b3c-513f-41aa-b898-a2242b92d2b4",
            "name": "Emery",
            "url": "https://haz-map.com/Agents/478",
            "category": "agents"
          },
          {
            "type": "name_match",
            "text": "tea",
            "confidence": 1.0,
            "uuid": "773409e5-ac1a-4c9e-9470-9667ca82091c",
            "name": "Tea",
            "url": "https://haz-map.com/Agents/878",
            "category": "agents"
          },
          {
            "type": "name_match",
            "text": "stearic acid",
            "confidence": 1.0,
            "uuid": "bca9cb9c-5b13-46e3-ab28-e8e0d566876e",
            "name": "Stearic acid",
            "url": "https://haz-map.com/Agents/7203",
            "category": "agents"
          }
        ]
      },
      "category": {
        "original_name": "Category",
        "value": "Stearates",
        "links": [],
        "cross_references": [
          {
            "type": "name_match",
            "text": "tea",
            "confidence": 1.0,
            "uuid": "773409e5-ac1a-4c9e-9470-9667ca82091c",
            "name": "Tea",
            "url": "https://haz-map.com/Agents/878",
            "category": "agents"
          },
          {
            "type": "name_match",
            "text": "stearates",
            "confidence": 1.0,
            "uuid": "045c9fd5-f3b6-4b87-bd04-15b7f96495b6",
            "name": "STEARATES",
            "url": "https://haz-map.com/Agents/1690",
            "category": "agents"
          }
        ]
      },
      "description": {
        "original_name": "Description",
        "value": "Semi-solid; mp = 37.8 deg C; [Hawley] White solid or semi-solid; mp = 39.1 deg C; [HSDB] Off-white crystalline solid; mp = 40-42 deg C; [MSDSonline]",
        "links": [],
        "cross_references": [
          {
            "type": "fuzzy_match",
            "text": "crystalline",
            "matched_name": "Silica, crystalline",
            "confidence": 0.7061403508771931,
            "uuid": "f920e8a2-46df-41b7-af8d-0368a777251e",
            "category": "agents",
            "url": "https://haz-map.com/Agents/427"
          }
        ]
      },
      "sourcesuses": {
        "original_name": "Sources/Uses",
        "value": "Found in raw beef and as flavoring component of cassava, gari, farine, and clove; Used to make stearic acid detergents, emulsifiers, wetting agents, stabilizers, resins, and plasticizers; Also used as a lubricant in textile and molding trades and in lipstick, nail varnishes, and ointments; [HSDB]",
        "links": [],
        "cross_references": [
          {
            "type": "name_match",
            "text": "tea",
            "confidence": 1.0,
            "uuid": "773409e5-ac1a-4c9e-9470-9667ca82091c",
            "name": "Tea",
            "url": "https://haz-map.com/Agents/878",
            "category": "agents"
          },
          {
            "type": "name_match",
            "text": "stearic acid",
            "confidence": 1.0,
            "uuid": "bca9cb9c-5b13-46e3-ab28-e8e0d566876e",
            "name": "Stearic acid",
            "url": "https://haz-map.com/Agents/7203",
            "category": "agents"
          }
        ]
      },
      "comments": {
        "original_name": "Comments",
        "value": "An irritant; [MSDSonline] See \"STEARATES.\"",
        "links": [],
        "cross_references": [
          {
            "type": "name_match",
            "text": "tea",
            "confidence": 1.0,
            "uuid": "773409e5-ac1a-4c9e-9470-9667ca82091c",
            "name": "Tea",
            "url": "https://haz-map.com/Agents/878",
            "category": "agents"
          },
          {
            "type": "name_match",
            "text": "stearates",
            "confidence": 1.0,
            "uuid": "045c9fd5-f3b6-4b87-bd04-15b7f96495b6",
            "name": "STEARATES",
            "url": "https://haz-map.com/Agents/1690",
            "category": "agents"
          }
        ]
      },
      "biomedical_references": {
        "original_name": "Biomedical References",
        "value": "Search PubMed",
        "links": [
          {
            "text": "Search PubMed",
            "url": "https://www.ncbi.nlm.nih.gov/pubmed?term=Methyl+stearate%20AND%20human%5Bmh%5D%20AND%20%28Occupational%20Diseases%20%5Bmh%5D%20OR%20Occupational%20Exposure%20%5Bmh%5D%29%20%20AND%20%28tox%5Bsb%5D%29&cmd=search"
          }
        ],
        "cross_references": []
      }
    },
    "exposure_assessment": {
      "vapor_pressure": {
        "original_name": "Vapor Pressure",
        "value": "1.36E-05 mm Hg",
        "links": [],
        "cross_references": []
      },
      "nfpa": {
        "original_name": "NFPA",
        "value": "must be preheated",
        "links": [],
        "cross_references": []
      }
    },
    "diseases_processes_and_activities_linked_to_this_agent": {
      "processes": {
        "original_name": "Processes",
        "value": "Industrial Processes with risk of exposure: Molding and Core Making Textiles (Fiber & Fabric Manufacturing)",
        "links": [
          {
            "text": "Molding and Core Making",
            "url": "https://haz-map.com/Processes/22"
          },
          {
            "text": "Textiles (Fiber & Fabric Manufacturing)",
            "url": "https://haz-map.com/Processes/135"
          }
        ],
        "cross_references": [
          {
            "type": "url_match",
            "text": "Molding and Core Making",
            "url": "https://haz-map.com/Processes/22",
            "confidence": 1.0,
            "uuid": "bacf6365-dcf3-4976-b887-a3a0e3fd8345",
            "name": "Molding and Core Making",
            "category": "processes"
          },
          {
            "type": "url_match",
            "text": "Textiles (Fiber & Fabric Manufacturing)",
            "url": "https://haz-map.com/Processes/135",
            "confidence": 1.0,
            "uuid": "43ebdcdb-bb09-4402-87b6-ae8cf169dddd",
            "name": "Textiles (Fiber & Fabric Manufacturing)",
            "category": "processes"
          }
        ]
      }
    }
  },
  "cross_references": [
    {
      "type": "url_match",
      "text": "Molding and Core Making",
      "url": "https://haz-map.com/Processes/22",
      "confidence": 1.0,
      "uuid": "bacf6365-dcf3-4976-b887-a3a0e3fd8345",
      "name": "Molding and Core Making",
      "category": "processes"
    },
    {
      "type": "url_match",
      "text": "Textiles (Fiber & Fabric Manufacturing)",
      "url": "https://haz-map.com/Processes/135",
      "confidence": 1.0,
      "uuid": "43ebdcdb-bb09-4402-87b6-ae8cf169dddd",
      "name": "Textiles (Fiber & Fabric Manufacturing)",
      "category": "processes"
    },
    {
      "type": "name_match",
      "text": "emery",
      "confidence": 1.0,
      "uuid": "9c489b3c-513f-41aa-b898-a2242b92d2b4",
      "name": "Emery",
      "url": "https://haz-map.com/Agents/478",
      "category": "agents"
    },
    {
      "type": "name_match",
      "text": "tea",
      "confidence": 1.0,
      "uuid": "773409e5-ac1a-4c9e-9470-9667ca82091c",
      "name": "Tea",
      "url": "https://haz-map.com/Agents/878",
      "category": "agents"
    },
    {
      "type": "name_match",
      "text": "stearates",
      "confidence": 1.0,
      "uuid": "045c9fd5-f3b6-4b87-bd04-15b7f96495b6",
      "name": "STEARATES",
      "url": "https://haz-map.com/Agents/1690",
      "category": "agents"
    },
    {
      "type": "name_match",
      "text": "methyl stearate",
      "confidence": 1.0,
      "uuid": "91849015-475c-4677-ae71-64afce7c32d0",
      "name": "Methyl stearate",
      "url": "https://haz-map.com/Agents/6145",
      "category": "agents"
    },
    {
      "type": "name_match",
      "text": "stearic acid",
      "confidence": 1.0,
      "uuid": "bca9cb9c-5b13-46e3-ab28-e8e0d566876e",
      "name": "Stearic acid",
      "url": "https://haz-map.com/Agents/7203",
      "category": "agents"
    },
    {
      "type": "fuzzy_match",
      "text": "crystalline",
      "matched_name": "Silica, crystalline",
      "confidence": 0.7061403508771931,
      "uuid": "f920e8a2-46df-41b7-af8d-0368a777251e",
      "category": "agents",
      "url": "https://haz-map.com/Agents/427"
    }
  ],
  "all_links": [
    {
      "text": "Search PubMed",
      "url": "https://www.ncbi.nlm.nih.gov/pubmed?term=Methyl+stearate%20AND%20human%5Bmh%5D%20AND%20%28Occupational%20Diseases%20%5Bmh%5D%20OR%20Occupational%20Exposure%20%5Bmh%5D%29%20%20AND%20%28tox%5Bsb%5D%29&cmd=search"
    },
    {
      "text": "Molding and Core Making",
      "url": "https://haz-map.com/Processes/22"
    },
    {
      "text": "Textiles (Fiber & Fabric Manufacturing)",
      "url": "https://haz-map.com/Processes/135"
    }
  ]
}