{
  "metadata": {
    "scraped_from": "https://haz-map.com/Agents/8348",
    "entity_name": "Diethylarsine",
    "category": "agents",
    "uuid": "9261bc8a-a0dd-42c9-8e12-31872f675e98",
    "scraped_at": "2025-07-23T20:25:41.181573"
  },
  "parsed_at": "2025-07-24T00:59:00.897081",
  "title": "Diethylarsine",
  "sections": {
    "general": {
      "agent_name": {
        "original_name": "Agent Name",
        "value": "Diethylarsine",
        "links": [],
        "cross_references": [
          {
            "type": "name_match",
            "text": "arsine",
            "confidence": 1.0,
            "uuid": "9cbc23fa-8b7b-4fc4-b893-37c76e241fda",
            "name": "Arsine",
            "url": "https://haz-map.com/Agents/80",
            "category": "agents"
          },
          {
            "type": "name_match",
            "text": "diethylarsine",
            "confidence": 1.0,
            "uuid": "9261bc8a-a0dd-42c9-8e12-31872f675e98",
            "name": "Diethylarsine",
            "url": "https://haz-map.com/Agents/8348",
            "category": "agents"
          }
        ]
      },
      "cas_number": {
        "original_name": "CAS Number",
        "value": "692-42-2",
        "links": [],
        "cross_references": []
      },
      "formula": {
        "original_name": "Formula",
        "value": "C4-H11-As",
        "links": [],
        "cross_references": []
      },
      "major_category": {
        "original_name": "Major Category",
        "value": "Metals",
        "links": [],
        "cross_references": []
      },
      "synonyms": {
        "original_name": "Synonyms",
        "value": "Arsine, diethyl-; [ChemIDplus]",
        "links": [],
        "cross_references": [
          {
            "type": "name_match",
            "text": "arsine",
            "confidence": 1.0,
            "uuid": "9cbc23fa-8b7b-4fc4-b893-37c76e241fda",
            "name": "Arsine",
            "url": "https://haz-map.com/Agents/80",
            "category": "agents"
          }
        ]
      },
      "category": {
        "original_name": "Category",
        "value": "Arsenic Compounds, Organic",
        "links": [],
        "cross_references": [
          {
            "type": "name_match",
            "text": "arsenic",
            "confidence": 1.0,
            "uuid": "2bf78711-4881-4b55-9b7c-df80529b3991",
            "name": "Arsenic",
            "url": "https://haz-map.com/Agents/1147",
            "category": "agents"
          }
        ]
      },
      "description": {
        "original_name": "Description",
        "value": "Solid; [CAMEO]",
        "links": [],
        "cross_references": []
      },
      "sourcesuses": {
        "original_name": "Sources/Uses",
        "value": "No known former or present uses; [HSDB]",
        "links": [],
        "cross_references": []
      },
      "comments": {
        "original_name": "Comments",
        "value": "Spontaneously ignites in air; [CAMEO] \"Almost nothing is known regarding health effects of organic arsenic compounds in humans. Studies in animals show that some simple organic arsenic compounds are less toxic than inorganic forms. Ingestion of methyl and dimethyl compounds can cause diarrhea and damage to the kidneys.\" [ATSDR ToxProfiles] See \"Arsine\" and \"Arsenic.\"",
        "links": [],
        "cross_references": [
          {
            "type": "name_match",
            "text": "diarrhea",
            "confidence": 1.0,
            "uuid": "001ae7b5-5f3c-42c2-bc33-81e7581abd53",
            "name": "diarrhea",
            "url": "https://haz-map.com/Findings/15",
            "category": "findings"
          },
          {
            "type": "name_match",
            "text": "arsine",
            "confidence": 1.0,
            "uuid": "9cbc23fa-8b7b-4fc4-b893-37c76e241fda",
            "name": "Arsine",
            "url": "https://haz-map.com/Agents/80",
            "category": "agents"
          },
          {
            "type": "name_match",
            "text": "arsenic",
            "confidence": 1.0,
            "uuid": "2bf78711-4881-4b55-9b7c-df80529b3991",
            "name": "Arsenic",
            "url": "https://haz-map.com/Agents/1147",
            "category": "agents"
          }
        ]
      },
      "biomedical_references": {
        "original_name": "Biomedical References",
        "value": "Search PubMed",
        "links": [
          {
            "text": "Search PubMed",
            "url": "https://www.ncbi.nlm.nih.gov/pubmed?term=Diethylarsine%20AND%20human%5Bmh%5D%20AND%20%28Occupational%20Diseases%20%5Bmh%5D%20OR%20Occupational%20Exposure%20%5Bmh%5D%29%20%20AND%20%28tox%5Bsb%5D%29&cmd=search"
          }
        ],
        "cross_references": []
      }
    },
    "exposure_assessment": {
      "pel_osha": {
        "original_name": "PEL (OSHA)",
        "value": "0.5 mg/m3, as As",
        "links": [],
        "cross_references": []
      },
      "vapor_pressure": {
        "original_name": "Vapor Pressure",
        "value": "49.5 mm Hg",
        "links": [],
        "cross_references": []
      },
      "explanatory_notes": {
        "original_name": "Explanatory Notes",
        "value": "VP from ChemIDplus;",
        "links": [],
        "cross_references": []
      }
    },
    "diseases_processes_and_activities_linked_to_this_agent": {
      "other_information": {
        "original_name": "Other Information",
        "value": "No other related information on this agent was found.",
        "links": [],
        "cross_references": []
      }
    }
  },
  "cross_references": [
    {
      "type": "name_match",
      "text": "diarrhea",
      "confidence": 1.0,
      "uuid": "001ae7b5-5f3c-42c2-bc33-81e7581abd53",
      "name": "diarrhea",
      "url": "https://haz-map.com/Findings/15",
      "category": "findings"
    },
    {
      "type": "name_match",
      "text": "arsine",
      "confidence": 1.0,
      "uuid": "9cbc23fa-8b7b-4fc4-b893-37c76e241fda",
      "name": "Arsine",
      "url": "https://haz-map.com/Agents/80",
      "category": "agents"
    },
    {
      "type": "name_match",
      "text": "arsenic",
      "confidence": 1.0,
      "uuid": "2bf78711-4881-4b55-9b7c-df80529b3991",
      "name": "Arsenic",
      "url": "https://haz-map.com/Agents/1147",
      "category": "agents"
    },
    {
      "type": "name_match",
      "text": "diethylarsine",
      "confidence": 1.0,
      "uuid": "9261bc8a-a0dd-42c9-8e12-31872f675e98",
      "name": "Diethylarsine",
      "url": "https://haz-map.com/Agents/8348",
      "category": "agents"
    }
  ],
  "all_links": [
    {
      "text": "Search PubMed",
      "url": "https://www.ncbi.nlm.nih.gov/pubmed?term=Diethylarsine%20AND%20human%5Bmh%5D%20AND%20%28Occupational%20Diseases%20%5Bmh%5D%20OR%20Occupational%20Exposure%20%5Bmh%5D%29%20%20AND%20%28tox%5Bsb%5D%29&cmd=search"
    }
  ]
}