{
  "metadata": {
    "scraped_from": "https://haz-map.com/Agents/1977",
    "entity_name": "Phenol red",
    "category": "agents",
    "uuid": "92651db7-edf4-4e25-981b-302975374626",
    "scraped_at": "2025-07-23T19:07:51.439282"
  },
  "parsed_at": "2025-07-24T01:11:54.422472",
  "title": "Phenol red",
  "sections": {
    "general": {
      "agent_name": {
        "original_name": "Agent Name",
        "value": "Phenol red",
        "links": [],
        "cross_references": [
          {
            "type": "name_match",
            "text": "phenol",
            "confidence": 1.0,
            "uuid": "03141a03-a7df-4f51-9a37-adde1a7c4b31",
            "name": "Phenol",
            "url": "https://haz-map.com/Agents/84",
            "category": "agents"
          },
          {
            "type": "name_match",
            "text": "phenol red",
            "confidence": 1.0,
            "uuid": "92651db7-edf4-4e25-981b-302975374626",
            "name": "Phenol red",
            "url": "https://haz-map.com/Agents/1977",
            "category": "agents"
          }
        ]
      },
      "alternative_name": {
        "original_name": "Alternative Name",
        "value": "Phenolsulfonphthalein",
        "links": [],
        "cross_references": [
          {
            "type": "name_match",
            "text": "phenol",
            "confidence": 1.0,
            "uuid": "03141a03-a7df-4f51-9a37-adde1a7c4b31",
            "name": "Phenol",
            "url": "https://haz-map.com/Agents/84",
            "category": "agents"
          },
          {
            "type": "name_match",
            "text": "ht",
            "confidence": 1.0,
            "uuid": "764df367-8d53-4a11-81a2-31ccfe122a8d",
            "name": "HT",
            "url": "https://haz-map.com/Agents/2168",
            "category": "agents"
          }
        ]
      },
      "cas_number": {
        "original_name": "CAS Number",
        "value": "143-74-8",
        "links": [],
        "cross_references": []
      },
      "formula": {
        "original_name": "Formula",
        "value": "C19-H14-O5-S",
        "links": [],
        "cross_references": []
      },
      "major_category": {
        "original_name": "Major Category",
        "value": "Dyes",
        "links": [],
        "cross_references": []
      },
      "synonyms": {
        "original_name": "Synonyms",
        "value": "Phenolsulfonphthalein; 3H-2,1-Benzoxathiole, 3,3-bis(4-hydroxyphenyl)-, 1,1-dioxide; 4,4'-(3H-2,1-Benzoxathiol-3-ylidene)diphenol S,S-dioxide; Fenolipuna; PSP; PSP (indicator); Phenol Red; Phenol, 4,4-(3H-2,1-benzoxathiol-3-ylidene)di-, S-S-dioxide; Phenolsulfonphthalein; Phenolsulphonphthalein; Sulfonphthal; Sulphental; Sulphonthal; [ChemIDplus]",
        "links": [],
        "cross_references": [
          {
            "type": "name_match",
            "text": "phenol",
            "confidence": 1.0,
            "uuid": "03141a03-a7df-4f51-9a37-adde1a7c4b31",
            "name": "Phenol",
            "url": "https://haz-map.com/Agents/84",
            "category": "agents"
          },
          {
            "type": "name_match",
            "text": "phenol red",
            "confidence": 1.0,
            "uuid": "92651db7-edf4-4e25-981b-302975374626",
            "name": "Phenol red",
            "url": "https://haz-map.com/Agents/1977",
            "category": "agents"
          },
          {
            "type": "name_match",
            "text": "ht",
            "confidence": 1.0,
            "uuid": "764df367-8d53-4a11-81a2-31ccfe122a8d",
            "name": "HT",
            "url": "https://haz-map.com/Agents/2168",
            "category": "agents"
          }
        ]
      },
      "category": {
        "original_name": "Category",
        "value": "Indicator Dyes",
        "links": [],
        "cross_references": []
      },
      "description": {
        "original_name": "Description",
        "value": "Odorless, red solid; Available as pure compound, soluble monosodium salt, and dilute solutions; [CHEMINFO]",
        "links": [],
        "cross_references": [
          {
            "type": "name_match",
            "text": "sodium",
            "confidence": 1.0,
            "uuid": "1adffc42-a4d8-44d5-81d6-7dbd96ef8a6f",
            "name": "Sodium",
            "url": "https://haz-map.com/Agents/1527",
            "category": "agents"
          },
          {
            "type": "fuzzy_match",
            "text": "monosodium salt",
            "matched_name": "Zincon, monosodium salt",
            "confidence": 0.718944099378882,
            "uuid": "1b9c7ff2-2993-44ad-99f4-ba1cdcbdad89",
            "category": "agents",
            "url": "https://haz-map.com/Agents/18326"
          }
        ]
      },
      "sourcesuses": {
        "original_name": "Sources/Uses",
        "value": "Used as a pH indicator and marker of kidney function and other physiological functions; [CHEMINFO] Used as a pH indicator for the pH range of 6.4-8.2; [Ullmann]",
        "links": [],
        "cross_references": []
      },
      "comments": {
        "original_name": "Comments",
        "value": "Dust may be irritating if inhaled; [CHEMINFO]",
        "links": [],
        "cross_references": []
      },
      "biomedical_references": {
        "original_name": "Biomedical References",
        "value": "Search PubMed",
        "links": [
          {
            "text": "Search PubMed",
            "url": "https://www.ncbi.nlm.nih.gov/pubmed?term=Phenol+red%20AND%20human%5Bmh%5D%20AND%20%28Occupational%20Diseases%20%5Bmh%5D%20OR%20Occupational%20Exposure%20%5Bmh%5D%29%20%20AND%20%28tox%5Bsb%5D%29&cmd=search"
          }
        ],
        "cross_references": []
      }
    },
    "exposure_assessment": {
      "vapor_pressure": {
        "original_name": "Vapor Pressure",
        "value": "6.22E-13 mm Hg",
        "links": [],
        "cross_references": []
      },
      "explanatory_notes": {
        "original_name": "Explanatory Notes",
        "value": "mp = >572 deg F; VP = probably near zero; [CHEMINFO]",
        "links": [],
        "cross_references": []
      }
    },
    "diseases_processes_and_activities_linked_to_this_agent": {
      "other_information": {
        "original_name": "Other Information",
        "value": "No other related information on this agent was found.",
        "links": [],
        "cross_references": []
      }
    }
  },
  "cross_references": [
    {
      "type": "name_match",
      "text": "phenol",
      "confidence": 1.0,
      "uuid": "03141a03-a7df-4f51-9a37-adde1a7c4b31",
      "name": "Phenol",
      "url": "https://haz-map.com/Agents/84",
      "category": "agents"
    },
    {
      "type": "name_match",
      "text": "sodium",
      "confidence": 1.0,
      "uuid": "1adffc42-a4d8-44d5-81d6-7dbd96ef8a6f",
      "name": "Sodium",
      "url": "https://haz-map.com/Agents/1527",
      "category": "agents"
    },
    {
      "type": "name_match",
      "text": "phenol red",
      "confidence": 1.0,
      "uuid": "92651db7-edf4-4e25-981b-302975374626",
      "name": "Phenol red",
      "url": "https://haz-map.com/Agents/1977",
      "category": "agents"
    },
    {
      "type": "name_match",
      "text": "ht",
      "confidence": 1.0,
      "uuid": "764df367-8d53-4a11-81a2-31ccfe122a8d",
      "name": "HT",
      "url": "https://haz-map.com/Agents/2168",
      "category": "agents"
    },
    {
      "type": "fuzzy_match",
      "text": "monosodium salt",
      "matched_name": "Zincon, monosodium salt",
      "confidence": 0.718944099378882,
      "uuid": "1b9c7ff2-2993-44ad-99f4-ba1cdcbdad89",
      "category": "agents",
      "url": "https://haz-map.com/Agents/18326"
    }
  ],
  "all_links": [
    {
      "text": "Search PubMed",
      "url": "https://www.ncbi.nlm.nih.gov/pubmed?term=Phenol+red%20AND%20human%5Bmh%5D%20AND%20%28Occupational%20Diseases%20%5Bmh%5D%20OR%20Occupational%20Exposure%20%5Bmh%5D%29%20%20AND%20%28tox%5Bsb%5D%29&cmd=search"
    }
  ]
}