{
  "metadata": {
    "scraped_from": "https://haz-map.com/Agents/9760",
    "entity_name": "1,3-Benzodioxole",
    "category": "agents",
    "uuid": "9268b3cb-9e89-404a-a700-7768df1ac1a5",
    "scraped_at": "2025-07-23T20:42:21.723800"
  },
  "parsed_at": "2025-07-24T01:13:37.958686",
  "title": "1,3-Benzodioxole",
  "sections": {
    "general": {
      "agent_name": {
        "original_name": "Agent Name",
        "value": "1,3-Benzodioxole",
        "links": [],
        "cross_references": [
          {
            "type": "name_match",
            "text": "1,3-benzodioxole",
            "confidence": 1.0,
            "uuid": "9268b3cb-9e89-404a-a700-7768df1ac1a5",
            "name": "1,3-Benzodioxole",
            "url": "https://haz-map.com/Agents/9760",
            "category": "agents"
          }
        ]
      },
      "cas_number": {
        "original_name": "CAS Number",
        "value": "274-09-9",
        "links": [],
        "cross_references": []
      },
      "formula": {
        "original_name": "Formula",
        "value": "C7-H6-O2",
        "links": [],
        "cross_references": []
      },
      "major_category": {
        "original_name": "Major Category",
        "value": "Other Classes",
        "links": [],
        "cross_references": []
      },
      "synonyms": {
        "original_name": "Synonyms",
        "value": "1,2-Methylenedioxybenzene; 1,3-Dioxaindan; 1,3-Dioxindan; 2H-1,3-Benzodioxole; 3,4-Methylenedioxybenzene; Benzene, 1,2-(methylenebis(oxy))-; Benzodioxole; Methylenedioxybenzene; o-(Methylenedioxy)benzene; 1,3-Benzodioxolane; Benzene, 1,2-methylenedioxy-; [ChemIDplus]",
        "links": [],
        "cross_references": [
          {
            "type": "name_match",
            "text": "benzene",
            "confidence": 1.0,
            "uuid": "b05124de-5f34-4c14-8f04-ccb20c3780d9",
            "name": "Benzene",
            "url": "https://haz-map.com/Agents/5",
            "category": "agents"
          },
          {
            "type": "name_match",
            "text": "ethylene",
            "confidence": 1.0,
            "uuid": "958eacc0-5135-4b62-bb93-6df972bf552f",
            "name": "Ethylene",
            "url": "https://haz-map.com/Agents/1076",
            "category": "agents"
          },
          {
            "type": "name_match",
            "text": "1,3-benzodioxole",
            "confidence": 1.0,
            "uuid": "9268b3cb-9e89-404a-a700-7768df1ac1a5",
            "name": "1,3-Benzodioxole",
            "url": "https://haz-map.com/Agents/9760",
            "category": "agents"
          },
          {
            "type": "name_match",
            "text": "indan",
            "confidence": 1.0,
            "uuid": "ebba867b-a993-436a-85fb-f7d1183da941",
            "name": "Indan",
            "url": "https://haz-map.com/Agents/19450",
            "category": "agents"
          }
        ]
      },
      "category": {
        "original_name": "Category",
        "value": "Other Organic Compounds",
        "links": [],
        "cross_references": [
          {
            "type": "fuzzy_match",
            "text": "organic compounds",
            "matched_name": "Tin, organic compounds",
            "confidence": 0.8196969696969697,
            "uuid": "e027d413-8869-4308-9eb2-27d768b011ea",
            "category": "agents",
            "url": "https://haz-map.com/Agents/656"
          }
        ]
      },
      "description": {
        "original_name": "Description",
        "value": "Colorless liquid with an aromatic odor; [Alfa Aesar MSDS]",
        "links": [],
        "cross_references": []
      },
      "comments": {
        "original_name": "Comments",
        "value": "Causes somnolence and coma in oral lethal-dose studies of mice; [RTECS] A skin and strong eye irritant; Harmful by ingestion; [Alfa Aesar MSDS] See \"Dihydrosafrole.\"",
        "links": [],
        "cross_references": [
          {
            "type": "name_match",
            "text": "dihydrosafrole",
            "confidence": 1.0,
            "uuid": "1cdf0a91-aa19-41af-adcc-29f5d80492f0",
            "name": "Dihydrosafrole",
            "url": "https://haz-map.com/Agents/4881",
            "category": "agents"
          },
          {
            "type": "name_match",
            "text": "safrole",
            "confidence": 1.0,
            "uuid": "26450d74-b1da-41ba-9dfd-cc5a50a237fb",
            "name": "Safrole",
            "url": "https://haz-map.com/Agents/6987",
            "category": "agents"
          }
        ]
      },
      "biomedical_references": {
        "original_name": "Biomedical References",
        "value": "Search PubMed",
        "links": [
          {
            "text": "Search PubMed",
            "url": "https://www.ncbi.nlm.nih.gov/pubmed?term=1%2c3-Benzodioxole%20AND%20human%5Bmh%5D%20AND%20%28Occupational%20Diseases%20%5Bmh%5D%20OR%20Occupational%20Exposure%20%5Bmh%5D%29%20%20AND%20%28tox%5Bsb%5D%29&cmd=search"
          }
        ],
        "cross_references": []
      }
    },
    "exposure_assessment": {
      "vapor_pressure": {
        "original_name": "Vapor Pressure",
        "value": "0.571 mm Hg",
        "links": [],
        "cross_references": []
      },
      "explanatory_notes": {
        "original_name": "Explanatory Notes",
        "value": "VP from ChemIDplus;",
        "links": [],
        "cross_references": []
      }
    },
    "adverse_effects": {
      "neurotoxin": {
        "original_name": "Neurotoxin",
        "value": "Other CNS neurotoxin",
        "links": [],
        "cross_references": []
      }
    },
    "diseases_processes_and_activities_linked_to_this_agent": {
      "other_information": {
        "original_name": "Other Information",
        "value": "No other related information on this agent was found.",
        "links": [],
        "cross_references": []
      }
    }
  },
  "cross_references": [
    {
      "type": "name_match",
      "text": "benzene",
      "confidence": 1.0,
      "uuid": "b05124de-5f34-4c14-8f04-ccb20c3780d9",
      "name": "Benzene",
      "url": "https://haz-map.com/Agents/5",
      "category": "agents"
    },
    {
      "type": "name_match",
      "text": "ethylene",
      "confidence": 1.0,
      "uuid": "958eacc0-5135-4b62-bb93-6df972bf552f",
      "name": "Ethylene",
      "url": "https://haz-map.com/Agents/1076",
      "category": "agents"
    },
    {
      "type": "name_match",
      "text": "dihydrosafrole",
      "confidence": 1.0,
      "uuid": "1cdf0a91-aa19-41af-adcc-29f5d80492f0",
      "name": "Dihydrosafrole",
      "url": "https://haz-map.com/Agents/4881",
      "category": "agents"
    },
    {
      "type": "name_match",
      "text": "safrole",
      "confidence": 1.0,
      "uuid": "26450d74-b1da-41ba-9dfd-cc5a50a237fb",
      "name": "Safrole",
      "url": "https://haz-map.com/Agents/6987",
      "category": "agents"
    },
    {
      "type": "name_match",
      "text": "1,3-benzodioxole",
      "confidence": 1.0,
      "uuid": "9268b3cb-9e89-404a-a700-7768df1ac1a5",
      "name": "1,3-Benzodioxole",
      "url": "https://haz-map.com/Agents/9760",
      "category": "agents"
    },
    {
      "type": "name_match",
      "text": "indan",
      "confidence": 1.0,
      "uuid": "ebba867b-a993-436a-85fb-f7d1183da941",
      "name": "Indan",
      "url": "https://haz-map.com/Agents/19450",
      "category": "agents"
    },
    {
      "type": "fuzzy_match",
      "text": "organic compounds",
      "matched_name": "Tin, organic compounds",
      "confidence": 0.8196969696969697,
      "uuid": "e027d413-8869-4308-9eb2-27d768b011ea",
      "category": "agents",
      "url": "https://haz-map.com/Agents/656"
    }
  ],
  "all_links": [
    {
      "text": "Search PubMed",
      "url": "https://www.ncbi.nlm.nih.gov/pubmed?term=1%2c3-Benzodioxole%20AND%20human%5Bmh%5D%20AND%20%28Occupational%20Diseases%20%5Bmh%5D%20OR%20Occupational%20Exposure%20%5Bmh%5D%29%20%20AND%20%28tox%5Bsb%5D%29&cmd=search"
    }
  ]
}