{
  "metadata": {
    "scraped_from": "https://haz-map.com/Agents/5180",
    "entity_name": "Ethyl p-methylbenzenesulfonate",
    "category": "agents",
    "uuid": "928ad069-19fe-447f-a5ed-a2dd07255c28",
    "scraped_at": "2025-07-23T19:49:50.937065"
  },
  "parsed_at": "2025-07-24T00:53:06.344088",
  "title": "Ethyl p-methylbenzenesulfonate",
  "sections": {
    "general": {
      "agent_name": {
        "original_name": "Agent Name",
        "value": "Ethyl p-methylbenzenesulfonate",
        "links": [],
        "cross_references": [
          {
            "type": "name_match",
            "text": "benzene",
            "confidence": 1.0,
            "uuid": "b05124de-5f34-4c14-8f04-ccb20c3780d9",
            "name": "Benzene",
            "url": "https://haz-map.com/Agents/5",
            "category": "agents"
          },
          {
            "type": "name_match",
            "text": "ethyl p-methylbenzenesulfonate",
            "confidence": 1.0,
            "uuid": "928ad069-19fe-447f-a5ed-a2dd07255c28",
            "name": "Ethyl p-methylbenzenesulfonate",
            "url": "https://haz-map.com/Agents/5180",
            "category": "agents"
          }
        ]
      },
      "alternative_name": {
        "original_name": "Alternative Name",
        "value": "Ethyl p-toluenesulfonate",
        "links": [],
        "cross_references": [
          {
            "type": "name_match",
            "text": "toluene",
            "confidence": 1.0,
            "uuid": "0a34d5de-e924-4c47-aff5-7ae8e48c6772",
            "name": "Toluene",
            "url": "https://haz-map.com/Agents/83",
            "category": "agents"
          }
        ]
      },
      "cas_number": {
        "original_name": "CAS Number",
        "value": "80-40-0",
        "links": [],
        "cross_references": []
      },
      "formula": {
        "original_name": "Formula",
        "value": "C9-H12-O3-S",
        "links": [],
        "cross_references": []
      },
      "major_category": {
        "original_name": "Major Category",
        "value": "Other Classes",
        "links": [],
        "cross_references": []
      },
      "synonyms": {
        "original_name": "Synonyms",
        "value": "Ethyl p-toluenesulfonate; Benzenesulfonic acid, 4-methyl-, ethyl ester; Ethyl PTS; Ethyl p-TS; Ethyl p-methyl benzenesulfonate; Ethyl p-tosylate; Ethyl tosylate; Ethyl-p-toluenesulfonate; Ethylester kyseliny p-toluensulfonove [Czech]; p-Toluenesulfonic acid, ethyl ester; p-Toluolsulfonsaeure aethyl ester [German]; [ChemIDplus]",
        "links": [],
        "cross_references": [
          {
            "type": "name_match",
            "text": "benzene",
            "confidence": 1.0,
            "uuid": "b05124de-5f34-4c14-8f04-ccb20c3780d9",
            "name": "Benzene",
            "url": "https://haz-map.com/Agents/5",
            "category": "agents"
          },
          {
            "type": "name_match",
            "text": "toluene",
            "confidence": 1.0,
            "uuid": "0a34d5de-e924-4c47-aff5-7ae8e48c6772",
            "name": "Toluene",
            "url": "https://haz-map.com/Agents/83",
            "category": "agents"
          },
          {
            "type": "name_match",
            "text": "ethyl benzene",
            "confidence": 1.0,
            "uuid": "8398281d-7987-482f-8032-9d5c19d5fbf8",
            "name": "Ethyl benzene",
            "url": "https://haz-map.com/Agents/86",
            "category": "agents"
          },
          {
            "type": "name_match",
            "text": "p-toluenesulfonic acid",
            "confidence": 1.0,
            "uuid": "73910ba5-8b9c-432a-9bf4-c9ecc9b66ee8",
            "name": "p-Toluenesulfonic acid",
            "url": "https://haz-map.com/Agents/1435",
            "category": "agents"
          },
          {
            "type": "name_match",
            "text": "benzenesulfonic acid",
            "confidence": 1.0,
            "uuid": "39630619-7b3f-4266-b4e1-e41deb2f24e6",
            "name": "Benzenesulfonic acid",
            "url": "https://haz-map.com/Agents/3840",
            "category": "agents"
          },
          {
            "type": "name_match",
            "text": "methyl benzenesulfonate",
            "confidence": 1.0,
            "uuid": "b1524f1c-7711-47fe-8013-1c5f77d1e5a6",
            "name": "Methyl benzenesulfonate",
            "url": "https://haz-map.com/Agents/20832",
            "category": "agents"
          }
        ]
      },
      "category": {
        "original_name": "Category",
        "value": "Benzenesulfonic Acid Derivatives",
        "links": [],
        "cross_references": [
          {
            "type": "name_match",
            "text": "benzene",
            "confidence": 1.0,
            "uuid": "b05124de-5f34-4c14-8f04-ccb20c3780d9",
            "name": "Benzene",
            "url": "https://haz-map.com/Agents/5",
            "category": "agents"
          },
          {
            "type": "name_match",
            "text": "benzenesulfonic acid",
            "confidence": 1.0,
            "uuid": "39630619-7b3f-4266-b4e1-e41deb2f24e6",
            "name": "Benzenesulfonic acid",
            "url": "https://haz-map.com/Agents/3840",
            "category": "agents"
          }
        ]
      },
      "description": {
        "original_name": "Description",
        "value": "Unstable solid; mp = 33 deg C; [Hawley] White solid; mp = 32-34 deg C; [MSDSonline]",
        "links": [],
        "cross_references": []
      },
      "sourcesuses": {
        "original_name": "Sources/Uses",
        "value": "Used as plasticizer for cellulose acetate and as an ethylating agent; [Hawley]",
        "links": [],
        "cross_references": [
          {
            "type": "name_match",
            "text": "cellulose",
            "confidence": 1.0,
            "uuid": "b9b1b190-806c-4622-8201-8f09b0a87eca",
            "name": "Cellulose",
            "url": "https://haz-map.com/Agents/347",
            "category": "agents"
          },
          {
            "type": "name_match",
            "text": "cellulose acetate",
            "confidence": 1.0,
            "uuid": "49569e1f-799a-41c1-89b6-2457a776e513",
            "name": "Cellulose acetate",
            "url": "https://haz-map.com/Agents/4251",
            "category": "agents"
          }
        ]
      },
      "comments": {
        "original_name": "Comments",
        "value": "An irritant; [MSDSonline]",
        "links": [],
        "cross_references": []
      },
      "biomedical_references": {
        "original_name": "Biomedical References",
        "value": "Search PubMed",
        "links": [
          {
            "text": "Search PubMed",
            "url": "https://www.ncbi.nlm.nih.gov/pubmed?term=Ethyl+p-methylbenzenesulfonate%20AND%20human%5Bmh%5D%20AND%20%28Occupational%20Diseases%20%5Bmh%5D%20OR%20Occupational%20Exposure%20%5Bmh%5D%29%20%20AND%20%28tox%5Bsb%5D%29&cmd=search"
          }
        ],
        "cross_references": []
      }
    },
    "exposure_assessment": {
      "vapor_pressure": {
        "original_name": "Vapor Pressure",
        "value": "0.000241 mm Hg",
        "links": [],
        "cross_references": []
      }
    },
    "diseases_processes_and_activities_linked_to_this_agent": {
      "other_information": {
        "original_name": "Other Information",
        "value": "No other related information on this agent was found.",
        "links": [],
        "cross_references": []
      }
    }
  },
  "cross_references": [
    {
      "type": "name_match",
      "text": "benzene",
      "confidence": 1.0,
      "uuid": "b05124de-5f34-4c14-8f04-ccb20c3780d9",
      "name": "Benzene",
      "url": "https://haz-map.com/Agents/5",
      "category": "agents"
    },
    {
      "type": "name_match",
      "text": "toluene",
      "confidence": 1.0,
      "uuid": "0a34d5de-e924-4c47-aff5-7ae8e48c6772",
      "name": "Toluene",
      "url": "https://haz-map.com/Agents/83",
      "category": "agents"
    },
    {
      "type": "name_match",
      "text": "ethyl benzene",
      "confidence": 1.0,
      "uuid": "8398281d-7987-482f-8032-9d5c19d5fbf8",
      "name": "Ethyl benzene",
      "url": "https://haz-map.com/Agents/86",
      "category": "agents"
    },
    {
      "type": "name_match",
      "text": "cellulose",
      "confidence": 1.0,
      "uuid": "b9b1b190-806c-4622-8201-8f09b0a87eca",
      "name": "Cellulose",
      "url": "https://haz-map.com/Agents/347",
      "category": "agents"
    },
    {
      "type": "name_match",
      "text": "p-toluenesulfonic acid",
      "confidence": 1.0,
      "uuid": "73910ba5-8b9c-432a-9bf4-c9ecc9b66ee8",
      "name": "p-Toluenesulfonic acid",
      "url": "https://haz-map.com/Agents/1435",
      "category": "agents"
    },
    {
      "type": "name_match",
      "text": "benzenesulfonic acid",
      "confidence": 1.0,
      "uuid": "39630619-7b3f-4266-b4e1-e41deb2f24e6",
      "name": "Benzenesulfonic acid",
      "url": "https://haz-map.com/Agents/3840",
      "category": "agents"
    },
    {
      "type": "name_match",
      "text": "cellulose acetate",
      "confidence": 1.0,
      "uuid": "49569e1f-799a-41c1-89b6-2457a776e513",
      "name": "Cellulose acetate",
      "url": "https://haz-map.com/Agents/4251",
      "category": "agents"
    },
    {
      "type": "name_match",
      "text": "ethyl p-methylbenzenesulfonate",
      "confidence": 1.0,
      "uuid": "928ad069-19fe-447f-a5ed-a2dd07255c28",
      "name": "Ethyl p-methylbenzenesulfonate",
      "url": "https://haz-map.com/Agents/5180",
      "category": "agents"
    },
    {
      "type": "name_match",
      "text": "methyl benzenesulfonate",
      "confidence": 1.0,
      "uuid": "b1524f1c-7711-47fe-8013-1c5f77d1e5a6",
      "name": "Methyl benzenesulfonate",
      "url": "https://haz-map.com/Agents/20832",
      "category": "agents"
    }
  ],
  "all_links": [
    {
      "text": "Search PubMed",
      "url": "https://www.ncbi.nlm.nih.gov/pubmed?term=Ethyl+p-methylbenzenesulfonate%20AND%20human%5Bmh%5D%20AND%20%28Occupational%20Diseases%20%5Bmh%5D%20OR%20Occupational%20Exposure%20%5Bmh%5D%29%20%20AND%20%28tox%5Bsb%5D%29&cmd=search"
    }
  ]
}