{
  "metadata": {
    "scraped_from": "https://haz-map.com/Agents/4058",
    "entity_name": "Butyl vinyl ether",
    "category": "agents",
    "uuid": "931ceb7a-b620-453e-8ec2-a274e2dcd6c3",
    "scraped_at": "2025-07-23T19:36:27.353699"
  },
  "parsed_at": "2025-07-24T01:14:30.704165",
  "title": "Butyl vinyl ether",
  "sections": {
    "general": {
      "agent_name": {
        "original_name": "Agent Name",
        "value": "Butyl vinyl ether",
        "links": [],
        "cross_references": [
          {
            "type": "name_match",
            "text": "butyl vinyl ether",
            "confidence": 1.0,
            "uuid": "931ceb7a-b620-453e-8ec2-a274e2dcd6c3",
            "name": "Butyl vinyl ether",
            "url": "https://haz-map.com/Agents/4058",
            "category": "agents"
          }
        ]
      },
      "cas_number": {
        "original_name": "CAS Number",
        "value": "111-34-2",
        "links": [],
        "cross_references": []
      },
      "formula": {
        "original_name": "Formula",
        "value": "C6-H12-O",
        "links": [],
        "cross_references": []
      },
      "major_category": {
        "original_name": "Major Category",
        "value": "Plastics & Rubber",
        "links": [],
        "cross_references": []
      },
      "synonyms": {
        "original_name": "Synonyms",
        "value": "Agrisynth BVE; BVE; Butane, 1-(ethenyloxy)-; Butil vinil eter [Spanish]; Butoxyethene; Butoxyethylene; Ethenyl n-butyl ether; Ether butylvinylique [French]; Ether, butyl vinyl; Vinyl butyl ether; Vinyl n-butyl ether; n-Butyl vinyl ether; [ChemIDplus] UN2352",
        "links": [],
        "cross_references": [
          {
            "type": "name_match",
            "text": "ethylene",
            "confidence": 1.0,
            "uuid": "958eacc0-5135-4b62-bb93-6df972bf552f",
            "name": "Ethylene",
            "url": "https://haz-map.com/Agents/1076",
            "category": "agents"
          },
          {
            "type": "name_match",
            "text": "butyl vinyl ether",
            "confidence": 1.0,
            "uuid": "931ceb7a-b620-453e-8ec2-a274e2dcd6c3",
            "name": "Butyl vinyl ether",
            "url": "https://haz-map.com/Agents/4058",
            "category": "agents"
          },
          {
            "type": "name_match",
            "text": "n-butyl ether",
            "confidence": 1.0,
            "uuid": "6d55272c-dadc-4051-b974-560b38830ad0",
            "name": "n-Butyl ether",
            "url": "https://haz-map.com/Agents/8265",
            "category": "agents"
          }
        ]
      },
      "category": {
        "original_name": "Category",
        "value": "Other Monomers",
        "links": [],
        "cross_references": []
      },
      "description": {
        "original_name": "Description",
        "value": "Liquid; Slightly soluble in water; [Hawley]",
        "links": [],
        "cross_references": [
          {
            "type": "name_match",
            "text": "ht",
            "confidence": 1.0,
            "uuid": "764df367-8d53-4a11-81a2-31ccfe122a8d",
            "name": "HT",
            "url": "https://haz-map.com/Agents/2168",
            "category": "agents"
          },
          {
            "type": "name_match",
            "text": "water",
            "confidence": 1.0,
            "uuid": "6f2a7557-dfd2-49bc-9b4b-a93cd8e225d4",
            "name": "Water",
            "url": "https://haz-map.com/Agents/18668",
            "category": "agents"
          }
        ]
      },
      "sourcesuses": {
        "original_name": "Sources/Uses",
        "value": "Used in the synthesis of copolymers and as an acrylic/vinyl acetate resin comonomer; [HSDB]",
        "links": [],
        "cross_references": [
          {
            "type": "name_match",
            "text": "vinyl acetate",
            "confidence": 1.0,
            "uuid": "c1e2753d-7115-492f-a7fd-82ffdfa83280",
            "name": "Vinyl acetate",
            "url": "https://haz-map.com/Agents/755",
            "category": "agents"
          }
        ]
      },
      "comments": {
        "original_name": "Comments",
        "value": "Flammable liquid; [Hawley] A skin and eye irritant; [Sax] Probably causes CNS depression; [HSDB] May cause skin burns; [CAMEO] An irritant; Chronic effects in high-dose animal studies include degenerative changes to brain; [MSDSonline] Butyl vinyl ether, stabilized (UN2352) has warning of explosive polymerization; [ERG 2016] See \"Vinyl methyl ether.\"",
        "links": [],
        "cross_references": [
          {
            "type": "name_match",
            "text": "burn",
            "confidence": 1.0,
            "uuid": "63665de5-6376-4918-8dbf-4c10c4d63837",
            "name": "burn",
            "url": "https://haz-map.com/Findings/204",
            "category": "findings"
          },
          {
            "type": "name_match",
            "text": "ethyl ether",
            "confidence": 1.0,
            "uuid": "c95edddc-9ad3-44f8-bafa-78e0bd19db3a",
            "name": "Ethyl ether",
            "url": "https://haz-map.com/Agents/455",
            "category": "agents"
          },
          {
            "type": "name_match",
            "text": "vinyl methyl ether",
            "confidence": 1.0,
            "uuid": "dee19bf3-f2dd-4098-a471-58e00c03ba66",
            "name": "Vinyl methyl ether",
            "url": "https://haz-map.com/Agents/1475",
            "category": "agents"
          },
          {
            "type": "name_match",
            "text": "butyl vinyl ether",
            "confidence": 1.0,
            "uuid": "931ceb7a-b620-453e-8ec2-a274e2dcd6c3",
            "name": "Butyl vinyl ether",
            "url": "https://haz-map.com/Agents/4058",
            "category": "agents"
          }
        ]
      },
      "biomedical_references": {
        "original_name": "Biomedical References",
        "value": "Search PubMed",
        "links": [
          {
            "text": "Search PubMed",
            "url": "https://www.ncbi.nlm.nih.gov/pubmed?term=Butyl+vinyl+ether%20AND%20human%5Bmh%5D%20AND%20%28Occupational%20Diseases%20%5Bmh%5D%20OR%20Occupational%20Exposure%20%5Bmh%5D%29%20%20AND%20%28tox%5Bsb%5D%29&cmd=search"
          }
        ],
        "cross_references": []
      }
    },
    "exposure_assessment": {
      "vapor_pressure": {
        "original_name": "Vapor Pressure",
        "value": "49.1 mm Hg",
        "links": [],
        "cross_references": []
      },
      "lethal_concentration": {
        "original_name": "Lethal Concentration",
        "value": "LCLo (rat) = 16,000 ppm/4h",
        "links": [],
        "cross_references": []
      },
      "explosive_polymerization": {
        "original_name": "Explosive Polymerization",
        "value": "Yes",
        "links": [],
        "cross_references": []
      },
      "explanatory_notes": {
        "original_name": "Explanatory Notes",
        "value": "The Guide in the Emergency Response Guidebook is for \"Butyl vinyl ether, stabilized.\" VP from ChemIDplus;",
        "links": [],
        "cross_references": [
          {
            "type": "name_match",
            "text": "butyl vinyl ether",
            "confidence": 1.0,
            "uuid": "931ceb7a-b620-453e-8ec2-a274e2dcd6c3",
            "name": "Butyl vinyl ether",
            "url": "https://haz-map.com/Agents/4058",
            "category": "agents"
          }
        ]
      },
      "nfpa": {
        "original_name": "NFPA",
        "value": "may ignite at ambient temp",
        "links": [],
        "cross_references": []
      }
    },
    "adverse_effects": {
      "neurotoxin": {
        "original_name": "Neurotoxin",
        "value": "Other CNS neurotoxin",
        "links": [],
        "cross_references": []
      },
      "dermatotoxin": {
        "original_name": "Dermatotoxin",
        "value": "Skin burns",
        "links": [],
        "cross_references": [
          {
            "type": "name_match",
            "text": "burn",
            "confidence": 1.0,
            "uuid": "63665de5-6376-4918-8dbf-4c10c4d63837",
            "name": "burn",
            "url": "https://haz-map.com/Findings/204",
            "category": "findings"
          }
        ]
      }
    },
    "diseases_processes_and_activities_linked_to_this_agent": {
      "other_information": {
        "original_name": "Other Information",
        "value": "No other related information on this agent was found.",
        "links": [],
        "cross_references": []
      }
    }
  },
  "cross_references": [
    {
      "type": "name_match",
      "text": "burn",
      "confidence": 1.0,
      "uuid": "63665de5-6376-4918-8dbf-4c10c4d63837",
      "name": "burn",
      "url": "https://haz-map.com/Findings/204",
      "category": "findings"
    },
    {
      "type": "name_match",
      "text": "ethyl ether",
      "confidence": 1.0,
      "uuid": "c95edddc-9ad3-44f8-bafa-78e0bd19db3a",
      "name": "Ethyl ether",
      "url": "https://haz-map.com/Agents/455",
      "category": "agents"
    },
    {
      "type": "name_match",
      "text": "vinyl acetate",
      "confidence": 1.0,
      "uuid": "c1e2753d-7115-492f-a7fd-82ffdfa83280",
      "name": "Vinyl acetate",
      "url": "https://haz-map.com/Agents/755",
      "category": "agents"
    },
    {
      "type": "name_match",
      "text": "ethylene",
      "confidence": 1.0,
      "uuid": "958eacc0-5135-4b62-bb93-6df972bf552f",
      "name": "Ethylene",
      "url": "https://haz-map.com/Agents/1076",
      "category": "agents"
    },
    {
      "type": "name_match",
      "text": "vinyl methyl ether",
      "confidence": 1.0,
      "uuid": "dee19bf3-f2dd-4098-a471-58e00c03ba66",
      "name": "Vinyl methyl ether",
      "url": "https://haz-map.com/Agents/1475",
      "category": "agents"
    },
    {
      "type": "name_match",
      "text": "ht",
      "confidence": 1.0,
      "uuid": "764df367-8d53-4a11-81a2-31ccfe122a8d",
      "name": "HT",
      "url": "https://haz-map.com/Agents/2168",
      "category": "agents"
    },
    {
      "type": "name_match",
      "text": "butyl vinyl ether",
      "confidence": 1.0,
      "uuid": "931ceb7a-b620-453e-8ec2-a274e2dcd6c3",
      "name": "Butyl vinyl ether",
      "url": "https://haz-map.com/Agents/4058",
      "category": "agents"
    },
    {
      "type": "name_match",
      "text": "n-butyl ether",
      "confidence": 1.0,
      "uuid": "6d55272c-dadc-4051-b974-560b38830ad0",
      "name": "n-Butyl ether",
      "url": "https://haz-map.com/Agents/8265",
      "category": "agents"
    },
    {
      "type": "name_match",
      "text": "water",
      "confidence": 1.0,
      "uuid": "6f2a7557-dfd2-49bc-9b4b-a93cd8e225d4",
      "name": "Water",
      "url": "https://haz-map.com/Agents/18668",
      "category": "agents"
    }
  ],
  "all_links": [
    {
      "text": "Search PubMed",
      "url": "https://www.ncbi.nlm.nih.gov/pubmed?term=Butyl+vinyl+ether%20AND%20human%5Bmh%5D%20AND%20%28Occupational%20Diseases%20%5Bmh%5D%20OR%20Occupational%20Exposure%20%5Bmh%5D%29%20%20AND%20%28tox%5Bsb%5D%29&cmd=search"
    }
  ]
}