{
  "metadata": {
    "scraped_from": "https://haz-map.com/Agents/9659",
    "entity_name": "3-Methylhexane",
    "category": "agents",
    "uuid": "931dbda1-5f3f-47db-a806-30161fa35eb4",
    "scraped_at": "2025-07-23T20:40:43.854703"
  },
  "parsed_at": "2025-07-24T01:02:42.011415",
  "title": "3-Methylhexane",
  "sections": {
    "general": {
      "agent_name": {
        "original_name": "Agent Name",
        "value": "3-Methylhexane",
        "links": [],
        "cross_references": [
          {
            "type": "name_match",
            "text": "3-methylhexane",
            "confidence": 1.0,
            "uuid": "931dbda1-5f3f-47db-a806-30161fa35eb4",
            "name": "3-Methylhexane",
            "url": "https://haz-map.com/Agents/9659",
            "category": "agents"
          }
        ]
      },
      "cas_number": {
        "original_name": "CAS Number",
        "value": "589-34-4",
        "links": [],
        "cross_references": []
      },
      "formula": {
        "original_name": "Formula",
        "value": "C7-H16",
        "links": [],
        "cross_references": []
      },
      "major_category": {
        "original_name": "Major Category",
        "value": "Solvents",
        "links": [],
        "cross_references": []
      },
      "synonyms": {
        "original_name": "Synonyms",
        "value": "2-Ethylpentane; Hexane, 3-methyl-; [ChemIDplus] UN1206",
        "links": [],
        "cross_references": []
      },
      "category": {
        "original_name": "Category",
        "value": "Aliphatics, Saturated (<C12)",
        "links": [],
        "cross_references": []
      },
      "description": {
        "original_name": "Description",
        "value": "Clear colorless liquid; [Aldrich MSDS]",
        "links": [],
        "cross_references": []
      },
      "comments": {
        "original_name": "Comments",
        "value": "A skin irritant; May cause lung injury if ingested; Inhalation of vapor may cause drowsiness or dizziness; [ToxPlanet: ESIS] An irritant; Inhalation of vapor may cause drowsiness or dizziness; Harmful by ingestion (may cause lung damage by aspiration); Targets CNS, lungs, heart, and ears; [Aldrich MSDS]",
        "links": [],
        "cross_references": [
          {
            "type": "name_match",
            "text": "dizziness",
            "confidence": 1.0,
            "uuid": "4b0e6043-b228-49de-996c-b42ec8b3780e",
            "name": "dizziness",
            "url": "https://haz-map.com/Findings/16",
            "category": "findings"
          }
        ]
      },
      "biomedical_references": {
        "original_name": "Biomedical References",
        "value": "Search PubMed",
        "links": [
          {
            "text": "Search PubMed",
            "url": "https://www.ncbi.nlm.nih.gov/pubmed?term=3-Methylhexane%20AND%20human%5Bmh%5D%20AND%20%28Occupational%20Diseases%20%5Bmh%5D%20OR%20Occupational%20Exposure%20%5Bmh%5D%29%20%20AND%20%28tox%5Bsb%5D%29&cmd=search"
          }
        ],
        "cross_references": []
      }
    },
    "exposure_assessment": {
      "tlv_acgih": {
        "original_name": "TLV (ACGIH)",
        "value": "400 ppm",
        "links": [],
        "cross_references": []
      },
      "stel_acgih": {
        "original_name": "STEL (ACGIH)",
        "value": "500 ppm",
        "links": [],
        "cross_references": []
      },
      "mak": {
        "original_name": "MAK",
        "value": "500 ppm",
        "links": [],
        "cross_references": []
      },
      "vapor_pressure": {
        "original_name": "Vapor Pressure",
        "value": "61.5 mm Hg",
        "links": [],
        "cross_references": []
      },
      "explanatory_notes": {
        "original_name": "Explanatory Notes",
        "value": "The Guide in the Emergency Response Guidebook is for \"Heptanes.\" VP from ChemIDplus;",
        "links": [],
        "cross_references": []
      },
      "nfpa": {
        "original_name": "NFPA",
        "value": "may ignite at ambient temp",
        "links": [],
        "cross_references": []
      }
    },
    "adverse_effects": {
      "neurotoxin": {
        "original_name": "Neurotoxin",
        "value": "Acute solvent syndrome",
        "links": [],
        "cross_references": []
      }
    },
    "diseases_processes_and_activities_linked_to_this_agent": {
      "diseases": {
        "original_name": "Diseases",
        "value": "Occupational diseases associated with exposure to this agent: Solvents, acute toxic effect",
        "links": [
          {
            "text": "Solvents, acute toxic effect",
            "url": "https://haz-map.com/Diseases/326"
          }
        ],
        "cross_references": [
          {
            "type": "url_match",
            "text": "Solvents, acute toxic effect",
            "url": "https://haz-map.com/Diseases/326",
            "confidence": 1.0,
            "uuid": "581e90e3-9d0c-45f0-aa6c-3468c28da129",
            "name": "Solvents, acute toxic effect",
            "category": "diseases"
          }
        ]
      }
    }
  },
  "cross_references": [
    {
      "type": "url_match",
      "text": "Solvents, acute toxic effect",
      "url": "https://haz-map.com/Diseases/326",
      "confidence": 1.0,
      "uuid": "581e90e3-9d0c-45f0-aa6c-3468c28da129",
      "name": "Solvents, acute toxic effect",
      "category": "diseases"
    },
    {
      "type": "name_match",
      "text": "dizziness",
      "confidence": 1.0,
      "uuid": "4b0e6043-b228-49de-996c-b42ec8b3780e",
      "name": "dizziness",
      "url": "https://haz-map.com/Findings/16",
      "category": "findings"
    },
    {
      "type": "name_match",
      "text": "3-methylhexane",
      "confidence": 1.0,
      "uuid": "931dbda1-5f3f-47db-a806-30161fa35eb4",
      "name": "3-Methylhexane",
      "url": "https://haz-map.com/Agents/9659",
      "category": "agents"
    }
  ],
  "all_links": [
    {
      "text": "Search PubMed",
      "url": "https://www.ncbi.nlm.nih.gov/pubmed?term=3-Methylhexane%20AND%20human%5Bmh%5D%20AND%20%28Occupational%20Diseases%20%5Bmh%5D%20OR%20Occupational%20Exposure%20%5Bmh%5D%29%20%20AND%20%28tox%5Bsb%5D%29&cmd=search"
    },
    {
      "text": "Solvents, acute toxic effect",
      "url": "https://haz-map.com/Diseases/326"
    }
  ]
}