{
  "metadata": {
    "scraped_from": "https://haz-map.com/Agents/15499",
    "entity_name": "Methyl dichloroacetate",
    "category": "agents",
    "uuid": "9339ae32-7220-4921-bd15-7ac3f49e1db4",
    "scraped_at": "2025-07-23T21:30:20.148776"
  },
  "parsed_at": "2025-07-24T01:16:57.779663",
  "title": "Methyl dichloroacetate",
  "sections": {
    "general": {
      "agent_name": {
        "original_name": "Agent Name",
        "value": "Methyl dichloroacetate",
        "links": [],
        "cross_references": [
          {
            "type": "name_match",
            "text": "methyl dichloroacetate",
            "confidence": 1.0,
            "uuid": "9339ae32-7220-4921-bd15-7ac3f49e1db4",
            "name": "Methyl dichloroacetate",
            "url": "https://haz-map.com/Agents/15499",
            "category": "agents"
          }
        ]
      },
      "cas_number": {
        "original_name": "CAS Number",
        "value": "116-54-1",
        "links": [],
        "cross_references": []
      },
      "formula": {
        "original_name": "Formula",
        "value": "C3-H4-Cl2-O2",
        "links": [],
        "cross_references": []
      },
      "major_category": {
        "original_name": "Major Category",
        "value": "Other Classes",
        "links": [],
        "cross_references": []
      },
      "synonyms": {
        "original_name": "Synonyms",
        "value": "Dichloroacetic acid methyl ester; Methyl 2,2-dichloroacetate; Acetic acid, 2,2-dichloro-, methyl ester; Acetic acid, dichloro-, methyl ester; [ChemIDplus] Dichloracetate de methyle (French DOT); Dichloroacetic acid, methyl ester; Dicloroacetato de metilo (Spanish DOT); Methyl dichloroethanoate; [CAMEO] UN2299",
        "links": [],
        "cross_references": [
          {
            "type": "name_match",
            "text": "acetic acid",
            "confidence": 1.0,
            "uuid": "0905c6e4-df84-4895-a92d-658819239bbd",
            "name": "Acetic acid",
            "url": "https://haz-map.com/Agents/207",
            "category": "agents"
          },
          {
            "type": "name_match",
            "text": "chloroacetic acid",
            "confidence": 1.0,
            "uuid": "3a910c63-0df9-4346-b031-7ddeb8b64230",
            "name": "Chloroacetic acid",
            "url": "https://haz-map.com/Agents/1392",
            "category": "agents"
          },
          {
            "type": "name_match",
            "text": "dichloroacetic acid",
            "confidence": 1.0,
            "uuid": "93d9bd98-1001-436a-855e-7ca12741db02",
            "name": "Dichloroacetic acid",
            "url": "https://haz-map.com/Agents/1644",
            "category": "agents"
          }
        ]
      },
      "category": {
        "original_name": "Category",
        "value": "Halogenated Esters",
        "links": [],
        "cross_references": []
      },
      "description": {
        "original_name": "Description",
        "value": "Colorless liquid with an ethereal odor; [CAMEO]",
        "links": [],
        "cross_references": []
      },
      "sourcesuses": {
        "original_name": "Sources/Uses",
        "value": "Used to make other chemicals; [CAMEO]",
        "links": [],
        "cross_references": [
          {
            "type": "name_match",
            "text": "mica",
            "confidence": 1.0,
            "uuid": "433f26f1-c399-4596-b179-ce3843cfd465",
            "name": "Mica",
            "url": "https://haz-map.com/Agents/621",
            "category": "agents"
          }
        ]
      },
      "comments": {
        "original_name": "Comments",
        "value": "Reacts with water producing dichloroacetic acid; Corrosive to tissue; [CAMEO] Hydrolyzed evolving corrosive products; Causes severe skin irritation and serious eye injury; Brief contact can causes second- and third-degree skin burns; Inhalation may cause pulmonary edema and chemical pneumonitis; [CHRIS] Causes focal lung fibrosis and GI changes in inhalation lethal-concentration studies of rats; [RTECS] Reacts with water; Causes burns (especially if skin is wet or moist); Inhalation may cause corrosive injuries to upper respiratory tract and lungs; [Acros Organics MSDS]",
        "links": [],
        "cross_references": [
          {
            "type": "name_match",
            "text": "pulmonary edema",
            "confidence": 1.0,
            "uuid": "ee39114e-c922-40fd-9588-a532de404962",
            "name": "pulmonary edema",
            "url": "https://haz-map.com/Findings/186",
            "category": "findings"
          },
          {
            "type": "name_match",
            "text": "burn",
            "confidence": 1.0,
            "uuid": "63665de5-6376-4918-8dbf-4c10c4d63837",
            "name": "burn",
            "url": "https://haz-map.com/Findings/204",
            "category": "findings"
          },
          {
            "type": "name_match",
            "text": "acetic acid",
            "confidence": 1.0,
            "uuid": "0905c6e4-df84-4895-a92d-658819239bbd",
            "name": "Acetic acid",
            "url": "https://haz-map.com/Agents/207",
            "category": "agents"
          },
          {
            "type": "name_match",
            "text": "mica",
            "confidence": 1.0,
            "uuid": "433f26f1-c399-4596-b179-ce3843cfd465",
            "name": "Mica",
            "url": "https://haz-map.com/Agents/621",
            "category": "agents"
          },
          {
            "type": "name_match",
            "text": "chloroacetic acid",
            "confidence": 1.0,
            "uuid": "3a910c63-0df9-4346-b031-7ddeb8b64230",
            "name": "Chloroacetic acid",
            "url": "https://haz-map.com/Agents/1392",
            "category": "agents"
          },
          {
            "type": "name_match",
            "text": "dichloroacetic acid",
            "confidence": 1.0,
            "uuid": "93d9bd98-1001-436a-855e-7ca12741db02",
            "name": "Dichloroacetic acid",
            "url": "https://haz-map.com/Agents/1644",
            "category": "agents"
          },
          {
            "type": "name_match",
            "text": "water",
            "confidence": 1.0,
            "uuid": "6f2a7557-dfd2-49bc-9b4b-a93cd8e225d4",
            "name": "Water",
            "url": "https://haz-map.com/Agents/18668",
            "category": "agents"
          }
        ]
      },
      "biomedical_references": {
        "original_name": "Biomedical References",
        "value": "Search PubMed",
        "links": [
          {
            "text": "Search PubMed",
            "url": "https://www.ncbi.nlm.nih.gov/pubmed?term=Methyl+dichloroacetate%20AND%20human%5Bmh%5D%20AND%20%28Occupational%20Diseases%20%5Bmh%5D%20OR%20Occupational%20Exposure%20%5Bmh%5D%29%20%20AND%20%28tox%5Bsb%5D%29&cmd=search"
          }
        ],
        "cross_references": []
      }
    },
    "exposure_assessment": {
      "vapor_pressure": {
        "original_name": "Vapor Pressure",
        "value": "4.5 mm Hg",
        "links": [],
        "cross_references": []
      },
      "lethal_concentration": {
        "original_name": "Lethal Concentration",
        "value": "LCLo (rat) = 2,000 ppm/30min",
        "links": [],
        "cross_references": []
      },
      "explanatory_notes": {
        "original_name": "Explanatory Notes",
        "value": "VP from ChemIDplus;",
        "links": [],
        "cross_references": []
      },
      "nfpa": {
        "original_name": "NFPA",
        "value": "high ambient temp required",
        "links": [],
        "cross_references": []
      }
    },
    "adverse_effects": {
      "toxic_pneumonitis": {
        "original_name": "Toxic Pneumonitis",
        "value": "Yes",
        "links": [],
        "cross_references": []
      },
      "dermatotoxin": {
        "original_name": "Dermatotoxin",
        "value": "Skin burns",
        "links": [],
        "cross_references": [
          {
            "type": "name_match",
            "text": "burn",
            "confidence": 1.0,
            "uuid": "63665de5-6376-4918-8dbf-4c10c4d63837",
            "name": "burn",
            "url": "https://haz-map.com/Findings/204",
            "category": "findings"
          }
        ]
      }
    },
    "diseases_processes_and_activities_linked_to_this_agent": {
      "other_information": {
        "original_name": "Other Information",
        "value": "No other related information on this agent was found.",
        "links": [],
        "cross_references": []
      }
    }
  },
  "cross_references": [
    {
      "type": "name_match",
      "text": "pulmonary edema",
      "confidence": 1.0,
      "uuid": "ee39114e-c922-40fd-9588-a532de404962",
      "name": "pulmonary edema",
      "url": "https://haz-map.com/Findings/186",
      "category": "findings"
    },
    {
      "type": "name_match",
      "text": "burn",
      "confidence": 1.0,
      "uuid": "63665de5-6376-4918-8dbf-4c10c4d63837",
      "name": "burn",
      "url": "https://haz-map.com/Findings/204",
      "category": "findings"
    },
    {
      "type": "name_match",
      "text": "acetic acid",
      "confidence": 1.0,
      "uuid": "0905c6e4-df84-4895-a92d-658819239bbd",
      "name": "Acetic acid",
      "url": "https://haz-map.com/Agents/207",
      "category": "agents"
    },
    {
      "type": "name_match",
      "text": "mica",
      "confidence": 1.0,
      "uuid": "433f26f1-c399-4596-b179-ce3843cfd465",
      "name": "Mica",
      "url": "https://haz-map.com/Agents/621",
      "category": "agents"
    },
    {
      "type": "name_match",
      "text": "chloroacetic acid",
      "confidence": 1.0,
      "uuid": "3a910c63-0df9-4346-b031-7ddeb8b64230",
      "name": "Chloroacetic acid",
      "url": "https://haz-map.com/Agents/1392",
      "category": "agents"
    },
    {
      "type": "name_match",
      "text": "dichloroacetic acid",
      "confidence": 1.0,
      "uuid": "93d9bd98-1001-436a-855e-7ca12741db02",
      "name": "Dichloroacetic acid",
      "url": "https://haz-map.com/Agents/1644",
      "category": "agents"
    },
    {
      "type": "name_match",
      "text": "methyl dichloroacetate",
      "confidence": 1.0,
      "uuid": "9339ae32-7220-4921-bd15-7ac3f49e1db4",
      "name": "Methyl dichloroacetate",
      "url": "https://haz-map.com/Agents/15499",
      "category": "agents"
    },
    {
      "type": "name_match",
      "text": "water",
      "confidence": 1.0,
      "uuid": "6f2a7557-dfd2-49bc-9b4b-a93cd8e225d4",
      "name": "Water",
      "url": "https://haz-map.com/Agents/18668",
      "category": "agents"
    }
  ],
  "all_links": [
    {
      "text": "Search PubMed",
      "url": "https://www.ncbi.nlm.nih.gov/pubmed?term=Methyl+dichloroacetate%20AND%20human%5Bmh%5D%20AND%20%28Occupational%20Diseases%20%5Bmh%5D%20OR%20Occupational%20Exposure%20%5Bmh%5D%29%20%20AND%20%28tox%5Bsb%5D%29&cmd=search"
    }
  ]
}