{
  "metadata": {
    "scraped_from": "https://haz-map.com/Agents/2884",
    "entity_name": "1-Eicosanol",
    "category": "agents",
    "uuid": "935b3daf-9cef-4daf-b932-480985d5cc21",
    "scraped_at": "2025-07-23T19:20:26.195065"
  },
  "parsed_at": "2025-07-24T00:51:27.130428",
  "title": "1-Eicosanol",
  "sections": {
    "general": {
      "agent_name": {
        "original_name": "Agent Name",
        "value": "1-Eicosanol",
        "links": [],
        "cross_references": [
          {
            "type": "name_match",
            "text": "1-eicosanol",
            "confidence": 1.0,
            "uuid": "935b3daf-9cef-4daf-b932-480985d5cc21",
            "name": "1-Eicosanol",
            "url": "https://haz-map.com/Agents/2884",
            "category": "agents"
          }
        ]
      },
      "cas_number": {
        "original_name": "CAS Number",
        "value": "629-96-9",
        "links": [],
        "cross_references": []
      },
      "formula": {
        "original_name": "Formula",
        "value": "C20-H42-O",
        "links": [],
        "cross_references": []
      },
      "major_category": {
        "original_name": "Major Category",
        "value": "Other Classes",
        "links": [],
        "cross_references": []
      },
      "synonyms": {
        "original_name": "Synonyms",
        "value": "Arachic alcohol; Arachidic alcohol; Arachidyl alcohol; Eicosyl alcohol; pri-n-Eicosyl alcohol; n-1-Eicosanol; n-Eicosanol; Icosan-1-ol; [ChemIDplus]",
        "links": [],
        "cross_references": [
          {
            "type": "name_match",
            "text": "1-eicosanol",
            "confidence": 1.0,
            "uuid": "935b3daf-9cef-4daf-b932-480985d5cc21",
            "name": "1-Eicosanol",
            "url": "https://haz-map.com/Agents/2884",
            "category": "agents"
          }
        ]
      },
      "category": {
        "original_name": "Category",
        "value": "Alcohols and Polyols, Other",
        "links": [],
        "cross_references": []
      },
      "description": {
        "original_name": "Description",
        "value": "White waxy solid; [HSDB] White powder; [MSDSonline]",
        "links": [],
        "cross_references": []
      },
      "sourcesuses": {
        "original_name": "Sources/Uses",
        "value": "Used in lubricants, rubber, plastics, and textiles; Used as an emulsion stabilizer and viscosity increasing agent; [HSDB]",
        "links": [],
        "cross_references": []
      },
      "comments": {
        "original_name": "Comments",
        "value": "A mild skin and eye irritant; [HSDB] Aliphatic alcohols are metabolized and eliminated efficiently; Not skin sensitizers; May have low-grade liver effects; CNS depression seen in shorter chain alcohols, e.g., 1-hexanol and 1-octanol; [Reference #1] May cause irritation; [MSDSonline]",
        "links": [],
        "cross_references": [
          {
            "type": "name_match",
            "text": "1-hexanol",
            "confidence": 1.0,
            "uuid": "544454a9-fa4b-4f9e-b09e-b08ab6e3c908",
            "name": "1-Hexanol",
            "url": "https://haz-map.com/Agents/1480",
            "category": "agents"
          },
          {
            "type": "name_match",
            "text": "1-octanol",
            "confidence": 1.0,
            "uuid": "c73abd5d-2b7c-4354-92c8-91ab1b01d982",
            "name": "1-Octanol",
            "url": "https://haz-map.com/Agents/2916",
            "category": "agents"
          }
        ]
      },
      "reference_link_1": {
        "original_name": "Reference Link #1",
        "value": "OECD SIDS: Long Chain Alcohols (C6-22 primary aliphatic alcohols) - 2006",
        "links": [
          {
            "text": "OECD SIDS: Long Chain Alcohols (C6-22 primary aliphatic alcohols) - 2006",
            "url": "http://webnet.oecd.org/Hpv/UI/handler.axd?id=9802ef92-2c9d-4f21-877e-90b6133efd73"
          }
        ],
        "cross_references": []
      },
      "biomedical_references": {
        "original_name": "Biomedical References",
        "value": "Search PubMed",
        "links": [
          {
            "text": "Search PubMed",
            "url": "https://www.ncbi.nlm.nih.gov/pubmed?term=1-Eicosanol%20AND%20human%5Bmh%5D%20AND%20%28Occupational%20Diseases%20%5Bmh%5D%20OR%20Occupational%20Exposure%20%5Bmh%5D%29%20%20AND%20%28tox%5Bsb%5D%29&cmd=search"
          }
        ],
        "cross_references": []
      }
    },
    "exposure_assessment": {
      "vapor_pressure": {
        "original_name": "Vapor Pressure",
        "value": "4.5E-08 mm Hg",
        "links": [],
        "cross_references": []
      },
      "explanatory_notes": {
        "original_name": "Explanatory Notes",
        "value": "Flash point = 195 deg C; [eChemPortal: IUCLID]",
        "links": [],
        "cross_references": [
          {
            "type": "name_match",
            "text": "ash",
            "confidence": 1.0,
            "uuid": "68b360f1-5ad0-4337-bea0-d7adca2961b5",
            "name": "Ash",
            "url": "https://haz-map.com/Agents/965",
            "category": "agents"
          }
        ]
      }
    },
    "diseases_processes_and_activities_linked_to_this_agent": {
      "processes": {
        "original_name": "Processes",
        "value": "Industrial Processes with risk of exposure: Textiles (Fiber & Fabric Manufacturing)",
        "links": [
          {
            "text": "Textiles (Fiber & Fabric Manufacturing)",
            "url": "https://haz-map.com/Processes/135"
          }
        ],
        "cross_references": [
          {
            "type": "url_match",
            "text": "Textiles (Fiber & Fabric Manufacturing)",
            "url": "https://haz-map.com/Processes/135",
            "confidence": 1.0,
            "uuid": "43ebdcdb-bb09-4402-87b6-ae8cf169dddd",
            "name": "Textiles (Fiber & Fabric Manufacturing)",
            "category": "processes"
          }
        ]
      }
    }
  },
  "cross_references": [
    {
      "type": "url_match",
      "text": "Textiles (Fiber & Fabric Manufacturing)",
      "url": "https://haz-map.com/Processes/135",
      "confidence": 1.0,
      "uuid": "43ebdcdb-bb09-4402-87b6-ae8cf169dddd",
      "name": "Textiles (Fiber & Fabric Manufacturing)",
      "category": "processes"
    },
    {
      "type": "name_match",
      "text": "ash",
      "confidence": 1.0,
      "uuid": "68b360f1-5ad0-4337-bea0-d7adca2961b5",
      "name": "Ash",
      "url": "https://haz-map.com/Agents/965",
      "category": "agents"
    },
    {
      "type": "name_match",
      "text": "1-hexanol",
      "confidence": 1.0,
      "uuid": "544454a9-fa4b-4f9e-b09e-b08ab6e3c908",
      "name": "1-Hexanol",
      "url": "https://haz-map.com/Agents/1480",
      "category": "agents"
    },
    {
      "type": "name_match",
      "text": "1-eicosanol",
      "confidence": 1.0,
      "uuid": "935b3daf-9cef-4daf-b932-480985d5cc21",
      "name": "1-Eicosanol",
      "url": "https://haz-map.com/Agents/2884",
      "category": "agents"
    },
    {
      "type": "name_match",
      "text": "1-octanol",
      "confidence": 1.0,
      "uuid": "c73abd5d-2b7c-4354-92c8-91ab1b01d982",
      "name": "1-Octanol",
      "url": "https://haz-map.com/Agents/2916",
      "category": "agents"
    }
  ],
  "all_links": [
    {
      "text": "OECD SIDS: Long Chain Alcohols (C6-22 primary aliphatic alcohols) - 2006",
      "url": "http://webnet.oecd.org/Hpv/UI/handler.axd?id=9802ef92-2c9d-4f21-877e-90b6133efd73"
    },
    {
      "text": "Search PubMed",
      "url": "https://www.ncbi.nlm.nih.gov/pubmed?term=1-Eicosanol%20AND%20human%5Bmh%5D%20AND%20%28Occupational%20Diseases%20%5Bmh%5D%20OR%20Occupational%20Exposure%20%5Bmh%5D%29%20%20AND%20%28tox%5Bsb%5D%29&cmd=search"
    },
    {
      "text": "Textiles (Fiber & Fabric Manufacturing)",
      "url": "https://haz-map.com/Processes/135"
    }
  ]
}