{
  "metadata": {
    "scraped_from": "https://haz-map.com/Agents/10305",
    "entity_name": "2,2,2-Trichloroethanol",
    "category": "agents",
    "uuid": "9365bf37-83ae-4807-bbdb-47c7a0a9b7e2",
    "scraped_at": "2025-07-23T20:46:25.827815"
  },
  "parsed_at": "2025-07-24T00:55:26.418728",
  "title": "2,2,2-Trichloroethanol",
  "sections": {
    "general": {
      "agent_name": {
        "original_name": "Agent Name",
        "value": "2,2,2-Trichloroethanol",
        "links": [],
        "cross_references": [
          {
            "type": "name_match",
            "text": "2,2,2-trichloroethanol",
            "confidence": 1.0,
            "uuid": "9365bf37-83ae-4807-bbdb-47c7a0a9b7e2",
            "name": "2,2,2-Trichloroethanol",
            "url": "https://haz-map.com/Agents/10305",
            "category": "agents"
          }
        ]
      },
      "cas_number": {
        "original_name": "CAS Number",
        "value": "115-20-8",
        "links": [],
        "cross_references": []
      },
      "formula": {
        "original_name": "Formula",
        "value": "C2-H3-Cl3-O",
        "links": [],
        "cross_references": []
      },
      "major_category": {
        "original_name": "Major Category",
        "value": "Other Classes",
        "links": [],
        "cross_references": []
      },
      "synonyms": {
        "original_name": "Synonyms",
        "value": "(Hydroxymethyl)trichloromethane; 2,2,2-Trichloro-1-ethanol; 2,2,2-Trichloroethyl alcohol; Trichlorethanol; Trichloroethanol; Trichloroethyl alcohol; Ethanol, 2,2,2-trichloro-; [ChemIDplus] TCOH; [DOD] beta,beta,beta-Trichloroethanol; [RTECS]",
        "links": [],
        "cross_references": [
          {
            "type": "name_match",
            "text": "ethyl alcohol",
            "confidence": 1.0,
            "uuid": "9e039165-5b7c-44a7-afb2-dcf3c15e7a99",
            "name": "Ethyl alcohol",
            "url": "https://haz-map.com/Agents/481",
            "category": "agents"
          },
          {
            "type": "name_match",
            "text": "methane",
            "confidence": 1.0,
            "uuid": "5018bf73-24be-4353-8643-c351d5f52186",
            "name": "Methane",
            "url": "https://haz-map.com/Agents/1074",
            "category": "agents"
          },
          {
            "type": "name_match",
            "text": "ethane",
            "confidence": 1.0,
            "uuid": "5162cc8c-dfb9-4060-81ac-38a8cec7f9dd",
            "name": "Ethane",
            "url": "https://haz-map.com/Agents/1075",
            "category": "agents"
          }
        ]
      },
      "category": {
        "original_name": "Category",
        "value": "Halogenated Alcohols",
        "links": [],
        "cross_references": []
      },
      "description": {
        "original_name": "Description",
        "value": "Hygroscopic liquid with an ethereal odor; mp = 18 deg C; [Merck Index]",
        "links": [],
        "cross_references": []
      },
      "sourcesuses": {
        "original_name": "Sources/Uses",
        "value": "Used as a therapeutic sedative and hypnotic; [Merck Index]",
        "links": [],
        "cross_references": []
      },
      "comments": {
        "original_name": "Comments",
        "value": "Causes changes in lungs in oral lethal-dose studies of mice and rats; Causes changes in urine, red blood cells, and renal function tests in repeated dose oral studies of rats; [RTECS] A metabolite of chloral hydrate and trichloroethylene; [REPROTOX] An irritant; [Aldrich MSDS] See \"Chloral hydrate.\"",
        "links": [],
        "cross_references": [
          {
            "type": "name_match",
            "text": "trichloroethylene",
            "confidence": 1.0,
            "uuid": "85abbb53-907c-49a5-8d79-eb7a10a060a9",
            "name": "Trichloroethylene",
            "url": "https://haz-map.com/Agents/93",
            "category": "agents"
          },
          {
            "type": "name_match",
            "text": "ethylene",
            "confidence": 1.0,
            "uuid": "958eacc0-5135-4b62-bb93-6df972bf552f",
            "name": "Ethylene",
            "url": "https://haz-map.com/Agents/1076",
            "category": "agents"
          },
          {
            "type": "name_match",
            "text": "chloral",
            "confidence": 1.0,
            "uuid": "4484bb9d-804f-4aa4-bb27-31f95359d89e",
            "name": "Chloral",
            "url": "https://haz-map.com/Agents/4272",
            "category": "agents"
          },
          {
            "type": "name_match",
            "text": "chloral hydrate",
            "confidence": 1.0,
            "uuid": "d75d97f5-e969-4121-8029-2b078b7cf0c7",
            "name": "Chloral hydrate",
            "url": "https://haz-map.com/Agents/8325",
            "category": "agents"
          }
        ]
      },
      "biomedical_references": {
        "original_name": "Biomedical References",
        "value": "Search PubMed",
        "links": [
          {
            "text": "Search PubMed",
            "url": "https://www.ncbi.nlm.nih.gov/pubmed?term=2%2c2%2c2-Trichloroethanol%20AND%20human%5Bmh%5D%20AND%20%28Occupational%20Diseases%20%5Bmh%5D%20OR%20Occupational%20Exposure%20%5Bmh%5D%29%20%20AND%20%28tox%5Bsb%5D%29&cmd=search"
          }
        ],
        "cross_references": []
      }
    },
    "exposure_assessment": {
      "vapor_pressure": {
        "original_name": "Vapor Pressure",
        "value": "1.08 mm Hg",
        "links": [],
        "cross_references": []
      },
      "explanatory_notes": {
        "original_name": "Explanatory Notes",
        "value": "VP from ChemIDplus;",
        "links": [],
        "cross_references": []
      }
    },
    "adverse_effects": {
      "neurotoxin": {
        "original_name": "Neurotoxin",
        "value": "Acute solvent syndrome",
        "links": [],
        "cross_references": []
      }
    },
    "diseases_processes_and_activities_linked_to_this_agent": {
      "diseases": {
        "original_name": "Diseases",
        "value": "Occupational diseases associated with exposure to this agent: Solvents, acute toxic effect",
        "links": [
          {
            "text": "Solvents, acute toxic effect",
            "url": "https://haz-map.com/Diseases/326"
          }
        ],
        "cross_references": [
          {
            "type": "url_match",
            "text": "Solvents, acute toxic effect",
            "url": "https://haz-map.com/Diseases/326",
            "confidence": 1.0,
            "uuid": "581e90e3-9d0c-45f0-aa6c-3468c28da129",
            "name": "Solvents, acute toxic effect",
            "category": "diseases"
          }
        ]
      }
    }
  },
  "cross_references": [
    {
      "type": "url_match",
      "text": "Solvents, acute toxic effect",
      "url": "https://haz-map.com/Diseases/326",
      "confidence": 1.0,
      "uuid": "581e90e3-9d0c-45f0-aa6c-3468c28da129",
      "name": "Solvents, acute toxic effect",
      "category": "diseases"
    },
    {
      "type": "name_match",
      "text": "trichloroethylene",
      "confidence": 1.0,
      "uuid": "85abbb53-907c-49a5-8d79-eb7a10a060a9",
      "name": "Trichloroethylene",
      "url": "https://haz-map.com/Agents/93",
      "category": "agents"
    },
    {
      "type": "name_match",
      "text": "ethyl alcohol",
      "confidence": 1.0,
      "uuid": "9e039165-5b7c-44a7-afb2-dcf3c15e7a99",
      "name": "Ethyl alcohol",
      "url": "https://haz-map.com/Agents/481",
      "category": "agents"
    },
    {
      "type": "name_match",
      "text": "methane",
      "confidence": 1.0,
      "uuid": "5018bf73-24be-4353-8643-c351d5f52186",
      "name": "Methane",
      "url": "https://haz-map.com/Agents/1074",
      "category": "agents"
    },
    {
      "type": "name_match",
      "text": "ethane",
      "confidence": 1.0,
      "uuid": "5162cc8c-dfb9-4060-81ac-38a8cec7f9dd",
      "name": "Ethane",
      "url": "https://haz-map.com/Agents/1075",
      "category": "agents"
    },
    {
      "type": "name_match",
      "text": "ethylene",
      "confidence": 1.0,
      "uuid": "958eacc0-5135-4b62-bb93-6df972bf552f",
      "name": "Ethylene",
      "url": "https://haz-map.com/Agents/1076",
      "category": "agents"
    },
    {
      "type": "name_match",
      "text": "chloral",
      "confidence": 1.0,
      "uuid": "4484bb9d-804f-4aa4-bb27-31f95359d89e",
      "name": "Chloral",
      "url": "https://haz-map.com/Agents/4272",
      "category": "agents"
    },
    {
      "type": "name_match",
      "text": "chloral hydrate",
      "confidence": 1.0,
      "uuid": "d75d97f5-e969-4121-8029-2b078b7cf0c7",
      "name": "Chloral hydrate",
      "url": "https://haz-map.com/Agents/8325",
      "category": "agents"
    },
    {
      "type": "name_match",
      "text": "2,2,2-trichloroethanol",
      "confidence": 1.0,
      "uuid": "9365bf37-83ae-4807-bbdb-47c7a0a9b7e2",
      "name": "2,2,2-Trichloroethanol",
      "url": "https://haz-map.com/Agents/10305",
      "category": "agents"
    }
  ],
  "all_links": [
    {
      "text": "Search PubMed",
      "url": "https://www.ncbi.nlm.nih.gov/pubmed?term=2%2c2%2c2-Trichloroethanol%20AND%20human%5Bmh%5D%20AND%20%28Occupational%20Diseases%20%5Bmh%5D%20OR%20Occupational%20Exposure%20%5Bmh%5D%29%20%20AND%20%28tox%5Bsb%5D%29&cmd=search"
    },
    {
      "text": "Solvents, acute toxic effect",
      "url": "https://haz-map.com/Diseases/326"
    }
  ]
}