{
  "metadata": {
    "scraped_from": "https://haz-map.com/Agents/3247",
    "entity_name": "3-Octanone",
    "category": "agents",
    "uuid": "9365cd66-f5eb-4013-94a5-31f2e782cc1c",
    "scraped_at": "2025-07-23T19:26:20.308161"
  },
  "parsed_at": "2025-07-24T01:17:39.659363",
  "title": "3-Octanone",
  "sections": {
    "general": {
      "agent_name": {
        "original_name": "Agent Name",
        "value": "3-Octanone",
        "links": [],
        "cross_references": [
          {
            "type": "name_match",
            "text": "3-octanone",
            "confidence": 1.0,
            "uuid": "9365cd66-f5eb-4013-94a5-31f2e782cc1c",
            "name": "3-Octanone",
            "url": "https://haz-map.com/Agents/3247",
            "category": "agents"
          }
        ]
      },
      "alternative_name": {
        "original_name": "Alternative Name",
        "value": "Ethyl amyl ketone",
        "links": [],
        "cross_references": [
          {
            "type": "name_match",
            "text": "ethyl amyl ketone",
            "confidence": 1.0,
            "uuid": "b24709a5-d3a7-4228-a56a-b7138412fe40",
            "name": "Ethyl amyl ketone",
            "url": "https://haz-map.com/Agents/482",
            "category": "agents"
          }
        ]
      },
      "cas_number": {
        "original_name": "CAS Number",
        "value": "106-68-3",
        "links": [],
        "cross_references": []
      },
      "formula": {
        "original_name": "Formula",
        "value": "C8-H16-O",
        "links": [],
        "cross_references": []
      },
      "major_category": {
        "original_name": "Major Category",
        "value": "Solvents",
        "links": [],
        "cross_references": []
      },
      "synonyms": {
        "original_name": "Synonyms",
        "value": "Ethyl amyl ketone; 3-Octanone (natural); 3-Oxooctane; Amyl ethyl ketone; EAK; Ethyl n-amyl ketone; Ethyl n-pentyl ketone; Ethyl pentyl ketone; n-Octanone-3; [ChemIDplus] UN2271",
        "links": [],
        "cross_references": [
          {
            "type": "name_match",
            "text": "octane",
            "confidence": 1.0,
            "uuid": "feb2932c-69c5-4142-b6b6-bde017998940",
            "name": "Octane",
            "url": "https://haz-map.com/Agents/106",
            "category": "agents"
          },
          {
            "type": "name_match",
            "text": "ethyl amyl ketone",
            "confidence": 1.0,
            "uuid": "b24709a5-d3a7-4228-a56a-b7138412fe40",
            "name": "Ethyl amyl ketone",
            "url": "https://haz-map.com/Agents/482",
            "category": "agents"
          },
          {
            "type": "name_match",
            "text": "3-octanone",
            "confidence": 1.0,
            "uuid": "9365cd66-f5eb-4013-94a5-31f2e782cc1c",
            "name": "3-Octanone",
            "url": "https://haz-map.com/Agents/3247",
            "category": "agents"
          }
        ]
      },
      "category": {
        "original_name": "Category",
        "value": "Ketones (<C12)",
        "links": [],
        "cross_references": []
      },
      "description": {
        "original_name": "Description",
        "value": "Colorless to slightly yellow liquid; Pungent, somewhat fruity odor; [Merck Index] Colorless liquid; [MSDSonline]",
        "links": [],
        "cross_references": [
          {
            "type": "name_match",
            "text": "ht",
            "confidence": 1.0,
            "uuid": "764df367-8d53-4a11-81a2-31ccfe122a8d",
            "name": "HT",
            "url": "https://haz-map.com/Agents/2168",
            "category": "agents"
          }
        ]
      },
      "sourcesuses": {
        "original_name": "Sources/Uses",
        "value": "Used in lavender perfumes and flavoring agents; [Merck Index] Used as a solvent for nitrocellulose and vinyl resins; [CAMEO]",
        "links": [],
        "cross_references": [
          {
            "type": "name_match",
            "text": "cellulose",
            "confidence": 1.0,
            "uuid": "b9b1b190-806c-4622-8201-8f09b0a87eca",
            "name": "Cellulose",
            "url": "https://haz-map.com/Agents/347",
            "category": "agents"
          }
        ]
      },
      "comments": {
        "original_name": "Comments",
        "value": "Inhalation of high concentrations can cause CNS depression; [HSDB] A skin, eye, mucous membrane, and respiratory tract irritant; [CAMEO] An irritant; [MSDSonline]",
        "links": [],
        "cross_references": []
      },
      "biomedical_references": {
        "original_name": "Biomedical References",
        "value": "Search PubMed",
        "links": [
          {
            "text": "Search PubMed",
            "url": "https://www.ncbi.nlm.nih.gov/pubmed?term=3-Octanone%20AND%20human%5Bmh%5D%20AND%20%28Occupational%20Diseases%20%5Bmh%5D%20OR%20Occupational%20Exposure%20%5Bmh%5D%29%20%20AND%20%28tox%5Bsb%5D%29&cmd=search"
          }
        ],
        "cross_references": []
      }
    },
    "exposure_assessment": {
      "vapor_pressure": {
        "original_name": "Vapor Pressure",
        "value": "2 mm Hg",
        "links": [],
        "cross_references": []
      },
      "odor_threshold_low": {
        "original_name": "Odor Threshold Low",
        "value": "6 ppm",
        "links": [],
        "cross_references": []
      },
      "explanatory_notes": {
        "original_name": "Explanatory Notes",
        "value": "Flash point = 59 deg C; [CHEMINFO] Odor threshold form CHEMINFO; VP from ChemIDplus;",
        "links": [],
        "cross_references": [
          {
            "type": "name_match",
            "text": "ash",
            "confidence": 1.0,
            "uuid": "68b360f1-5ad0-4337-bea0-d7adca2961b5",
            "name": "Ash",
            "url": "https://haz-map.com/Agents/965",
            "category": "agents"
          }
        ]
      }
    },
    "adverse_effects": {
      "neurotoxin": {
        "original_name": "Neurotoxin",
        "value": "Acute solvent syndrome",
        "links": [],
        "cross_references": []
      }
    },
    "diseases_processes_and_activities_linked_to_this_agent": {
      "diseases": {
        "original_name": "Diseases",
        "value": "Occupational diseases associated with exposure to this agent: Solvents, acute toxic effect",
        "links": [
          {
            "text": "Solvents, acute toxic effect",
            "url": "https://haz-map.com/Diseases/326"
          }
        ],
        "cross_references": [
          {
            "type": "url_match",
            "text": "Solvents, acute toxic effect",
            "url": "https://haz-map.com/Diseases/326",
            "confidence": 1.0,
            "uuid": "581e90e3-9d0c-45f0-aa6c-3468c28da129",
            "name": "Solvents, acute toxic effect",
            "category": "diseases"
          }
        ]
      }
    }
  },
  "cross_references": [
    {
      "type": "url_match",
      "text": "Solvents, acute toxic effect",
      "url": "https://haz-map.com/Diseases/326",
      "confidence": 1.0,
      "uuid": "581e90e3-9d0c-45f0-aa6c-3468c28da129",
      "name": "Solvents, acute toxic effect",
      "category": "diseases"
    },
    {
      "type": "name_match",
      "text": "octane",
      "confidence": 1.0,
      "uuid": "feb2932c-69c5-4142-b6b6-bde017998940",
      "name": "Octane",
      "url": "https://haz-map.com/Agents/106",
      "category": "agents"
    },
    {
      "type": "name_match",
      "text": "cellulose",
      "confidence": 1.0,
      "uuid": "b9b1b190-806c-4622-8201-8f09b0a87eca",
      "name": "Cellulose",
      "url": "https://haz-map.com/Agents/347",
      "category": "agents"
    },
    {
      "type": "name_match",
      "text": "ethyl amyl ketone",
      "confidence": 1.0,
      "uuid": "b24709a5-d3a7-4228-a56a-b7138412fe40",
      "name": "Ethyl amyl ketone",
      "url": "https://haz-map.com/Agents/482",
      "category": "agents"
    },
    {
      "type": "name_match",
      "text": "ash",
      "confidence": 1.0,
      "uuid": "68b360f1-5ad0-4337-bea0-d7adca2961b5",
      "name": "Ash",
      "url": "https://haz-map.com/Agents/965",
      "category": "agents"
    },
    {
      "type": "name_match",
      "text": "ht",
      "confidence": 1.0,
      "uuid": "764df367-8d53-4a11-81a2-31ccfe122a8d",
      "name": "HT",
      "url": "https://haz-map.com/Agents/2168",
      "category": "agents"
    },
    {
      "type": "name_match",
      "text": "3-octanone",
      "confidence": 1.0,
      "uuid": "9365cd66-f5eb-4013-94a5-31f2e782cc1c",
      "name": "3-Octanone",
      "url": "https://haz-map.com/Agents/3247",
      "category": "agents"
    }
  ],
  "all_links": [
    {
      "text": "Search PubMed",
      "url": "https://www.ncbi.nlm.nih.gov/pubmed?term=3-Octanone%20AND%20human%5Bmh%5D%20AND%20%28Occupational%20Diseases%20%5Bmh%5D%20OR%20Occupational%20Exposure%20%5Bmh%5D%29%20%20AND%20%28tox%5Bsb%5D%29&cmd=search"
    },
    {
      "text": "Solvents, acute toxic effect",
      "url": "https://haz-map.com/Diseases/326"
    }
  ]
}