{
  "metadata": {
    "scraped_from": "https://haz-map.com/Agents/7836",
    "entity_name": "Diethylbenzene, mixed isomers",
    "category": "agents",
    "uuid": "9398e0f8-2ce7-4f80-b090-a5c757634582",
    "scraped_at": "2025-07-23T20:17:21.279576"
  },
  "parsed_at": "2025-07-24T01:14:53.888852",
  "title": "Diethylbenzene, mixed isomers",
  "sections": {
    "general": {
      "agent_name": {
        "original_name": "Agent Name",
        "value": "Diethylbenzene, mixed isomers",
        "links": [],
        "cross_references": [
          {
            "type": "name_match",
            "text": "benzene",
            "confidence": 1.0,
            "uuid": "b05124de-5f34-4c14-8f04-ccb20c3780d9",
            "name": "Benzene",
            "url": "https://haz-map.com/Agents/5",
            "category": "agents"
          },
          {
            "type": "name_match",
            "text": "diethylbenzene, mixed isomers",
            "confidence": 1.0,
            "uuid": "9398e0f8-2ce7-4f80-b090-a5c757634582",
            "name": "Diethylbenzene, mixed isomers",
            "url": "https://haz-map.com/Agents/7836",
            "category": "agents"
          }
        ]
      },
      "alternative_name": {
        "original_name": "Alternative Name",
        "value": "Dowtherm J",
        "links": [],
        "cross_references": []
      },
      "cas_number": {
        "original_name": "CAS Number",
        "value": "25340-17-4",
        "links": [],
        "cross_references": []
      },
      "formula": {
        "original_name": "Formula",
        "value": "C10-H14",
        "links": [],
        "cross_references": []
      },
      "major_category": {
        "original_name": "Major Category",
        "value": "Solvents",
        "links": [],
        "cross_references": []
      },
      "synonyms": {
        "original_name": "Synonyms",
        "value": "Diethylbenzol; Benzene, diethyl-; [ChemIDplus] Dowtherm J; [ACGIH] UN2049",
        "links": [],
        "cross_references": [
          {
            "type": "name_match",
            "text": "benzene",
            "confidence": 1.0,
            "uuid": "b05124de-5f34-4c14-8f04-ccb20c3780d9",
            "name": "Benzene",
            "url": "https://haz-map.com/Agents/5",
            "category": "agents"
          }
        ]
      },
      "category": {
        "original_name": "Category",
        "value": "Aromatic Solvents",
        "links": [],
        "cross_references": []
      },
      "description": {
        "original_name": "Description",
        "value": "Colorless liquid with characteristic odor; [ICSC]",
        "links": [],
        "cross_references": []
      },
      "sourcesuses": {
        "original_name": "Sources/Uses",
        "value": "Used as an intermediate and a solvent; [Hawley] Used as a heat-transfer liquid and to make magnesium printing plates and other organic compounds; [AIHA]",
        "links": [],
        "cross_references": [
          {
            "type": "name_match",
            "text": "magnesium",
            "confidence": 1.0,
            "uuid": "cc686725-b850-45b5-ad9d-2a40f17936a8",
            "name": "Magnesium",
            "url": "https://haz-map.com/Agents/1549",
            "category": "agents"
          },
          {
            "type": "fuzzy_match",
            "text": "organic compounds",
            "matched_name": "Tin, organic compounds",
            "confidence": 0.8196969696969697,
            "uuid": "e027d413-8869-4308-9eb2-27d768b011ea",
            "category": "agents",
            "url": "https://haz-map.com/Agents/656"
          }
        ]
      },
      "comments": {
        "original_name": "Comments",
        "value": "A skin and eye irritant; Inhalation of high concentrations can cause CNS effects; May cause kidney and liver injury; [ICSC] A skin irritant; Targets liver and kidneys in high-dose animal experiments; [MSDSonline] Rats exposed to 1400 ppm and 2100 ppm for 7 hours survived, but showed signs of CNS depression; [AIHA]",
        "links": [],
        "cross_references": []
      },
      "biomedical_references": {
        "original_name": "Biomedical References",
        "value": "Search PubMed",
        "links": [
          {
            "text": "Search PubMed",
            "url": "https://www.ncbi.nlm.nih.gov/pubmed?term=Diethylbenzene%2c+mixed+isomers%20AND%20human%5Bmh%5D%20AND%20%28Occupational%20Diseases%20%5Bmh%5D%20OR%20Occupational%20Exposure%20%5Bmh%5D%29%20%20AND%20%28tox%5Bsb%5D%29&cmd=search"
          }
        ],
        "cross_references": []
      }
    },
    "exposure_assessment": {
      "mak": {
        "original_name": "MAK",
        "value": "5 ppm, when exposed to the mixture, observe the value for 1,2-Diethylbenzene",
        "links": [],
        "cross_references": [
          {
            "type": "name_match",
            "text": "benzene",
            "confidence": 1.0,
            "uuid": "b05124de-5f34-4c14-8f04-ccb20c3780d9",
            "name": "Benzene",
            "url": "https://haz-map.com/Agents/5",
            "category": "agents"
          },
          {
            "type": "name_match",
            "text": "1,2-diethylbenzene",
            "confidence": 1.0,
            "uuid": "d2df767c-633a-48d6-bf01-164551adcfb3",
            "name": "1,2-Diethylbenzene",
            "url": "https://haz-map.com/Agents/2756",
            "category": "agents"
          }
        ]
      },
      "vapor_pressure": {
        "original_name": "Vapor Pressure",
        "value": "0.571 mm Hg",
        "links": [],
        "cross_references": []
      },
      "lethal_concentration": {
        "original_name": "Lethal Concentration",
        "value": "LCLo (rat) = 3,000 mg/m3",
        "links": [],
        "cross_references": []
      },
      "explanatory_notes": {
        "original_name": "Explanatory Notes",
        "value": "Flash point = 55 deg C; [ICSC] VP from ChemIDplus;",
        "links": [],
        "cross_references": [
          {
            "type": "name_match",
            "text": "ash",
            "confidence": 1.0,
            "uuid": "68b360f1-5ad0-4337-bea0-d7adca2961b5",
            "name": "Ash",
            "url": "https://haz-map.com/Agents/965",
            "category": "agents"
          }
        ]
      },
      "erpg1": {
        "original_name": "ERPG-1",
        "value": "10 ppm",
        "links": [],
        "cross_references": []
      },
      "erpg2": {
        "original_name": "ERPG-2",
        "value": "100 ppm",
        "links": [],
        "cross_references": []
      },
      "erpg3": {
        "original_name": "ERPG-3",
        "value": "500 ppm",
        "links": [],
        "cross_references": []
      },
      "weel": {
        "original_name": "WEEL",
        "value": "5 ppm",
        "links": [],
        "cross_references": []
      }
    },
    "adverse_effects": {
      "neurotoxin": {
        "original_name": "Neurotoxin",
        "value": "Acute solvent syndrome",
        "links": [],
        "cross_references": []
      },
      "hepatotoxin": {
        "original_name": "Hepatotoxin",
        "value": "Hepatoxic (a) from occupational exposure (secondary effect) or (b) in animal studies or in humans after ingestion",
        "links": [],
        "cross_references": []
      }
    },
    "diseases_processes_and_activities_linked_to_this_agent": {
      "diseases": {
        "original_name": "Diseases",
        "value": "Occupational diseases associated with exposure to this agent: Solvents, acute toxic effect",
        "links": [
          {
            "text": "Solvents, acute toxic effect",
            "url": "https://haz-map.com/Diseases/326"
          }
        ],
        "cross_references": [
          {
            "type": "url_match",
            "text": "Solvents, acute toxic effect",
            "url": "https://haz-map.com/Diseases/326",
            "confidence": 1.0,
            "uuid": "581e90e3-9d0c-45f0-aa6c-3468c28da129",
            "name": "Solvents, acute toxic effect",
            "category": "diseases"
          }
        ]
      }
    }
  },
  "cross_references": [
    {
      "type": "url_match",
      "text": "Solvents, acute toxic effect",
      "url": "https://haz-map.com/Diseases/326",
      "confidence": 1.0,
      "uuid": "581e90e3-9d0c-45f0-aa6c-3468c28da129",
      "name": "Solvents, acute toxic effect",
      "category": "diseases"
    },
    {
      "type": "name_match",
      "text": "benzene",
      "confidence": 1.0,
      "uuid": "b05124de-5f34-4c14-8f04-ccb20c3780d9",
      "name": "Benzene",
      "url": "https://haz-map.com/Agents/5",
      "category": "agents"
    },
    {
      "type": "name_match",
      "text": "ash",
      "confidence": 1.0,
      "uuid": "68b360f1-5ad0-4337-bea0-d7adca2961b5",
      "name": "Ash",
      "url": "https://haz-map.com/Agents/965",
      "category": "agents"
    },
    {
      "type": "name_match",
      "text": "magnesium",
      "confidence": 1.0,
      "uuid": "cc686725-b850-45b5-ad9d-2a40f17936a8",
      "name": "Magnesium",
      "url": "https://haz-map.com/Agents/1549",
      "category": "agents"
    },
    {
      "type": "name_match",
      "text": "1,2-diethylbenzene",
      "confidence": 1.0,
      "uuid": "d2df767c-633a-48d6-bf01-164551adcfb3",
      "name": "1,2-Diethylbenzene",
      "url": "https://haz-map.com/Agents/2756",
      "category": "agents"
    },
    {
      "type": "name_match",
      "text": "diethylbenzene, mixed isomers",
      "confidence": 1.0,
      "uuid": "9398e0f8-2ce7-4f80-b090-a5c757634582",
      "name": "Diethylbenzene, mixed isomers",
      "url": "https://haz-map.com/Agents/7836",
      "category": "agents"
    },
    {
      "type": "fuzzy_match",
      "text": "organic compounds",
      "matched_name": "Tin, organic compounds",
      "confidence": 0.8196969696969697,
      "uuid": "e027d413-8869-4308-9eb2-27d768b011ea",
      "category": "agents",
      "url": "https://haz-map.com/Agents/656"
    }
  ],
  "all_links": [
    {
      "text": "Search PubMed",
      "url": "https://www.ncbi.nlm.nih.gov/pubmed?term=Diethylbenzene%2c+mixed+isomers%20AND%20human%5Bmh%5D%20AND%20%28Occupational%20Diseases%20%5Bmh%5D%20OR%20Occupational%20Exposure%20%5Bmh%5D%29%20%20AND%20%28tox%5Bsb%5D%29&cmd=search"
    },
    {
      "text": "Solvents, acute toxic effect",
      "url": "https://haz-map.com/Diseases/326"
    }
  ]
}