{
  "metadata": {
    "scraped_from": "https://haz-map.com/Agents/1909",
    "entity_name": "Pentachlorobenzene",
    "category": "agents",
    "uuid": "93da75d6-378e-4e31-9cf2-40466f467fef",
    "scraped_at": "2025-07-23T19:06:32.717448"
  },
  "parsed_at": "2025-07-24T01:09:42.817875",
  "title": "Pentachlorobenzene",
  "sections": {
    "general": {
      "agent_name": {
        "original_name": "Agent Name",
        "value": "Pentachlorobenzene",
        "links": [],
        "cross_references": [
          {
            "type": "name_match",
            "text": "benzene",
            "confidence": 1.0,
            "uuid": "b05124de-5f34-4c14-8f04-ccb20c3780d9",
            "name": "Benzene",
            "url": "https://haz-map.com/Agents/5",
            "category": "agents"
          },
          {
            "type": "name_match",
            "text": "chlorobenzene",
            "confidence": 1.0,
            "uuid": "7e598eca-f35d-493c-aa78-93bb67744c4c",
            "name": "Chlorobenzene",
            "url": "https://haz-map.com/Agents/85",
            "category": "agents"
          },
          {
            "type": "name_match",
            "text": "pentachlorobenzene",
            "confidence": 1.0,
            "uuid": "93da75d6-378e-4e31-9cf2-40466f467fef",
            "name": "Pentachlorobenzene",
            "url": "https://haz-map.com/Agents/1909",
            "category": "agents"
          }
        ]
      },
      "cas_number": {
        "original_name": "CAS Number",
        "value": "608-93-5",
        "links": [],
        "cross_references": []
      },
      "formula": {
        "original_name": "Formula",
        "value": "C6-H-Cl5",
        "links": [],
        "cross_references": []
      },
      "major_category": {
        "original_name": "Major Category",
        "value": "Other Classes",
        "links": [],
        "cross_references": []
      },
      "synonyms": {
        "original_name": "Synonyms",
        "value": "1,2,3,4,5-Pentachlorobenzene; Benzene, pentachloro-; PCB; Pentachlorobenzene; QCB; [ChemIDplus] UN3077 [MSDSonline]",
        "links": [],
        "cross_references": [
          {
            "type": "name_match",
            "text": "benzene",
            "confidence": 1.0,
            "uuid": "b05124de-5f34-4c14-8f04-ccb20c3780d9",
            "name": "Benzene",
            "url": "https://haz-map.com/Agents/5",
            "category": "agents"
          },
          {
            "type": "name_match",
            "text": "chlorobenzene",
            "confidence": 1.0,
            "uuid": "7e598eca-f35d-493c-aa78-93bb67744c4c",
            "name": "Chlorobenzene",
            "url": "https://haz-map.com/Agents/85",
            "category": "agents"
          },
          {
            "type": "name_match",
            "text": "pentachlorobenzene",
            "confidence": 1.0,
            "uuid": "93da75d6-378e-4e31-9cf2-40466f467fef",
            "name": "Pentachlorobenzene",
            "url": "https://haz-map.com/Agents/1909",
            "category": "agents"
          }
        ]
      },
      "category": {
        "original_name": "Category",
        "value": "Halogenated Monoaromatics",
        "links": [],
        "cross_references": []
      },
      "description": {
        "original_name": "Description",
        "value": "Clear to white crystals with a characteristic odor; [ICSC]",
        "links": [],
        "cross_references": []
      },
      "sourcesuses": {
        "original_name": "Sources/Uses",
        "value": "Used as a chemical intermediate for pentachloronitrobenzene; [HSDB]",
        "links": [],
        "cross_references": [
          {
            "type": "name_match",
            "text": "benzene",
            "confidence": 1.0,
            "uuid": "b05124de-5f34-4c14-8f04-ccb20c3780d9",
            "name": "Benzene",
            "url": "https://haz-map.com/Agents/5",
            "category": "agents"
          },
          {
            "type": "name_match",
            "text": "nitrobenzene",
            "confidence": 1.0,
            "uuid": "4488262c-4790-4774-a462-bf0cc71ff40c",
            "name": "Nitrobenzene",
            "url": "https://haz-map.com/Agents/569",
            "category": "agents"
          },
          {
            "type": "name_match",
            "text": "mica",
            "confidence": 1.0,
            "uuid": "433f26f1-c399-4596-b179-ce3843cfd465",
            "name": "Mica",
            "url": "https://haz-map.com/Agents/621",
            "category": "agents"
          },
          {
            "type": "name_match",
            "text": "pentachloronitrobenzene",
            "confidence": 1.0,
            "uuid": "e0da87cd-8ce6-4e09-8bf2-8ed36b74782e",
            "name": "Pentachloronitrobenzene",
            "url": "https://haz-map.com/Agents/1340",
            "category": "agents"
          }
        ]
      },
      "comments": {
        "original_name": "Comments",
        "value": "May cause liver injury; Reproductive toxin in animals; Produces HCl when burned; [ICSC] It is relatively unreactive, and it is insoluble in water. [CAMEO] See \"1,2,3,5-Tetrachlorobenzene.\"",
        "links": [],
        "cross_references": [
          {
            "type": "name_match",
            "text": "burn",
            "confidence": 1.0,
            "uuid": "63665de5-6376-4918-8dbf-4c10c4d63837",
            "name": "burn",
            "url": "https://haz-map.com/Findings/204",
            "category": "findings"
          },
          {
            "type": "name_match",
            "text": "benzene",
            "confidence": 1.0,
            "uuid": "b05124de-5f34-4c14-8f04-ccb20c3780d9",
            "name": "Benzene",
            "url": "https://haz-map.com/Agents/5",
            "category": "agents"
          },
          {
            "type": "name_match",
            "text": "chlorobenzene",
            "confidence": 1.0,
            "uuid": "7e598eca-f35d-493c-aa78-93bb67744c4c",
            "name": "Chlorobenzene",
            "url": "https://haz-map.com/Agents/85",
            "category": "agents"
          },
          {
            "type": "name_match",
            "text": "1,2,3,5-tetrachlorobenzene",
            "confidence": 1.0,
            "uuid": "ed987ae3-d79b-499d-8137-8c1bc4d2f4fe",
            "name": "1,2,3,5-Tetrachlorobenzene",
            "url": "https://haz-map.com/Agents/2721",
            "category": "agents"
          },
          {
            "type": "name_match",
            "text": "water",
            "confidence": 1.0,
            "uuid": "6f2a7557-dfd2-49bc-9b4b-a93cd8e225d4",
            "name": "Water",
            "url": "https://haz-map.com/Agents/18668",
            "category": "agents"
          },
          {
            "type": "name_match",
            "text": "tetrachlorobenzene",
            "confidence": 1.0,
            "uuid": "701f600c-c6da-4dcd-89fd-4fa91ea6938e",
            "name": "Tetrachlorobenzene",
            "url": "https://haz-map.com/Agents/19835",
            "category": "agents"
          },
          {
            "type": "fuzzy_match",
            "text": "5-tetrachlorobenzene",
            "matched_name": "1,2,4,5-Tetrachlorobenzene",
            "confidence": 0.7669683257918551,
            "uuid": "1f7f5834-196a-49da-b6f7-54a1b43003f1",
            "category": "agents",
            "url": "https://haz-map.com/Agents/1580"
          }
        ]
      },
      "biomedical_references": {
        "original_name": "Biomedical References",
        "value": "Search PubMed",
        "links": [
          {
            "text": "Search PubMed",
            "url": "https://www.ncbi.nlm.nih.gov/pubmed?term=Pentachlorobenzene%20AND%20human%5Bmh%5D%20AND%20%28Occupational%20Diseases%20%5Bmh%5D%20OR%20Occupational%20Exposure%20%5Bmh%5D%29%20%20AND%20%28tox%5Bsb%5D%29&cmd=search"
          }
        ],
        "cross_references": []
      }
    },
    "exposure_assessment": {
      "vapor_pressure": {
        "original_name": "Vapor Pressure",
        "value": "0.0065 mm Hg",
        "links": [],
        "cross_references": []
      }
    },
    "adverse_effects": {
      "hepatotoxin": {
        "original_name": "Hepatotoxin",
        "value": "Hepatoxic (a) from occupational exposure (secondary effect) or (b) in animal studies or in humans after ingestion",
        "links": [],
        "cross_references": []
      }
    },
    "diseases_processes_and_activities_linked_to_this_agent": {
      "other_information": {
        "original_name": "Other Information",
        "value": "No other related information on this agent was found.",
        "links": [],
        "cross_references": []
      }
    }
  },
  "cross_references": [
    {
      "type": "name_match",
      "text": "burn",
      "confidence": 1.0,
      "uuid": "63665de5-6376-4918-8dbf-4c10c4d63837",
      "name": "burn",
      "url": "https://haz-map.com/Findings/204",
      "category": "findings"
    },
    {
      "type": "name_match",
      "text": "benzene",
      "confidence": 1.0,
      "uuid": "b05124de-5f34-4c14-8f04-ccb20c3780d9",
      "name": "Benzene",
      "url": "https://haz-map.com/Agents/5",
      "category": "agents"
    },
    {
      "type": "name_match",
      "text": "chlorobenzene",
      "confidence": 1.0,
      "uuid": "7e598eca-f35d-493c-aa78-93bb67744c4c",
      "name": "Chlorobenzene",
      "url": "https://haz-map.com/Agents/85",
      "category": "agents"
    },
    {
      "type": "name_match",
      "text": "nitrobenzene",
      "confidence": 1.0,
      "uuid": "4488262c-4790-4774-a462-bf0cc71ff40c",
      "name": "Nitrobenzene",
      "url": "https://haz-map.com/Agents/569",
      "category": "agents"
    },
    {
      "type": "name_match",
      "text": "mica",
      "confidence": 1.0,
      "uuid": "433f26f1-c399-4596-b179-ce3843cfd465",
      "name": "Mica",
      "url": "https://haz-map.com/Agents/621",
      "category": "agents"
    },
    {
      "type": "name_match",
      "text": "pentachloronitrobenzene",
      "confidence": 1.0,
      "uuid": "e0da87cd-8ce6-4e09-8bf2-8ed36b74782e",
      "name": "Pentachloronitrobenzene",
      "url": "https://haz-map.com/Agents/1340",
      "category": "agents"
    },
    {
      "type": "name_match",
      "text": "pentachlorobenzene",
      "confidence": 1.0,
      "uuid": "93da75d6-378e-4e31-9cf2-40466f467fef",
      "name": "Pentachlorobenzene",
      "url": "https://haz-map.com/Agents/1909",
      "category": "agents"
    },
    {
      "type": "name_match",
      "text": "1,2,3,5-tetrachlorobenzene",
      "confidence": 1.0,
      "uuid": "ed987ae3-d79b-499d-8137-8c1bc4d2f4fe",
      "name": "1,2,3,5-Tetrachlorobenzene",
      "url": "https://haz-map.com/Agents/2721",
      "category": "agents"
    },
    {
      "type": "name_match",
      "text": "water",
      "confidence": 1.0,
      "uuid": "6f2a7557-dfd2-49bc-9b4b-a93cd8e225d4",
      "name": "Water",
      "url": "https://haz-map.com/Agents/18668",
      "category": "agents"
    },
    {
      "type": "name_match",
      "text": "tetrachlorobenzene",
      "confidence": 1.0,
      "uuid": "701f600c-c6da-4dcd-89fd-4fa91ea6938e",
      "name": "Tetrachlorobenzene",
      "url": "https://haz-map.com/Agents/19835",
      "category": "agents"
    },
    {
      "type": "fuzzy_match",
      "text": "5-tetrachlorobenzene",
      "matched_name": "1,2,4,5-Tetrachlorobenzene",
      "confidence": 0.7669683257918551,
      "uuid": "1f7f5834-196a-49da-b6f7-54a1b43003f1",
      "category": "agents",
      "url": "https://haz-map.com/Agents/1580"
    }
  ],
  "all_links": [
    {
      "text": "Search PubMed",
      "url": "https://www.ncbi.nlm.nih.gov/pubmed?term=Pentachlorobenzene%20AND%20human%5Bmh%5D%20AND%20%28Occupational%20Diseases%20%5Bmh%5D%20OR%20Occupational%20Exposure%20%5Bmh%5D%29%20%20AND%20%28tox%5Bsb%5D%29&cmd=search"
    }
  ]
}