{
  "metadata": {
    "scraped_from": "https://haz-map.com/Agents/3126",
    "entity_name": "2-Methyl-1-butanol",
    "category": "agents",
    "uuid": "94da598f-350a-4f35-b363-63a7f0d50d4f",
    "scraped_at": "2025-07-23T19:24:28.258951"
  },
  "parsed_at": "2025-07-24T01:08:07.801739",
  "title": "2-Methyl-1-butanol",
  "sections": {
    "general": {
      "agent_name": {
        "original_name": "Agent Name",
        "value": "2-Methyl-1-butanol",
        "links": [],
        "cross_references": [
          {
            "type": "name_match",
            "text": "2-methyl-1-butanol",
            "confidence": 1.0,
            "uuid": "94da598f-350a-4f35-b363-63a7f0d50d4f",
            "name": "2-Methyl-1-butanol",
            "url": "https://haz-map.com/Agents/3126",
            "category": "agents"
          }
        ]
      },
      "cas_number": {
        "original_name": "CAS Number",
        "value": "137-32-6",
        "links": [],
        "cross_references": []
      },
      "formula": {
        "original_name": "Formula",
        "value": "C5-H12-O",
        "links": [],
        "cross_references": []
      },
      "major_category": {
        "original_name": "Major Category",
        "value": "Solvents",
        "links": [],
        "cross_references": []
      },
      "synonyms": {
        "original_name": "Synonyms",
        "value": "1-Butanol, 2-methyl-; 2-Methyl butanol-1; 2-Methyl-n-butanol; 2-Methylbutanol; 2-Methylbutyl alcohol; Active amyl alcohol; Active primary amyl alcohol; Primary active amyl alcohol; dl-sec-Butyl carbinol; sec-Butylcarbinol; [ChemIDplus] UN1105",
        "links": [],
        "cross_references": [
          {
            "type": "name_match",
            "text": "ethyl butanol",
            "confidence": 1.0,
            "uuid": "30b32eef-5f75-40a4-836b-6cade02a3e65",
            "name": "Ethyl butanol",
            "url": "https://haz-map.com/Agents/5193",
            "category": "agents"
          }
        ]
      },
      "category": {
        "original_name": "Category",
        "value": "Alcohols (<C12)",
        "links": [],
        "cross_references": []
      },
      "description": {
        "original_name": "Description",
        "value": "Colorless liquid; [Hawley]",
        "links": [],
        "cross_references": []
      },
      "sourcesuses": {
        "original_name": "Sources/Uses",
        "value": "Used as a solvent; for organic synthesis (introduction of active amyl group); in lubricants, plasticizers, and additives for oils and paints; as a frothing agent in ore flotation; as a chemical intermediate; [HSDB] Used to manufacture liquid crystals, plant protection agents, and fragrances; to catalyze polymerization of caprolactam; and to extract crude oil; [CHEMINFO]",
        "links": [],
        "cross_references": [
          {
            "type": "name_match",
            "text": "crude oil",
            "confidence": 1.0,
            "uuid": "3c53214b-a11f-42b3-885f-2328e6242433",
            "name": "Crude oil",
            "url": "https://haz-map.com/Agents/48",
            "category": "agents"
          },
          {
            "type": "name_match",
            "text": "caprolactam",
            "confidence": 1.0,
            "uuid": "ab7d90df-81b2-494b-ba93-0d963bbc64a8",
            "name": "Caprolactam",
            "url": "https://haz-map.com/Agents/339",
            "category": "agents"
          },
          {
            "type": "name_match",
            "text": "mica",
            "confidence": 1.0,
            "uuid": "433f26f1-c399-4596-b179-ce3843cfd465",
            "name": "Mica",
            "url": "https://haz-map.com/Agents/621",
            "category": "agents"
          }
        ]
      },
      "comments": {
        "original_name": "Comments",
        "value": "A skin, eye, and respiratory tract irritant; May cause CNS effects; \"Swallowing the liquid may cause aspiration into the lungs with the risk of chemical pneumonitis. The liquid defats the skin.\" [ICSC] Safe when used as a flavoring agent; [JECFA] In oral lethal dose studies, animals have ataxia and prostration; [OECD SIDS] An irritant; Effects in high-dose animal studies include spastic paralysis with/without sensory change; [MSDSonline]",
        "links": [],
        "cross_references": [
          {
            "type": "name_match",
            "text": "mica",
            "confidence": 1.0,
            "uuid": "433f26f1-c399-4596-b179-ce3843cfd465",
            "name": "Mica",
            "url": "https://haz-map.com/Agents/621",
            "category": "agents"
          }
        ]
      },
      "biomedical_references": {
        "original_name": "Biomedical References",
        "value": "Search PubMed",
        "links": [
          {
            "text": "Search PubMed",
            "url": "https://www.ncbi.nlm.nih.gov/pubmed?term=2-Methyl-1-butanol%20AND%20human%5Bmh%5D%20AND%20%28Occupational%20Diseases%20%5Bmh%5D%20OR%20Occupational%20Exposure%20%5Bmh%5D%29%20%20AND%20%28tox%5Bsb%5D%29&cmd=search"
          }
        ],
        "cross_references": []
      }
    },
    "exposure_assessment": {
      "mak": {
        "original_name": "MAK",
        "value": "20 ppm",
        "links": [],
        "cross_references": []
      },
      "vapor_pressure": {
        "original_name": "Vapor Pressure",
        "value": "3.12 mm Hg",
        "links": [],
        "cross_references": []
      },
      "odor_threshold_low": {
        "original_name": "Odor Threshold Low",
        "value": "0.121 ppm",
        "links": [],
        "cross_references": []
      },
      "odor_threshold_high": {
        "original_name": "Odor Threshold High",
        "value": "0.23 ppm",
        "links": [],
        "cross_references": []
      },
      "explanatory_notes": {
        "original_name": "Explanatory Notes",
        "value": "Flash point = 50 deg C; [Merck Index] Odor threshold from CHEMINFO; The Guide in the Emergency Response Guidebook is for \"Amyl alcohols.\" VP from ChemIDplus;",
        "links": [],
        "cross_references": [
          {
            "type": "name_match",
            "text": "ash",
            "confidence": 1.0,
            "uuid": "68b360f1-5ad0-4337-bea0-d7adca2961b5",
            "name": "Ash",
            "url": "https://haz-map.com/Agents/965",
            "category": "agents"
          }
        ]
      },
      "nfpa": {
        "original_name": "NFPA",
        "value": "high ambient temp required",
        "links": [],
        "cross_references": []
      },
      "weel": {
        "original_name": "WEEL",
        "value": "100 ppm",
        "links": [],
        "cross_references": []
      }
    },
    "adverse_effects": {
      "neurotoxin": {
        "original_name": "Neurotoxin",
        "value": "Acute solvent syndrome",
        "links": [],
        "cross_references": []
      }
    },
    "diseases_processes_and_activities_linked_to_this_agent": {
      "diseases": {
        "original_name": "Diseases",
        "value": "Occupational diseases associated with exposure to this agent: Encephalopathy, chronic solvent Solvents, acute toxic effect",
        "links": [
          {
            "text": "Encephalopathy, chronic solvent",
            "url": "https://haz-map.com/Diseases/325"
          },
          {
            "text": "Solvents, acute toxic effect",
            "url": "https://haz-map.com/Diseases/326"
          }
        ],
        "cross_references": [
          {
            "type": "url_match",
            "text": "Encephalopathy, chronic solvent",
            "url": "https://haz-map.com/Diseases/325",
            "confidence": 1.0,
            "uuid": "589ad578-4636-444e-8823-bf2dd0c7aeab",
            "name": "Encephalopathy, chronic solvent",
            "category": "diseases"
          },
          {
            "type": "url_match",
            "text": "Solvents, acute toxic effect",
            "url": "https://haz-map.com/Diseases/326",
            "confidence": 1.0,
            "uuid": "581e90e3-9d0c-45f0-aa6c-3468c28da129",
            "name": "Solvents, acute toxic effect",
            "category": "diseases"
          }
        ]
      },
      "processes": {
        "original_name": "Processes",
        "value": "Industrial Processes with risk of exposure: Metal Extraction and Refining Painting (Solvents) Petroleum Production and Refining",
        "links": [
          {
            "text": "Metal Extraction and Refining",
            "url": "https://haz-map.com/Processes/261"
          },
          {
            "text": "Painting (Solvents)",
            "url": "https://haz-map.com/Processes/142"
          },
          {
            "text": "Petroleum Production and Refining",
            "url": "https://haz-map.com/Processes/75"
          }
        ],
        "cross_references": [
          {
            "type": "url_match",
            "text": "Painting (Solvents)",
            "url": "https://haz-map.com/Processes/142",
            "confidence": 1.0,
            "uuid": "ca747481-4da1-4550-a546-f0d43a41b46c",
            "name": "Painting (Solvents)",
            "category": "processes"
          },
          {
            "type": "url_match",
            "text": "Petroleum Production and Refining",
            "url": "https://haz-map.com/Processes/75",
            "confidence": 1.0,
            "uuid": "e2003948-ad28-44a5-85f6-2e3391da8917",
            "name": "Petroleum Production and Refining",
            "category": "processes"
          },
          {
            "type": "name_match",
            "text": "painting",
            "confidence": 1.0,
            "uuid": "19816ce9-9edf-4a86-8e64-b0cbf7dcf520",
            "name": "Painting",
            "url": "https://haz-map.com/Activities/9",
            "category": "activities"
          },
          {
            "type": "name_match",
            "text": "oleum",
            "confidence": 1.0,
            "uuid": "12af84ee-bcf0-416d-9220-7c4c6dc330f1",
            "name": "Oleum",
            "url": "https://haz-map.com/Agents/2227",
            "category": "agents"
          }
        ]
      }
    }
  },
  "cross_references": [
    {
      "type": "url_match",
      "text": "Encephalopathy, chronic solvent",
      "url": "https://haz-map.com/Diseases/325",
      "confidence": 1.0,
      "uuid": "589ad578-4636-444e-8823-bf2dd0c7aeab",
      "name": "Encephalopathy, chronic solvent",
      "category": "diseases"
    },
    {
      "type": "url_match",
      "text": "Solvents, acute toxic effect",
      "url": "https://haz-map.com/Diseases/326",
      "confidence": 1.0,
      "uuid": "581e90e3-9d0c-45f0-aa6c-3468c28da129",
      "name": "Solvents, acute toxic effect",
      "category": "diseases"
    },
    {
      "type": "url_match",
      "text": "Painting (Solvents)",
      "url": "https://haz-map.com/Processes/142",
      "confidence": 1.0,
      "uuid": "ca747481-4da1-4550-a546-f0d43a41b46c",
      "name": "Painting (Solvents)",
      "category": "processes"
    },
    {
      "type": "url_match",
      "text": "Petroleum Production and Refining",
      "url": "https://haz-map.com/Processes/75",
      "confidence": 1.0,
      "uuid": "e2003948-ad28-44a5-85f6-2e3391da8917",
      "name": "Petroleum Production and Refining",
      "category": "processes"
    },
    {
      "type": "name_match",
      "text": "painting",
      "confidence": 1.0,
      "uuid": "19816ce9-9edf-4a86-8e64-b0cbf7dcf520",
      "name": "Painting",
      "url": "https://haz-map.com/Activities/9",
      "category": "activities"
    },
    {
      "type": "name_match",
      "text": "crude oil",
      "confidence": 1.0,
      "uuid": "3c53214b-a11f-42b3-885f-2328e6242433",
      "name": "Crude oil",
      "url": "https://haz-map.com/Agents/48",
      "category": "agents"
    },
    {
      "type": "name_match",
      "text": "caprolactam",
      "confidence": 1.0,
      "uuid": "ab7d90df-81b2-494b-ba93-0d963bbc64a8",
      "name": "Caprolactam",
      "url": "https://haz-map.com/Agents/339",
      "category": "agents"
    },
    {
      "type": "name_match",
      "text": "mica",
      "confidence": 1.0,
      "uuid": "433f26f1-c399-4596-b179-ce3843cfd465",
      "name": "Mica",
      "url": "https://haz-map.com/Agents/621",
      "category": "agents"
    },
    {
      "type": "name_match",
      "text": "ash",
      "confidence": 1.0,
      "uuid": "68b360f1-5ad0-4337-bea0-d7adca2961b5",
      "name": "Ash",
      "url": "https://haz-map.com/Agents/965",
      "category": "agents"
    },
    {
      "type": "name_match",
      "text": "oleum",
      "confidence": 1.0,
      "uuid": "12af84ee-bcf0-416d-9220-7c4c6dc330f1",
      "name": "Oleum",
      "url": "https://haz-map.com/Agents/2227",
      "category": "agents"
    },
    {
      "type": "name_match",
      "text": "2-methyl-1-butanol",
      "confidence": 1.0,
      "uuid": "94da598f-350a-4f35-b363-63a7f0d50d4f",
      "name": "2-Methyl-1-butanol",
      "url": "https://haz-map.com/Agents/3126",
      "category": "agents"
    },
    {
      "type": "name_match",
      "text": "ethyl butanol",
      "confidence": 1.0,
      "uuid": "30b32eef-5f75-40a4-836b-6cade02a3e65",
      "name": "Ethyl butanol",
      "url": "https://haz-map.com/Agents/5193",
      "category": "agents"
    }
  ],
  "all_links": [
    {
      "text": "Search PubMed",
      "url": "https://www.ncbi.nlm.nih.gov/pubmed?term=2-Methyl-1-butanol%20AND%20human%5Bmh%5D%20AND%20%28Occupational%20Diseases%20%5Bmh%5D%20OR%20Occupational%20Exposure%20%5Bmh%5D%29%20%20AND%20%28tox%5Bsb%5D%29&cmd=search"
    },
    {
      "text": "Encephalopathy, chronic solvent",
      "url": "https://haz-map.com/Diseases/325"
    },
    {
      "text": "Solvents, acute toxic effect",
      "url": "https://haz-map.com/Diseases/326"
    },
    {
      "text": "Metal Extraction and Refining",
      "url": "https://haz-map.com/Processes/261"
    },
    {
      "text": "Painting (Solvents)",
      "url": "https://haz-map.com/Processes/142"
    },
    {
      "text": "Petroleum Production and Refining",
      "url": "https://haz-map.com/Processes/75"
    }
  ]
}