{
  "metadata": {
    "scraped_from": "https://haz-map.com/Agents/15631",
    "entity_name": "Methyltriethoxysilane",
    "category": "agents",
    "uuid": "95193c63-59bc-42a3-ba4a-eebe9932ba59",
    "scraped_at": "2025-07-23T21:31:13.889412"
  },
  "parsed_at": "2025-07-24T00:57:09.075579",
  "title": "Methyltriethoxysilane",
  "sections": {
    "general": {
      "agent_name": {
        "original_name": "Agent Name",
        "value": "Methyltriethoxysilane",
        "links": [],
        "cross_references": [
          {
            "type": "name_match",
            "text": "triethoxysilane",
            "confidence": 1.0,
            "uuid": "cc2d9578-700b-45fc-a3d6-bd7b11d4c02b",
            "name": "Triethoxysilane",
            "url": "https://haz-map.com/Agents/7558",
            "category": "agents"
          },
          {
            "type": "name_match",
            "text": "methyltriethoxysilane",
            "confidence": 1.0,
            "uuid": "95193c63-59bc-42a3-ba4a-eebe9932ba59",
            "name": "Methyltriethoxysilane",
            "url": "https://haz-map.com/Agents/15631",
            "category": "agents"
          }
        ]
      },
      "cas_number": {
        "original_name": "CAS Number",
        "value": "2031-67-6",
        "links": [],
        "cross_references": []
      },
      "formula": {
        "original_name": "Formula",
        "value": "C7-H18-O3-Si",
        "links": [],
        "cross_references": []
      },
      "major_category": {
        "original_name": "Major Category",
        "value": "Metals",
        "links": [],
        "cross_references": []
      },
      "synonyms": {
        "original_name": "Synonyms",
        "value": "A 162; ICI-EP 5850; Methaneorthosiliconic acid, triethyl ester; Methyl triethoxysilane; Silane, methyltriethoxy-; Silane, triethoxymethyl-; Triethoxymethylsilane; Triethoxysilylmethane; Union carbide A-162; Union carbide a-162; Triethoxy(methyl)silane; [ChemIDplus] UN1993",
        "links": [],
        "cross_references": [
          {
            "type": "name_match",
            "text": "silicon",
            "confidence": 1.0,
            "uuid": "443f4405-7a1f-47db-bf43-809557f77483",
            "name": "Silicon",
            "url": "https://haz-map.com/Agents/623",
            "category": "agents"
          },
          {
            "type": "name_match",
            "text": "methane",
            "confidence": 1.0,
            "uuid": "5018bf73-24be-4353-8643-c351d5f52186",
            "name": "Methane",
            "url": "https://haz-map.com/Agents/1074",
            "category": "agents"
          },
          {
            "type": "name_match",
            "text": "ethane",
            "confidence": 1.0,
            "uuid": "5162cc8c-dfb9-4060-81ac-38a8cec7f9dd",
            "name": "Ethane",
            "url": "https://haz-map.com/Agents/1075",
            "category": "agents"
          },
          {
            "type": "name_match",
            "text": "triethoxysilane",
            "confidence": 1.0,
            "uuid": "cc2d9578-700b-45fc-a3d6-bd7b11d4c02b",
            "name": "Triethoxysilane",
            "url": "https://haz-map.com/Agents/7558",
            "category": "agents"
          },
          {
            "type": "name_match",
            "text": "methylsilane",
            "confidence": 1.0,
            "uuid": "477dc5db-fed0-4dc8-8ece-f7392790a3b0",
            "name": "Methylsilane",
            "url": "https://haz-map.com/Agents/8380",
            "category": "agents"
          }
        ]
      },
      "category": {
        "original_name": "Category",
        "value": "Metalloid Compounds (Silicon)",
        "links": [],
        "cross_references": [
          {
            "type": "name_match",
            "text": "silicon",
            "confidence": 1.0,
            "uuid": "443f4405-7a1f-47db-bf43-809557f77483",
            "name": "Silicon",
            "url": "https://haz-map.com/Agents/623",
            "category": "agents"
          }
        ]
      },
      "description": {
        "original_name": "Description",
        "value": "Clear colorless liquid; [Acros Organics MSDS]",
        "links": [],
        "cross_references": []
      },
      "sourcesuses": {
        "original_name": "Sources/Uses",
        "value": "Permitted for use as an inert ingredient in non-food pesticide products; [EPA]",
        "links": [],
        "cross_references": []
      },
      "comments": {
        "original_name": "Comments",
        "value": "A mild skin and eye irritant; Causes somnolence, ataxia, and other respiratory changes in dermal lethal-dose studies of rabbits; Causes tremor and dyspnea in inhalation lethal-concentration studies of rats; Causes somnolence and gastrointestinal changes in oral lethal-dose studies of rats; [RTECS] A skin and eye irritant; May cause CNS effects; [Acros Organics MSDS] See \"Trimethoxypropylsilane.\"",
        "links": [],
        "cross_references": [
          {
            "type": "name_match",
            "text": "tremor",
            "confidence": 1.0,
            "uuid": "5532ab3c-17c6-467e-a96a-d8807c63fb9e",
            "name": "tremor",
            "url": "https://haz-map.com/Findings/50",
            "category": "findings"
          },
          {
            "type": "name_match",
            "text": "trimethoxypropylsilane",
            "confidence": 1.0,
            "uuid": "7e793c65-96bc-4d3a-a45d-ca7c8d7428b3",
            "name": "Trimethoxypropylsilane",
            "url": "https://haz-map.com/Agents/18343",
            "category": "agents"
          }
        ]
      },
      "biomedical_references": {
        "original_name": "Biomedical References",
        "value": "Search PubMed",
        "links": [
          {
            "text": "Search PubMed",
            "url": "https://www.ncbi.nlm.nih.gov/pubmed?term=Methyltriethoxysilane%20AND%20human%5Bmh%5D%20AND%20%28Occupational%20Diseases%20%5Bmh%5D%20OR%20Occupational%20Exposure%20%5Bmh%5D%29%20%20AND%20%28tox%5Bsb%5D%29&cmd=search"
          }
        ],
        "cross_references": []
      }
    },
    "exposure_assessment": {
      "vapor_pressure": {
        "original_name": "Vapor Pressure",
        "value": "11 mm Hg",
        "links": [],
        "cross_references": []
      },
      "lethal_concentration": {
        "original_name": "Lethal Concentration",
        "value": "LCLo (rat) = 4,000 ppm/8hr",
        "links": [],
        "cross_references": []
      },
      "explanatory_notes": {
        "original_name": "Explanatory Notes",
        "value": "The Guide in the Emergency Response Guidebook is for \"Flammable liquid, n.o.s.\"",
        "links": [],
        "cross_references": []
      }
    },
    "diseases_processes_and_activities_linked_to_this_agent": {
      "other_information": {
        "original_name": "Other Information",
        "value": "No other related information on this agent was found.",
        "links": [],
        "cross_references": []
      }
    }
  },
  "cross_references": [
    {
      "type": "name_match",
      "text": "tremor",
      "confidence": 1.0,
      "uuid": "5532ab3c-17c6-467e-a96a-d8807c63fb9e",
      "name": "tremor",
      "url": "https://haz-map.com/Findings/50",
      "category": "findings"
    },
    {
      "type": "name_match",
      "text": "silicon",
      "confidence": 1.0,
      "uuid": "443f4405-7a1f-47db-bf43-809557f77483",
      "name": "Silicon",
      "url": "https://haz-map.com/Agents/623",
      "category": "agents"
    },
    {
      "type": "name_match",
      "text": "methane",
      "confidence": 1.0,
      "uuid": "5018bf73-24be-4353-8643-c351d5f52186",
      "name": "Methane",
      "url": "https://haz-map.com/Agents/1074",
      "category": "agents"
    },
    {
      "type": "name_match",
      "text": "ethane",
      "confidence": 1.0,
      "uuid": "5162cc8c-dfb9-4060-81ac-38a8cec7f9dd",
      "name": "Ethane",
      "url": "https://haz-map.com/Agents/1075",
      "category": "agents"
    },
    {
      "type": "name_match",
      "text": "triethoxysilane",
      "confidence": 1.0,
      "uuid": "cc2d9578-700b-45fc-a3d6-bd7b11d4c02b",
      "name": "Triethoxysilane",
      "url": "https://haz-map.com/Agents/7558",
      "category": "agents"
    },
    {
      "type": "name_match",
      "text": "methylsilane",
      "confidence": 1.0,
      "uuid": "477dc5db-fed0-4dc8-8ece-f7392790a3b0",
      "name": "Methylsilane",
      "url": "https://haz-map.com/Agents/8380",
      "category": "agents"
    },
    {
      "type": "name_match",
      "text": "methyltriethoxysilane",
      "confidence": 1.0,
      "uuid": "95193c63-59bc-42a3-ba4a-eebe9932ba59",
      "name": "Methyltriethoxysilane",
      "url": "https://haz-map.com/Agents/15631",
      "category": "agents"
    },
    {
      "type": "name_match",
      "text": "trimethoxypropylsilane",
      "confidence": 1.0,
      "uuid": "7e793c65-96bc-4d3a-a45d-ca7c8d7428b3",
      "name": "Trimethoxypropylsilane",
      "url": "https://haz-map.com/Agents/18343",
      "category": "agents"
    }
  ],
  "all_links": [
    {
      "text": "Search PubMed",
      "url": "https://www.ncbi.nlm.nih.gov/pubmed?term=Methyltriethoxysilane%20AND%20human%5Bmh%5D%20AND%20%28Occupational%20Diseases%20%5Bmh%5D%20OR%20Occupational%20Exposure%20%5Bmh%5D%29%20%20AND%20%28tox%5Bsb%5D%29&cmd=search"
    }
  ]
}