{
  "metadata": {
    "scraped_from": "https://haz-map.com/Agents/8342",
    "entity_name": "Diethyl fumarate",
    "category": "agents",
    "uuid": "9593c14c-4c65-4e40-97d7-bc14b1b086d9",
    "scraped_at": "2025-07-23T20:25:36.051069"
  },
  "parsed_at": "2025-07-24T01:01:15.233012",
  "title": "Diethyl fumarate",
  "sections": {
    "general": {
      "agent_name": {
        "original_name": "Agent Name",
        "value": "Diethyl fumarate",
        "links": [],
        "cross_references": [
          {
            "type": "name_match",
            "text": "diethyl fumarate",
            "confidence": 1.0,
            "uuid": "9593c14c-4c65-4e40-97d7-bc14b1b086d9",
            "name": "Diethyl fumarate",
            "url": "https://haz-map.com/Agents/8342",
            "category": "agents"
          }
        ]
      },
      "cas_number": {
        "original_name": "CAS Number",
        "value": "623-91-6",
        "links": [],
        "cross_references": []
      },
      "formula": {
        "original_name": "Formula",
        "value": "C8-H12-O4",
        "links": [],
        "cross_references": []
      },
      "major_category": {
        "original_name": "Major Category",
        "value": "Other Classes",
        "links": [],
        "cross_references": []
      },
      "synonyms": {
        "original_name": "Synonyms",
        "value": "2-Butenedioic acid, diethyl ester, (E)-; Anti-Psoriaticum; Diethylester kyseliny fumarove [Czech]; Fumaric acid, diethyl ester; trans-2-Butenedioic acid diethyl ester; [ChemIDplus]",
        "links": [],
        "cross_references": [
          {
            "type": "name_match",
            "text": "fumaric acid",
            "confidence": 1.0,
            "uuid": "b635d88c-9570-4e93-8899-d7a2375b1daa",
            "name": "Fumaric acid",
            "url": "https://haz-map.com/Agents/8358",
            "category": "agents"
          }
        ]
      },
      "category": {
        "original_name": "Category",
        "value": "Esters, Other",
        "links": [],
        "cross_references": []
      },
      "description": {
        "original_name": "Description",
        "value": "Colorless liquid; [CHEMINFO]",
        "links": [],
        "cross_references": []
      },
      "sourcesuses": {
        "original_name": "Sources/Uses",
        "value": "Used as a co-monomer to make polymers; [HSDB]",
        "links": [],
        "cross_references": []
      },
      "comments": {
        "original_name": "Comments",
        "value": "A mild eye irritant based on animal studies; [CHEMINFO] An irritant; [MSDSonline]",
        "links": [],
        "cross_references": []
      },
      "biomedical_references": {
        "original_name": "Biomedical References",
        "value": "Search PubMed",
        "links": [
          {
            "text": "Search PubMed",
            "url": "https://www.ncbi.nlm.nih.gov/pubmed?term=Diethyl+fumarate%20AND%20human%5Bmh%5D%20AND%20%28Occupational%20Diseases%20%5Bmh%5D%20OR%20Occupational%20Exposure%20%5Bmh%5D%29%20%20AND%20%28tox%5Bsb%5D%29&cmd=search"
          }
        ],
        "cross_references": []
      }
    },
    "exposure_assessment": {
      "vapor_pressure": {
        "original_name": "Vapor Pressure",
        "value": "0.178 mm Hg",
        "links": [],
        "cross_references": []
      },
      "nfpa": {
        "original_name": "NFPA",
        "value": "high ambient temp required",
        "links": [],
        "cross_references": []
      }
    },
    "diseases_processes_and_activities_linked_to_this_agent": {
      "other_information": {
        "original_name": "Other Information",
        "value": "No other related information on this agent was found.",
        "links": [],
        "cross_references": []
      }
    }
  },
  "cross_references": [
    {
      "type": "name_match",
      "text": "diethyl fumarate",
      "confidence": 1.0,
      "uuid": "9593c14c-4c65-4e40-97d7-bc14b1b086d9",
      "name": "Diethyl fumarate",
      "url": "https://haz-map.com/Agents/8342",
      "category": "agents"
    },
    {
      "type": "name_match",
      "text": "fumaric acid",
      "confidence": 1.0,
      "uuid": "b635d88c-9570-4e93-8899-d7a2375b1daa",
      "name": "Fumaric acid",
      "url": "https://haz-map.com/Agents/8358",
      "category": "agents"
    }
  ],
  "all_links": [
    {
      "text": "Search PubMed",
      "url": "https://www.ncbi.nlm.nih.gov/pubmed?term=Diethyl+fumarate%20AND%20human%5Bmh%5D%20AND%20%28Occupational%20Diseases%20%5Bmh%5D%20OR%20Occupational%20Exposure%20%5Bmh%5D%29%20%20AND%20%28tox%5Bsb%5D%29&cmd=search"
    }
  ]
}