{
  "metadata": {
    "scraped_from": "https://haz-map.com/Agents/19362",
    "entity_name": "1,1,1,2,2,3,3,4,4,5,5,6,6-Tridecafluoro-8-iodooctane",
    "category": "agents",
    "uuid": "95aa1371-0c25-4b67-af5d-5755b87333c7",
    "scraped_at": "2025-07-23T22:04:35.141478"
  },
  "parsed_at": "2025-07-24T01:02:23.974967",
  "title": "1,1,1,2,2,3,3,4,4,5,5,6,6-Tridecafluoro-8-iodooctane",
  "sections": {
    "general": {
      "agent_name": {
        "original_name": "Agent Name",
        "value": "1,1,1,2,2,3,3,4,4,5,5,6,6-Tridecafluoro-8-iodooctane",
        "links": [],
        "cross_references": [
          {
            "type": "name_match",
            "text": "octane",
            "confidence": 1.0,
            "uuid": "feb2932c-69c5-4142-b6b6-bde017998940",
            "name": "Octane",
            "url": "https://haz-map.com/Agents/106",
            "category": "agents"
          },
          {
            "type": "name_match",
            "text": "1,1,1,2,2,3,3,4,4,5,5,6,6-tridecafluoro-8-iodooctane",
            "confidence": 1.0,
            "uuid": "95aa1371-0c25-4b67-af5d-5755b87333c7",
            "name": "1,1,1,2,2,3,3,4,4,5,5,6,6-Tridecafluoro-8-iodooctane",
            "url": "https://haz-map.com/Agents/19362",
            "category": "agents"
          }
        ]
      },
      "cas_number": {
        "original_name": "CAS Number",
        "value": "2043-57-4",
        "links": [],
        "cross_references": []
      },
      "formula": {
        "original_name": "Formula",
        "value": "C8-H4-F13-I",
        "links": [],
        "cross_references": []
      },
      "major_category": {
        "original_name": "Major Category",
        "value": "Other Classes",
        "links": [],
        "cross_references": []
      },
      "synonyms": {
        "original_name": "Synonyms",
        "value": "1,1,2,2-Tetrahydroperfluorooctyl iodide; 1,1,2,2-Tetrahydroperfluorooctyliodide; Octane, 1,1,1,2,2,3,3,4,4,5,5,6,6-tridecafluoro-8-iodo-; [ChemIDplus] 1H,1H,2H,2H-Perfluoro-1-iodooctane; [Alfa Aesar MSDS] 1H,1H,2H,2H-Perfluorooctyl iodide; 3,3,4,4,5,5,6,6,7,7,8,8,8-Tridecafluorooctyl iodide; 8-lodo-1,1,1,2,2,3,3,4,4,5,5,6,6-tridecafluorooctane; [Sigma-Aldrich MSDS]",
        "links": [],
        "cross_references": [
          {
            "type": "name_match",
            "text": "octane",
            "confidence": 1.0,
            "uuid": "feb2932c-69c5-4142-b6b6-bde017998940",
            "name": "Octane",
            "url": "https://haz-map.com/Agents/106",
            "category": "agents"
          },
          {
            "type": "name_match",
            "text": "1-iodooctane",
            "confidence": 1.0,
            "uuid": "80e590f2-f1b8-4a3e-8d1e-c0b88b289f61",
            "name": "1-Iodooctane",
            "url": "https://haz-map.com/Agents/9621",
            "category": "agents"
          },
          {
            "type": "name_match",
            "text": "perfluorooctyl iodide",
            "confidence": 1.0,
            "uuid": "f6d3af10-2ecb-4eea-801f-899d8095d52a",
            "name": "Perfluorooctyl iodide",
            "url": "https://haz-map.com/Agents/16467",
            "category": "agents"
          }
        ]
      },
      "category": {
        "original_name": "Category",
        "value": "Halogenated Aliphatics, Saturated",
        "links": [],
        "cross_references": []
      },
      "description": {
        "original_name": "Description",
        "value": "Colorless liquid; Melting point approximately 20 deg C; [Alfa Aesar MSDS] Solidified mass or fragments; [Sigma-Aldrich MSDS]",
        "links": [],
        "cross_references": []
      },
      "sourcesuses": {
        "original_name": "Sources/Uses",
        "value": "Used as an intermediate consumed in synthesis; [ExPub: ECHA REACH Registrations]",
        "links": [],
        "cross_references": []
      },
      "comments": {
        "original_name": "Comments",
        "value": "A skin and strong eye irritant; [Alfa Aesar MSDS] See \"Perfluorohexane.\"",
        "links": [],
        "cross_references": [
          {
            "type": "name_match",
            "text": "perfluorohexane",
            "confidence": 1.0,
            "uuid": "43e78352-1eaa-4f36-b658-26f963325793",
            "name": "Perfluorohexane",
            "url": "https://haz-map.com/Agents/8550",
            "category": "agents"
          }
        ]
      },
      "biomedical_references": {
        "original_name": "Biomedical References",
        "value": "Search PubMed",
        "links": [
          {
            "text": "Search PubMed",
            "url": "https://www.ncbi.nlm.nih.gov/pubmed?term=1%2c1%2c1%2c2%2c2%2c3%2c3%2c4%2c4%2c5%2c5%2c6%2c6-Tridecafluoro-8-iodooctane%20AND%20human%5Bmh%5D%20AND%20%28Occupational%20Diseases%20%5Bmh%5D%20OR%20Occupational%20Exposure%20%5Bmh%5D%29%20%20AND%20%28tox%5Bsb%5D%29&cmd=search"
          }
        ],
        "cross_references": []
      }
    },
    "exposure_assessment": {
      "vapor_pressure": {
        "original_name": "Vapor Pressure",
        "value": "0.8 mm Hg",
        "links": [],
        "cross_references": []
      }
    },
    "diseases_processes_and_activities_linked_to_this_agent": {
      "other_information": {
        "original_name": "Other Information",
        "value": "No other related information on this agent was found.",
        "links": [],
        "cross_references": []
      }
    }
  },
  "cross_references": [
    {
      "type": "name_match",
      "text": "octane",
      "confidence": 1.0,
      "uuid": "feb2932c-69c5-4142-b6b6-bde017998940",
      "name": "Octane",
      "url": "https://haz-map.com/Agents/106",
      "category": "agents"
    },
    {
      "type": "name_match",
      "text": "perfluorohexane",
      "confidence": 1.0,
      "uuid": "43e78352-1eaa-4f36-b658-26f963325793",
      "name": "Perfluorohexane",
      "url": "https://haz-map.com/Agents/8550",
      "category": "agents"
    },
    {
      "type": "name_match",
      "text": "1-iodooctane",
      "confidence": 1.0,
      "uuid": "80e590f2-f1b8-4a3e-8d1e-c0b88b289f61",
      "name": "1-Iodooctane",
      "url": "https://haz-map.com/Agents/9621",
      "category": "agents"
    },
    {
      "type": "name_match",
      "text": "perfluorooctyl iodide",
      "confidence": 1.0,
      "uuid": "f6d3af10-2ecb-4eea-801f-899d8095d52a",
      "name": "Perfluorooctyl iodide",
      "url": "https://haz-map.com/Agents/16467",
      "category": "agents"
    },
    {
      "type": "name_match",
      "text": "1,1,1,2,2,3,3,4,4,5,5,6,6-tridecafluoro-8-iodooctane",
      "confidence": 1.0,
      "uuid": "95aa1371-0c25-4b67-af5d-5755b87333c7",
      "name": "1,1,1,2,2,3,3,4,4,5,5,6,6-Tridecafluoro-8-iodooctane",
      "url": "https://haz-map.com/Agents/19362",
      "category": "agents"
    }
  ],
  "all_links": [
    {
      "text": "Search PubMed",
      "url": "https://www.ncbi.nlm.nih.gov/pubmed?term=1%2c1%2c1%2c2%2c2%2c3%2c3%2c4%2c4%2c5%2c5%2c6%2c6-Tridecafluoro-8-iodooctane%20AND%20human%5Bmh%5D%20AND%20%28Occupational%20Diseases%20%5Bmh%5D%20OR%20Occupational%20Exposure%20%5Bmh%5D%29%20%20AND%20%28tox%5Bsb%5D%29&cmd=search"
    }
  ]
}