{
  "metadata": {
    "scraped_from": "https://haz-map.com/Agents/20029",
    "entity_name": "4-Cyano-N,N-dimethylaniline",
    "category": "agents",
    "uuid": "95d5ae40-576f-4831-bea6-0a8c555d7f86",
    "scraped_at": "2025-07-23T22:17:36.996871"
  },
  "parsed_at": "2025-07-24T01:07:40.062703",
  "title": "4-Cyano-N,N-dimethylaniline",
  "sections": {
    "general": {
      "agent_name": {
        "original_name": "Agent Name",
        "value": "4-Cyano-N,N-dimethylaniline",
        "links": [],
        "cross_references": [
          {
            "type": "name_match",
            "text": "aniline",
            "confidence": 1.0,
            "uuid": "e4932692-8d9c-4a98-8c5c-81e55b12aedf",
            "name": "Aniline",
            "url": "https://haz-map.com/Agents/296",
            "category": "agents"
          },
          {
            "type": "name_match",
            "text": "dimethylaniline",
            "confidence": 1.0,
            "uuid": "1a3c2730-fda8-46bc-ab06-84857c4a6084",
            "name": "Dimethylaniline",
            "url": "https://haz-map.com/Agents/461",
            "category": "agents"
          },
          {
            "type": "name_match",
            "text": "4-cyano-n,n-dimethylaniline",
            "confidence": 1.0,
            "uuid": "95d5ae40-576f-4831-bea6-0a8c555d7f86",
            "name": "4-Cyano-N,N-dimethylaniline",
            "url": "https://haz-map.com/Agents/20029",
            "category": "agents"
          }
        ]
      },
      "cas_number": {
        "original_name": "CAS Number",
        "value": "1197-19-9",
        "links": [],
        "cross_references": []
      },
      "formula": {
        "original_name": "Formula",
        "value": "C9-H10-N2",
        "links": [],
        "cross_references": []
      },
      "major_category": {
        "original_name": "Major Category",
        "value": "Nitrogen Compounds",
        "links": [],
        "cross_references": [
          {
            "type": "name_match",
            "text": "nitrogen",
            "confidence": 1.0,
            "uuid": "db5e90a9-06d2-45b9-8b81-f345a89b0bc0",
            "name": "Nitrogen",
            "url": "https://haz-map.com/Agents/1072",
            "category": "agents"
          }
        ]
      },
      "synonyms": {
        "original_name": "Synonyms",
        "value": "4-(Dimethylamino)benzenecarbonitrile; 4-(Dimethylamino)benzonitrile; N,N-Dimethyl-4-cyanoaniline; N,N-Dimethyl-p-cyanoaniline; p-(Dimethylamino)benzoic acid nitrile; p-(N,N-Dimethylamino)benzonitrile; p-Cyano-N,N-dimethylaniline; p-Dimethylaminobenzonitrile; Para(dimethylamino)benzonitrile; Benzonitrile, 4-(dimethylamino)-; Benzonitrile, p-(dimethylamino)- (8CI); [ChemIDplus] UN3439",
        "links": [],
        "cross_references": [
          {
            "type": "name_match",
            "text": "benzene",
            "confidence": 1.0,
            "uuid": "b05124de-5f34-4c14-8f04-ccb20c3780d9",
            "name": "Benzene",
            "url": "https://haz-map.com/Agents/5",
            "category": "agents"
          },
          {
            "type": "name_match",
            "text": "aniline",
            "confidence": 1.0,
            "uuid": "e4932692-8d9c-4a98-8c5c-81e55b12aedf",
            "name": "Aniline",
            "url": "https://haz-map.com/Agents/296",
            "category": "agents"
          },
          {
            "type": "name_match",
            "text": "dimethylaniline",
            "confidence": 1.0,
            "uuid": "1a3c2730-fda8-46bc-ab06-84857c4a6084",
            "name": "Dimethylaniline",
            "url": "https://haz-map.com/Agents/461",
            "category": "agents"
          },
          {
            "type": "name_match",
            "text": "benzonitrile",
            "confidence": 1.0,
            "uuid": "aa9c2a5f-3153-4fc9-85dc-410619ef96a4",
            "name": "Benzonitrile",
            "url": "https://haz-map.com/Agents/1378",
            "category": "agents"
          },
          {
            "type": "name_match",
            "text": "benzoic acid",
            "confidence": 1.0,
            "uuid": "d2c5d3be-d826-4f55-bc32-7b16821aef40",
            "name": "Benzoic acid",
            "url": "https://haz-map.com/Agents/1883",
            "category": "agents"
          },
          {
            "type": "name_match",
            "text": "carbon",
            "confidence": 1.0,
            "uuid": "b53f8815-ee80-40ef-b4aa-3b000e17dab5",
            "name": "Carbon",
            "url": "https://haz-map.com/Agents/1891",
            "category": "agents"
          }
        ]
      },
      "category": {
        "original_name": "Category",
        "value": "Nitriles",
        "links": [],
        "cross_references": [
          {
            "type": "name_match",
            "text": "nitriles",
            "confidence": 1.0,
            "uuid": "41430895-c07a-4421-888b-3d7122a4cd55",
            "name": "NITRILES",
            "url": "https://haz-map.com/Agents/715",
            "category": "agents"
          }
        ]
      },
      "description": {
        "original_name": "Description",
        "value": "Yellow crystalline powder; [Alfa Aesar MSDS]",
        "links": [],
        "cross_references": [
          {
            "type": "fuzzy_match",
            "text": "crystalline",
            "matched_name": "Silica, crystalline",
            "confidence": 0.7061403508771931,
            "uuid": "f920e8a2-46df-41b7-af8d-0368a777251e",
            "category": "agents",
            "url": "https://haz-map.com/Agents/427"
          }
        ]
      },
      "comments": {
        "original_name": "Comments",
        "value": "A skin and strong eye irritant; Harmful by ingestion and skin absorption; Toxic by inhalation; [Alfa Aesar MSDS] See \"2-Amino-5-nitrobenzonitrile\" and \"4-Aminobenzonitrile.\"",
        "links": [],
        "cross_references": [
          {
            "type": "name_match",
            "text": "benzonitrile",
            "confidence": 1.0,
            "uuid": "aa9c2a5f-3153-4fc9-85dc-410619ef96a4",
            "name": "Benzonitrile",
            "url": "https://haz-map.com/Agents/1378",
            "category": "agents"
          },
          {
            "type": "name_match",
            "text": "4-aminobenzonitrile",
            "confidence": 1.0,
            "uuid": "67665f36-cf1c-4a32-915f-7817217741cb",
            "name": "4-Aminobenzonitrile",
            "url": "https://haz-map.com/Agents/8136",
            "category": "agents"
          },
          {
            "type": "name_match",
            "text": "2-amino-5-nitrobenzonitrile",
            "confidence": 1.0,
            "uuid": "b17e7bdf-e3bf-4930-b909-8200aa55847f",
            "name": "2-Amino-5-nitrobenzonitrile",
            "url": "https://haz-map.com/Agents/19815",
            "category": "agents"
          }
        ]
      },
      "biomedical_references": {
        "original_name": "Biomedical References",
        "value": "Search PubMed",
        "links": [
          {
            "text": "Search PubMed",
            "url": "https://www.ncbi.nlm.nih.gov/pubmed?term=4-Cyano-N%2cN-dimethylaniline%20AND%20human%5Bmh%5D%20AND%20%28Occupational%20Diseases%20%5Bmh%5D%20OR%20Occupational%20Exposure%20%5Bmh%5D%29%20%20AND%20%28tox%5Bsb%5D%29&cmd=search"
          }
        ],
        "cross_references": []
      }
    },
    "exposure_assessment": {
      "vapor_pressure": {
        "original_name": "Vapor Pressure",
        "value": "0.021 mm Hg",
        "links": [],
        "cross_references": []
      },
      "explanatory_notes": {
        "original_name": "Explanatory Notes",
        "value": "The Guide in the Emergency Response Guidebook is for \"Nitriles, toxic, solid, n.o.s.\"",
        "links": [],
        "cross_references": [
          {
            "type": "name_match",
            "text": "nitriles",
            "confidence": 1.0,
            "uuid": "41430895-c07a-4421-888b-3d7122a4cd55",
            "name": "NITRILES",
            "url": "https://haz-map.com/Agents/715",
            "category": "agents"
          }
        ]
      }
    },
    "diseases_processes_and_activities_linked_to_this_agent": {
      "other_information": {
        "original_name": "Other Information",
        "value": "No other related information on this agent was found.",
        "links": [],
        "cross_references": []
      }
    }
  },
  "cross_references": [
    {
      "type": "name_match",
      "text": "benzene",
      "confidence": 1.0,
      "uuid": "b05124de-5f34-4c14-8f04-ccb20c3780d9",
      "name": "Benzene",
      "url": "https://haz-map.com/Agents/5",
      "category": "agents"
    },
    {
      "type": "name_match",
      "text": "aniline",
      "confidence": 1.0,
      "uuid": "e4932692-8d9c-4a98-8c5c-81e55b12aedf",
      "name": "Aniline",
      "url": "https://haz-map.com/Agents/296",
      "category": "agents"
    },
    {
      "type": "name_match",
      "text": "dimethylaniline",
      "confidence": 1.0,
      "uuid": "1a3c2730-fda8-46bc-ab06-84857c4a6084",
      "name": "Dimethylaniline",
      "url": "https://haz-map.com/Agents/461",
      "category": "agents"
    },
    {
      "type": "name_match",
      "text": "nitriles",
      "confidence": 1.0,
      "uuid": "41430895-c07a-4421-888b-3d7122a4cd55",
      "name": "NITRILES",
      "url": "https://haz-map.com/Agents/715",
      "category": "agents"
    },
    {
      "type": "name_match",
      "text": "nitrogen",
      "confidence": 1.0,
      "uuid": "db5e90a9-06d2-45b9-8b81-f345a89b0bc0",
      "name": "Nitrogen",
      "url": "https://haz-map.com/Agents/1072",
      "category": "agents"
    },
    {
      "type": "name_match",
      "text": "benzonitrile",
      "confidence": 1.0,
      "uuid": "aa9c2a5f-3153-4fc9-85dc-410619ef96a4",
      "name": "Benzonitrile",
      "url": "https://haz-map.com/Agents/1378",
      "category": "agents"
    },
    {
      "type": "name_match",
      "text": "benzoic acid",
      "confidence": 1.0,
      "uuid": "d2c5d3be-d826-4f55-bc32-7b16821aef40",
      "name": "Benzoic acid",
      "url": "https://haz-map.com/Agents/1883",
      "category": "agents"
    },
    {
      "type": "name_match",
      "text": "carbon",
      "confidence": 1.0,
      "uuid": "b53f8815-ee80-40ef-b4aa-3b000e17dab5",
      "name": "Carbon",
      "url": "https://haz-map.com/Agents/1891",
      "category": "agents"
    },
    {
      "type": "name_match",
      "text": "4-aminobenzonitrile",
      "confidence": 1.0,
      "uuid": "67665f36-cf1c-4a32-915f-7817217741cb",
      "name": "4-Aminobenzonitrile",
      "url": "https://haz-map.com/Agents/8136",
      "category": "agents"
    },
    {
      "type": "name_match",
      "text": "2-amino-5-nitrobenzonitrile",
      "confidence": 1.0,
      "uuid": "b17e7bdf-e3bf-4930-b909-8200aa55847f",
      "name": "2-Amino-5-nitrobenzonitrile",
      "url": "https://haz-map.com/Agents/19815",
      "category": "agents"
    },
    {
      "type": "name_match",
      "text": "4-cyano-n,n-dimethylaniline",
      "confidence": 1.0,
      "uuid": "95d5ae40-576f-4831-bea6-0a8c555d7f86",
      "name": "4-Cyano-N,N-dimethylaniline",
      "url": "https://haz-map.com/Agents/20029",
      "category": "agents"
    },
    {
      "type": "fuzzy_match",
      "text": "crystalline",
      "matched_name": "Silica, crystalline",
      "confidence": 0.7061403508771931,
      "uuid": "f920e8a2-46df-41b7-af8d-0368a777251e",
      "category": "agents",
      "url": "https://haz-map.com/Agents/427"
    }
  ],
  "all_links": [
    {
      "text": "Search PubMed",
      "url": "https://www.ncbi.nlm.nih.gov/pubmed?term=4-Cyano-N%2cN-dimethylaniline%20AND%20human%5Bmh%5D%20AND%20%28Occupational%20Diseases%20%5Bmh%5D%20OR%20Occupational%20Exposure%20%5Bmh%5D%29%20%20AND%20%28tox%5Bsb%5D%29&cmd=search"
    }
  ]
}