{
  "metadata": {
    "scraped_from": "https://haz-map.com/Agents/4525",
    "entity_name": "Coumafuryl",
    "category": "agents",
    "uuid": "95d7dd8d-5a3e-4d6f-9291-ec23e815ed58",
    "scraped_at": "2025-07-23T19:41:46.105832"
  },
  "parsed_at": "2025-07-24T00:53:32.582446",
  "title": "Coumafuryl",
  "sections": {
    "general": {
      "agent_name": {
        "original_name": "Agent Name",
        "value": "Coumafuryl",
        "links": [],
        "cross_references": [
          {
            "type": "name_match",
            "text": "coumafuryl",
            "confidence": 1.0,
            "uuid": "95d7dd8d-5a3e-4d6f-9291-ec23e815ed58",
            "name": "Coumafuryl",
            "url": "https://haz-map.com/Agents/4525",
            "category": "agents"
          }
        ]
      },
      "cas_number": {
        "original_name": "CAS Number",
        "value": "117-52-2",
        "links": [],
        "cross_references": []
      },
      "formula": {
        "original_name": "Formula",
        "value": "C17-H14-O5",
        "links": [],
        "cross_references": []
      },
      "major_category": {
        "original_name": "Major Category",
        "value": "Pesticides",
        "links": [],
        "cross_references": []
      },
      "synonyms": {
        "original_name": "Synonyms",
        "value": "3-(1-Furyl-2-acetylethyl)-4-hydroxycoumarin; 3-(alpha-Acetonylfurfuryl)-4-hydroxycoumarin; 3-(alpha-Furyl-beta-acetylaethyl)-4-hydroxycumarin [German]; 4-(2-Furyl)-4-(4-hydroxy-3-coumarinyl)-2-butanone; 4-(2-Furyl)-4-(4-hydroxy-3-kumarinyl)-2-butanon [Czech]; Coumafuryl [ISO]; Cumafuryl [German]; Fumarin; Kill-Ko Rat; Krumkil; Kumatox; Lurat; Mouse blues; Ratafin; Tomarin; [ChemIDplus] UN3027",
        "links": [],
        "cross_references": [
          {
            "type": "name_match",
            "text": "2-butanone",
            "confidence": 1.0,
            "uuid": "7755b6c7-e823-404c-b6cc-3fe49558cf7d",
            "name": "2-Butanone",
            "url": "https://haz-map.com/Agents/320",
            "category": "agents"
          },
          {
            "type": "name_match",
            "text": "coumafuryl",
            "confidence": 1.0,
            "uuid": "95d7dd8d-5a3e-4d6f-9291-ec23e815ed58",
            "name": "Coumafuryl",
            "url": "https://haz-map.com/Agents/4525",
            "category": "agents"
          },
          {
            "type": "name_match",
            "text": "coumarin",
            "confidence": 1.0,
            "uuid": "275bf055-292c-48e9-8519-bb571bbad6e1",
            "name": "Coumarin",
            "url": "https://haz-map.com/Agents/7832",
            "category": "agents"
          },
          {
            "type": "name_match",
            "text": "4-hydroxycoumarin",
            "confidence": 1.0,
            "uuid": "8a810483-0137-4ab6-b2d3-9a7727ef3b6c",
            "name": "4-Hydroxycoumarin",
            "url": "https://haz-map.com/Agents/11634",
            "category": "agents"
          }
        ]
      },
      "category": {
        "original_name": "Category",
        "value": "Rodenticides, Anticoagulant",
        "links": [],
        "cross_references": []
      },
      "description": {
        "original_name": "Description",
        "value": "White solid; [HSDB]",
        "links": [],
        "cross_references": []
      },
      "sourcesuses": {
        "original_name": "Sources/Uses",
        "value": "Used as anticoagulant rodenticide; [HSDB]",
        "links": [],
        "cross_references": []
      },
      "comments": {
        "original_name": "Comments",
        "value": "A vitamin K antagonist--causes clotting factor disruption and bleeding; [HSDB] First generation anticoagulant rodenticide; Discontinued by Rhone-Poulenc; [INCHEM] See \"Warfarin.\"",
        "links": [],
        "cross_references": [
          {
            "type": "name_match",
            "text": "warfarin",
            "confidence": 1.0,
            "uuid": "53672f20-d5e2-4d2b-a15a-3c933026cc64",
            "name": "Warfarin",
            "url": "https://haz-map.com/Agents/673",
            "category": "agents"
          }
        ]
      },
      "restricted": {
        "original_name": "Restricted",
        "value": "Cancelled--no longer registered as a pesticide for use in the US; [HSDB]",
        "links": [],
        "cross_references": []
      },
      "biomedical_references": {
        "original_name": "Biomedical References",
        "value": "Search PubMed",
        "links": [
          {
            "text": "Search PubMed",
            "url": "https://www.ncbi.nlm.nih.gov/pubmed?term=Coumafuryl%20AND%20human%5Bmh%5D%20AND%20%28Occupational%20Diseases%20%5Bmh%5D%20OR%20Occupational%20Exposure%20%5Bmh%5D%29%20%20AND%20%28tox%5Bsb%5D%29&cmd=search"
          }
        ],
        "cross_references": []
      }
    },
    "exposure_assessment": {
      "vapor_pressure": {
        "original_name": "Vapor Pressure",
        "value": "2.17E-11 mm Hg",
        "links": [],
        "cross_references": []
      },
      "explanatory_notes": {
        "original_name": "Explanatory Notes",
        "value": "The Guide in the Emergency Response Guidebook is for \"Coumarin derivative pesticide, solid, toxic.\"",
        "links": [],
        "cross_references": [
          {
            "type": "name_match",
            "text": "coumarin",
            "confidence": 1.0,
            "uuid": "275bf055-292c-48e9-8519-bb571bbad6e1",
            "name": "Coumarin",
            "url": "https://haz-map.com/Agents/7832",
            "category": "agents"
          }
        ]
      }
    },
    "diseases_processes_and_activities_linked_to_this_agent": {
      "processes": {
        "original_name": "Processes",
        "value": "Industrial Processes with risk of exposure: Farming (Pesticides)",
        "links": [
          {
            "text": "Farming (Pesticides)",
            "url": "https://haz-map.com/Processes/218"
          }
        ],
        "cross_references": [
          {
            "type": "url_match",
            "text": "Farming (Pesticides)",
            "url": "https://haz-map.com/Processes/218",
            "confidence": 1.0,
            "uuid": "cf1e5815-c9bb-4917-82a5-391848170b7e",
            "name": "Farming (Pesticides)",
            "category": "processes"
          }
        ]
      }
    }
  },
  "cross_references": [
    {
      "type": "url_match",
      "text": "Farming (Pesticides)",
      "url": "https://haz-map.com/Processes/218",
      "confidence": 1.0,
      "uuid": "cf1e5815-c9bb-4917-82a5-391848170b7e",
      "name": "Farming (Pesticides)",
      "category": "processes"
    },
    {
      "type": "name_match",
      "text": "2-butanone",
      "confidence": 1.0,
      "uuid": "7755b6c7-e823-404c-b6cc-3fe49558cf7d",
      "name": "2-Butanone",
      "url": "https://haz-map.com/Agents/320",
      "category": "agents"
    },
    {
      "type": "name_match",
      "text": "warfarin",
      "confidence": 1.0,
      "uuid": "53672f20-d5e2-4d2b-a15a-3c933026cc64",
      "name": "Warfarin",
      "url": "https://haz-map.com/Agents/673",
      "category": "agents"
    },
    {
      "type": "name_match",
      "text": "coumafuryl",
      "confidence": 1.0,
      "uuid": "95d7dd8d-5a3e-4d6f-9291-ec23e815ed58",
      "name": "Coumafuryl",
      "url": "https://haz-map.com/Agents/4525",
      "category": "agents"
    },
    {
      "type": "name_match",
      "text": "coumarin",
      "confidence": 1.0,
      "uuid": "275bf055-292c-48e9-8519-bb571bbad6e1",
      "name": "Coumarin",
      "url": "https://haz-map.com/Agents/7832",
      "category": "agents"
    },
    {
      "type": "name_match",
      "text": "4-hydroxycoumarin",
      "confidence": 1.0,
      "uuid": "8a810483-0137-4ab6-b2d3-9a7727ef3b6c",
      "name": "4-Hydroxycoumarin",
      "url": "https://haz-map.com/Agents/11634",
      "category": "agents"
    }
  ],
  "all_links": [
    {
      "text": "Search PubMed",
      "url": "https://www.ncbi.nlm.nih.gov/pubmed?term=Coumafuryl%20AND%20human%5Bmh%5D%20AND%20%28Occupational%20Diseases%20%5Bmh%5D%20OR%20Occupational%20Exposure%20%5Bmh%5D%29%20%20AND%20%28tox%5Bsb%5D%29&cmd=search"
    },
    {
      "text": "Farming (Pesticides)",
      "url": "https://haz-map.com/Processes/218"
    }
  ]
}