{
  "metadata": {
    "scraped_from": "https://haz-map.com/Agents/20162",
    "entity_name": "Allyl acetoacetate",
    "category": "agents",
    "uuid": "961eca02-41b5-43e5-8de6-50de96b4f115",
    "scraped_at": "2025-07-23T22:20:12.123422"
  },
  "parsed_at": "2025-07-24T01:09:34.162116",
  "title": "Allyl acetoacetate",
  "sections": {
    "general": {
      "agent_name": {
        "original_name": "Agent Name",
        "value": "Allyl acetoacetate",
        "links": [],
        "cross_references": [
          {
            "type": "name_match",
            "text": "allyl acetoacetate",
            "confidence": 1.0,
            "uuid": "961eca02-41b5-43e5-8de6-50de96b4f115",
            "name": "Allyl acetoacetate",
            "url": "https://haz-map.com/Agents/20162",
            "category": "agents"
          }
        ]
      },
      "cas_number": {
        "original_name": "CAS Number",
        "value": "1118-84-9",
        "links": [],
        "cross_references": []
      },
      "formula": {
        "original_name": "Formula",
        "value": "C7-H10-O3",
        "links": [],
        "cross_references": []
      },
      "major_category": {
        "original_name": "Major Category",
        "value": "Other Classes",
        "links": [],
        "cross_references": []
      },
      "synonyms": {
        "original_name": "Synonyms",
        "value": "Butanoic acid, 3-oxo-, 2-propenyl ester; [ChemIDplus] Allyl 3-oxobutanoate; [ECHA REACH Registrations]",
        "links": [],
        "cross_references": []
      },
      "category": {
        "original_name": "Category",
        "value": "Other Organic Compounds",
        "links": [],
        "cross_references": [
          {
            "type": "fuzzy_match",
            "text": "organic compounds",
            "matched_name": "Tin, organic compounds",
            "confidence": 0.8196969696969697,
            "uuid": "e027d413-8869-4308-9eb2-27d768b011ea",
            "category": "agents",
            "url": "https://haz-map.com/Agents/656"
          }
        ]
      },
      "description": {
        "original_name": "Description",
        "value": "Clear colorless liquid; [Sigma-Aldrich MSDS]",
        "links": [],
        "cross_references": []
      },
      "sourcesuses": {
        "original_name": "Sources/Uses",
        "value": "Used in the formulation of pharmaceuticals and as an intermediate for fine chemicals; [ExPub: ECHA REACH Registrations]",
        "links": [],
        "cross_references": [
          {
            "type": "name_match",
            "text": "mica",
            "confidence": 1.0,
            "uuid": "433f26f1-c399-4596-b179-ce3843cfd465",
            "name": "Mica",
            "url": "https://haz-map.com/Agents/621",
            "category": "agents"
          },
          {
            "type": "name_match",
            "text": "pharmaceuticals",
            "confidence": 1.0,
            "uuid": "713c3c30-b67e-4a2f-a90f-b32f8a306332",
            "name": "PHARMACEUTICALS",
            "url": "https://haz-map.com/Agents/1000",
            "category": "agents"
          }
        ]
      },
      "comments": {
        "original_name": "Comments",
        "value": "An irritant; Toxic by ingestion, inhalation, and skin absorption; [Sigma-Aldrich MSDS] See \"Methyl acetoacetate.\"",
        "links": [],
        "cross_references": [
          {
            "type": "name_match",
            "text": "ethyl acetoacetate",
            "confidence": 1.0,
            "uuid": "e1d7a651-b83f-457d-b1f4-c077b5930e0d",
            "name": "Ethyl acetoacetate",
            "url": "https://haz-map.com/Agents/5183",
            "category": "agents"
          },
          {
            "type": "name_match",
            "text": "methyl acetoacetate",
            "confidence": 1.0,
            "uuid": "fac5ad9b-f96b-4fec-9cd5-f77eba7ea4e8",
            "name": "Methyl acetoacetate",
            "url": "https://haz-map.com/Agents/8261",
            "category": "agents"
          }
        ]
      },
      "biomedical_references": {
        "original_name": "Biomedical References",
        "value": "Search PubMed",
        "links": [
          {
            "text": "Search PubMed",
            "url": "https://www.ncbi.nlm.nih.gov/pubmed?term=Allyl+acetoacetate%20AND%20human%5Bmh%5D%20AND%20%28Occupational%20Diseases%20%5Bmh%5D%20OR%20Occupational%20Exposure%20%5Bmh%5D%29%20%20AND%20%28tox%5Bsb%5D%29&cmd=search"
          }
        ],
        "cross_references": []
      }
    },
    "exposure_assessment": {
      "vapor_pressure": {
        "original_name": "Vapor Pressure",
        "value": "1 mm Hg",
        "links": [],
        "cross_references": []
      }
    },
    "diseases_processes_and_activities_linked_to_this_agent": {
      "other_information": {
        "original_name": "Other Information",
        "value": "No other related information on this agent was found.",
        "links": [],
        "cross_references": []
      }
    }
  },
  "cross_references": [
    {
      "type": "name_match",
      "text": "mica",
      "confidence": 1.0,
      "uuid": "433f26f1-c399-4596-b179-ce3843cfd465",
      "name": "Mica",
      "url": "https://haz-map.com/Agents/621",
      "category": "agents"
    },
    {
      "type": "name_match",
      "text": "pharmaceuticals",
      "confidence": 1.0,
      "uuid": "713c3c30-b67e-4a2f-a90f-b32f8a306332",
      "name": "PHARMACEUTICALS",
      "url": "https://haz-map.com/Agents/1000",
      "category": "agents"
    },
    {
      "type": "name_match",
      "text": "ethyl acetoacetate",
      "confidence": 1.0,
      "uuid": "e1d7a651-b83f-457d-b1f4-c077b5930e0d",
      "name": "Ethyl acetoacetate",
      "url": "https://haz-map.com/Agents/5183",
      "category": "agents"
    },
    {
      "type": "name_match",
      "text": "methyl acetoacetate",
      "confidence": 1.0,
      "uuid": "fac5ad9b-f96b-4fec-9cd5-f77eba7ea4e8",
      "name": "Methyl acetoacetate",
      "url": "https://haz-map.com/Agents/8261",
      "category": "agents"
    },
    {
      "type": "name_match",
      "text": "allyl acetoacetate",
      "confidence": 1.0,
      "uuid": "961eca02-41b5-43e5-8de6-50de96b4f115",
      "name": "Allyl acetoacetate",
      "url": "https://haz-map.com/Agents/20162",
      "category": "agents"
    },
    {
      "type": "fuzzy_match",
      "text": "organic compounds",
      "matched_name": "Tin, organic compounds",
      "confidence": 0.8196969696969697,
      "uuid": "e027d413-8869-4308-9eb2-27d768b011ea",
      "category": "agents",
      "url": "https://haz-map.com/Agents/656"
    }
  ],
  "all_links": [
    {
      "text": "Search PubMed",
      "url": "https://www.ncbi.nlm.nih.gov/pubmed?term=Allyl+acetoacetate%20AND%20human%5Bmh%5D%20AND%20%28Occupational%20Diseases%20%5Bmh%5D%20OR%20Occupational%20Exposure%20%5Bmh%5D%29%20%20AND%20%28tox%5Bsb%5D%29&cmd=search"
    }
  ]
}