{
  "metadata": {
    "scraped_from": "https://haz-map.com/Agents/9643",
    "entity_name": "2-Hexenal",
    "category": "agents",
    "uuid": "96280d9e-6a24-4596-9e2a-3fc9dca2862a",
    "scraped_at": "2025-07-23T20:40:23.176004"
  },
  "parsed_at": "2025-07-24T00:53:40.555379",
  "title": "2-Hexenal",
  "sections": {
    "general": {
      "agent_name": {
        "original_name": "Agent Name",
        "value": "2-Hexenal",
        "links": [],
        "cross_references": [
          {
            "type": "name_match",
            "text": "2-hexenal",
            "confidence": 1.0,
            "uuid": "96280d9e-6a24-4596-9e2a-3fc9dca2862a",
            "name": "2-Hexenal",
            "url": "https://haz-map.com/Agents/9643",
            "category": "agents"
          }
        ]
      },
      "cas_number": {
        "original_name": "CAS Number",
        "value": "505-57-7",
        "links": [],
        "cross_references": []
      },
      "formula": {
        "original_name": "Formula",
        "value": "C6-H10-O",
        "links": [],
        "cross_references": []
      },
      "major_category": {
        "original_name": "Major Category",
        "value": "Other Classes",
        "links": [],
        "cross_references": []
      },
      "synonyms": {
        "original_name": "Synonyms",
        "value": "Hex-2-en-1-al; Hex-2-enal; Hexylenic aldehyde; Leaf aldehyde; alpha,beta-Hexylenaldehyde; beta-Propylacrolein; [ChemIDplus]",
        "links": [],
        "cross_references": [
          {
            "type": "name_match",
            "text": "acrolein",
            "confidence": 1.0,
            "uuid": "a2d0c6a0-4ba7-42a1-bdb2-5ab0f9eaf94e",
            "name": "Acrolein",
            "url": "https://haz-map.com/Agents/95",
            "category": "agents"
          }
        ]
      },
      "category": {
        "original_name": "Category",
        "value": "Aldehydes",
        "links": [],
        "cross_references": [
          {
            "type": "name_match",
            "text": "aldehydes",
            "confidence": 1.0,
            "uuid": "60ff52e0-7c53-4dd0-99cf-f775cfcfed59",
            "name": "ALDEHYDES",
            "url": "https://haz-map.com/Agents/719",
            "category": "agents"
          }
        ]
      },
      "sourcesuses": {
        "original_name": "Sources/Uses",
        "value": "Used as flavoring agent or adjuvant; [FDA]",
        "links": [],
        "cross_references": []
      },
      "comments": {
        "original_name": "Comments",
        "value": "Safe when used as a flavoring agent in food; [JECFA] See \"2-Pentenal\" and \"2,4-Hexadienal.\"",
        "links": [],
        "cross_references": [
          {
            "type": "name_match",
            "text": "2,4-hexadienal",
            "confidence": 1.0,
            "uuid": "f6f52433-737f-48be-8e1e-0e4ffbcce1d8",
            "name": "2,4-Hexadienal",
            "url": "https://haz-map.com/Agents/3017",
            "category": "agents"
          },
          {
            "type": "name_match",
            "text": "2-pentenal",
            "confidence": 1.0,
            "uuid": "3e356e05-9b67-4379-bf8c-510249f389a7",
            "name": "2-Pentenal",
            "url": "https://haz-map.com/Agents/8530",
            "category": "agents"
          }
        ]
      },
      "biomedical_references": {
        "original_name": "Biomedical References",
        "value": "Search PubMed",
        "links": [
          {
            "text": "Search PubMed",
            "url": "https://www.ncbi.nlm.nih.gov/pubmed?term=2-Hexenal%20AND%20human%5Bmh%5D%20AND%20%28Occupational%20Diseases%20%5Bmh%5D%20OR%20Occupational%20Exposure%20%5Bmh%5D%29%20%20AND%20%28tox%5Bsb%5D%29&cmd=search"
          }
        ],
        "cross_references": []
      }
    },
    "exposure_assessment": {
      "vapor_pressure": {
        "original_name": "Vapor Pressure",
        "value": "6.6 mm Hg",
        "links": [],
        "cross_references": []
      },
      "explanatory_notes": {
        "original_name": "Explanatory Notes",
        "value": "VP from ChemIDplus;",
        "links": [],
        "cross_references": []
      }
    },
    "diseases_processes_and_activities_linked_to_this_agent": {
      "other_information": {
        "original_name": "Other Information",
        "value": "No other related information on this agent was found.",
        "links": [],
        "cross_references": []
      }
    }
  },
  "cross_references": [
    {
      "type": "name_match",
      "text": "acrolein",
      "confidence": 1.0,
      "uuid": "a2d0c6a0-4ba7-42a1-bdb2-5ab0f9eaf94e",
      "name": "Acrolein",
      "url": "https://haz-map.com/Agents/95",
      "category": "agents"
    },
    {
      "type": "name_match",
      "text": "aldehydes",
      "confidence": 1.0,
      "uuid": "60ff52e0-7c53-4dd0-99cf-f775cfcfed59",
      "name": "ALDEHYDES",
      "url": "https://haz-map.com/Agents/719",
      "category": "agents"
    },
    {
      "type": "name_match",
      "text": "2,4-hexadienal",
      "confidence": 1.0,
      "uuid": "f6f52433-737f-48be-8e1e-0e4ffbcce1d8",
      "name": "2,4-Hexadienal",
      "url": "https://haz-map.com/Agents/3017",
      "category": "agents"
    },
    {
      "type": "name_match",
      "text": "2-pentenal",
      "confidence": 1.0,
      "uuid": "3e356e05-9b67-4379-bf8c-510249f389a7",
      "name": "2-Pentenal",
      "url": "https://haz-map.com/Agents/8530",
      "category": "agents"
    },
    {
      "type": "name_match",
      "text": "2-hexenal",
      "confidence": 1.0,
      "uuid": "96280d9e-6a24-4596-9e2a-3fc9dca2862a",
      "name": "2-Hexenal",
      "url": "https://haz-map.com/Agents/9643",
      "category": "agents"
    }
  ],
  "all_links": [
    {
      "text": "Search PubMed",
      "url": "https://www.ncbi.nlm.nih.gov/pubmed?term=2-Hexenal%20AND%20human%5Bmh%5D%20AND%20%28Occupational%20Diseases%20%5Bmh%5D%20OR%20Occupational%20Exposure%20%5Bmh%5D%29%20%20AND%20%28tox%5Bsb%5D%29&cmd=search"
    }
  ]
}