{
  "metadata": {
    "scraped_from": "https://haz-map.com/Agents/2477",
    "entity_name": "2-Butyl nitrate",
    "category": "agents",
    "uuid": "96849377-3862-4a62-9a91-1c23ff69cfda",
    "scraped_at": "2025-07-23T19:13:38.967914"
  },
  "parsed_at": "2025-07-24T01:13:10.627267",
  "title": "2-Butyl nitrate",
  "sections": {
    "general": {
      "agent_name": {
        "original_name": "Agent Name",
        "value": "2-Butyl nitrate",
        "links": [],
        "cross_references": [
          {
            "type": "name_match",
            "text": "2-butyl nitrate",
            "confidence": 1.0,
            "uuid": "96849377-3862-4a62-9a91-1c23ff69cfda",
            "name": "2-Butyl nitrate",
            "url": "https://haz-map.com/Agents/2477",
            "category": "agents"
          },
          {
            "type": "name_match",
            "text": "butyl nitrate",
            "confidence": 1.0,
            "uuid": "8b55aee6-c4c4-476b-aaa1-cd9929c7a85e",
            "name": "Butyl nitrate",
            "url": "https://haz-map.com/Agents/8629",
            "category": "agents"
          }
        ]
      },
      "cas_number": {
        "original_name": "CAS Number",
        "value": "543-29-3",
        "links": [],
        "cross_references": []
      },
      "formula": {
        "original_name": "Formula",
        "value": "C4-H9-N-O3",
        "links": [],
        "cross_references": []
      },
      "major_category": {
        "original_name": "Major Category",
        "value": "Nitrogen Compounds",
        "links": [],
        "cross_references": [
          {
            "type": "name_match",
            "text": "nitrogen",
            "confidence": 1.0,
            "uuid": "db5e90a9-06d2-45b9-8b81-f345a89b0bc0",
            "name": "Nitrogen",
            "url": "https://haz-map.com/Agents/1072",
            "category": "agents"
          }
        ]
      },
      "synonyms": {
        "original_name": "Synonyms",
        "value": "2-Butyl nitrate; Isobutyl nitrate; [ChemFinder] UN3272",
        "links": [],
        "cross_references": [
          {
            "type": "name_match",
            "text": "2-butyl nitrate",
            "confidence": 1.0,
            "uuid": "96849377-3862-4a62-9a91-1c23ff69cfda",
            "name": "2-Butyl nitrate",
            "url": "https://haz-map.com/Agents/2477",
            "category": "agents"
          },
          {
            "type": "name_match",
            "text": "butyl nitrate",
            "confidence": 1.0,
            "uuid": "8b55aee6-c4c4-476b-aaa1-cd9929c7a85e",
            "name": "Butyl nitrate",
            "url": "https://haz-map.com/Agents/8629",
            "category": "agents"
          }
        ]
      },
      "category": {
        "original_name": "Category",
        "value": "Nitrates and Nitrites",
        "links": [],
        "cross_references": [
          {
            "type": "name_match",
            "text": "nitrates and nitrites",
            "confidence": 1.0,
            "uuid": "6762c941-4910-4341-a779-ff9c9606e987",
            "name": "NITRATES and NITRITES",
            "url": "https://haz-map.com/Agents/1095",
            "category": "agents"
          }
        ]
      },
      "description": {
        "original_name": "Description",
        "value": "Liquid; [Merck Index]",
        "links": [],
        "cross_references": []
      },
      "comments": {
        "original_name": "Comments",
        "value": "A skin, eye, and respiratory tract irritant; Toxic by ingestion; May be harmful if absorbed through skin or inhaled; [MSDSonline] See \"Ethyl nitrate.\"",
        "links": [],
        "cross_references": [
          {
            "type": "name_match",
            "text": "ethyl nitrate",
            "confidence": 1.0,
            "uuid": "dd4deff9-75c9-4170-a9c0-071806ec2a25",
            "name": "Ethyl nitrate",
            "url": "https://haz-map.com/Agents/1519",
            "category": "agents"
          }
        ]
      },
      "biomedical_references": {
        "original_name": "Biomedical References",
        "value": "Search PubMed",
        "links": [
          {
            "text": "Search PubMed",
            "url": "https://www.ncbi.nlm.nih.gov/pubmed?term=2-Butyl+nitrate%20AND%20human%5Bmh%5D%20AND%20%28Occupational%20Diseases%20%5Bmh%5D%20OR%20Occupational%20Exposure%20%5Bmh%5D%29%20%20AND%20%28tox%5Bsb%5D%29&cmd=search"
          }
        ],
        "cross_references": []
      }
    },
    "exposure_assessment": {
      "vapor_pressure": {
        "original_name": "Vapor Pressure",
        "value": "8.3 mm Hg",
        "links": [],
        "cross_references": []
      },
      "explanatory_notes": {
        "original_name": "Explanatory Notes",
        "value": "Flash point = 21 deg C; bp = 123 deg C; [MSDSonline] VP from ChemIDplus;",
        "links": [],
        "cross_references": [
          {
            "type": "name_match",
            "text": "ash",
            "confidence": 1.0,
            "uuid": "68b360f1-5ad0-4337-bea0-d7adca2961b5",
            "name": "Ash",
            "url": "https://haz-map.com/Agents/965",
            "category": "agents"
          }
        ]
      }
    },
    "adverse_effects": {
      "methemoglobinemia": {
        "original_name": "Methemoglobinemia",
        "value": "MetHgb is secondary toxic effect",
        "links": [],
        "cross_references": []
      }
    },
    "diseases_processes_and_activities_linked_to_this_agent": {
      "other_information": {
        "original_name": "Other Information",
        "value": "No other related information on this agent was found.",
        "links": [],
        "cross_references": []
      }
    }
  },
  "cross_references": [
    {
      "type": "name_match",
      "text": "ash",
      "confidence": 1.0,
      "uuid": "68b360f1-5ad0-4337-bea0-d7adca2961b5",
      "name": "Ash",
      "url": "https://haz-map.com/Agents/965",
      "category": "agents"
    },
    {
      "type": "name_match",
      "text": "nitrogen",
      "confidence": 1.0,
      "uuid": "db5e90a9-06d2-45b9-8b81-f345a89b0bc0",
      "name": "Nitrogen",
      "url": "https://haz-map.com/Agents/1072",
      "category": "agents"
    },
    {
      "type": "name_match",
      "text": "nitrates and nitrites",
      "confidence": 1.0,
      "uuid": "6762c941-4910-4341-a779-ff9c9606e987",
      "name": "NITRATES and NITRITES",
      "url": "https://haz-map.com/Agents/1095",
      "category": "agents"
    },
    {
      "type": "name_match",
      "text": "ethyl nitrate",
      "confidence": 1.0,
      "uuid": "dd4deff9-75c9-4170-a9c0-071806ec2a25",
      "name": "Ethyl nitrate",
      "url": "https://haz-map.com/Agents/1519",
      "category": "agents"
    },
    {
      "type": "name_match",
      "text": "2-butyl nitrate",
      "confidence": 1.0,
      "uuid": "96849377-3862-4a62-9a91-1c23ff69cfda",
      "name": "2-Butyl nitrate",
      "url": "https://haz-map.com/Agents/2477",
      "category": "agents"
    },
    {
      "type": "name_match",
      "text": "butyl nitrate",
      "confidence": 1.0,
      "uuid": "8b55aee6-c4c4-476b-aaa1-cd9929c7a85e",
      "name": "Butyl nitrate",
      "url": "https://haz-map.com/Agents/8629",
      "category": "agents"
    }
  ],
  "all_links": [
    {
      "text": "Search PubMed",
      "url": "https://www.ncbi.nlm.nih.gov/pubmed?term=2-Butyl+nitrate%20AND%20human%5Bmh%5D%20AND%20%28Occupational%20Diseases%20%5Bmh%5D%20OR%20Occupational%20Exposure%20%5Bmh%5D%29%20%20AND%20%28tox%5Bsb%5D%29&cmd=search"
    }
  ]
}