{
  "metadata": {
    "scraped_from": "https://haz-map.com/Agents/17095",
    "entity_name": "Raffinose",
    "category": "agents",
    "uuid": "968eb7ea-9ba8-4c7e-8385-1894afb2b8f3",
    "scraped_at": "2025-07-23T21:43:27.167020"
  },
  "parsed_at": "2025-07-24T01:05:26.585541",
  "title": "Raffinose",
  "sections": {
    "general": {
      "agent_name": {
        "original_name": "Agent Name",
        "value": "Raffinose",
        "links": [],
        "cross_references": [
          {
            "type": "name_match",
            "text": "raffinose",
            "confidence": 1.0,
            "uuid": "968eb7ea-9ba8-4c7e-8385-1894afb2b8f3",
            "name": "Raffinose",
            "url": "https://haz-map.com/Agents/17095",
            "category": "agents"
          }
        ]
      },
      "cas_number": {
        "original_name": "CAS Number",
        "value": "512-69-6",
        "links": [],
        "cross_references": []
      },
      "formula": {
        "original_name": "Formula",
        "value": "C18-H32-O16",
        "links": [],
        "cross_references": []
      },
      "major_category": {
        "original_name": "Major Category",
        "value": "Biological Agents",
        "links": [],
        "cross_references": []
      },
      "synonyms": {
        "original_name": "Synonyms",
        "value": "D-Raffinose; Gossypose; Melitose; Melitriose; D-(+)-Raffinose; Raffinose, pure; alpha-D-Glucopyranoside, beta-D-fructofuranosyl O-alpha-D-galactopyranosyl-(1-6)-; alpha-D-Glucopyranoside, beta-D-fructofuranosyl O-alpha-D-galactopyranosyl-(1->6)-; alpha-D-Glucopyranoside, beta-D-fructofuranosyl O-alpha-D-galactopyranosyl-(1.fwdarw.6)-; [ChemIDplus] beta-D-Fructofuranosyl O-alpha-D-galactopyranosyl (1 to 6)-alpha-D-glucopyranoside; [Merck Index] D-(+)-Raffinose; [RTECS] Raffinose Disks; [Sigma-Aldrich MSDS]",
        "links": [],
        "cross_references": [
          {
            "type": "name_match",
            "text": "furan",
            "confidence": 1.0,
            "uuid": "96da3d2e-f46b-4100-9000-704d1a86985b",
            "name": "Furan",
            "url": "https://haz-map.com/Agents/1477",
            "category": "agents"
          },
          {
            "type": "name_match",
            "text": "raffinose",
            "confidence": 1.0,
            "uuid": "968eb7ea-9ba8-4c7e-8385-1894afb2b8f3",
            "name": "Raffinose",
            "url": "https://haz-map.com/Agents/17095",
            "category": "agents"
          }
        ]
      },
      "category": {
        "original_name": "Category",
        "value": "Oligosaccharides",
        "links": [],
        "cross_references": []
      },
      "description": {
        "original_name": "Description",
        "value": "Pentahydrate: Solid; [Merck Index] Solid; [Sigma-Aldrich MSDS]",
        "links": [],
        "cross_references": []
      },
      "sourcesuses": {
        "original_name": "Sources/Uses",
        "value": "A trisaccharide composed of 1 mol each of D-galactose, D-glucose, and D-fructose; Found in Australian manna and cottonseed meal; [Merck Index]",
        "links": [],
        "cross_references": [
          {
            "type": "name_match",
            "text": "fructose",
            "confidence": 1.0,
            "uuid": "f9b395e9-cac0-47f7-b3e6-54ba0afd1c40",
            "name": "Fructose",
            "url": "https://haz-map.com/Agents/13687",
            "category": "agents"
          },
          {
            "type": "name_match",
            "text": "d-galactose",
            "confidence": 1.0,
            "uuid": "7c17831c-b514-4b2f-ad08-ce2a610baf28",
            "name": "D-Galactose",
            "url": "https://haz-map.com/Agents/13690",
            "category": "agents"
          },
          {
            "type": "name_match",
            "text": "glucose",
            "confidence": 1.0,
            "uuid": "329d86ed-6744-4566-825c-5247ed1a8f75",
            "name": "Glucose",
            "url": "https://haz-map.com/Agents/14413",
            "category": "agents"
          },
          {
            "type": "name_match",
            "text": "lactose",
            "confidence": 1.0,
            "uuid": "a9f8c81c-bfa0-43e4-a9eb-6e39fa70ab2c",
            "name": "Lactose",
            "url": "https://haz-map.com/Agents/15057",
            "category": "agents"
          }
        ]
      },
      "comments": {
        "original_name": "Comments",
        "value": "May cause irritation; [Sigma-Aldrich MSDS]",
        "links": [],
        "cross_references": []
      },
      "biomedical_references": {
        "original_name": "Biomedical References",
        "value": "Search PubMed",
        "links": [
          {
            "text": "Search PubMed",
            "url": "https://www.ncbi.nlm.nih.gov/pubmed?term=Raffinose%20AND%20human%5Bmh%5D%20AND%20%28Occupational%20Diseases%20%5Bmh%5D%20OR%20Occupational%20Exposure%20%5Bmh%5D%29%20%20AND%20%28tox%5Bsb%5D%29&cmd=search"
          }
        ],
        "cross_references": []
      }
    },
    "exposure_assessment": {
      "vapor_pressure": {
        "original_name": "Vapor Pressure",
        "value": "2E-25 mm Hg",
        "links": [],
        "cross_references": []
      }
    },
    "diseases_processes_and_activities_linked_to_this_agent": {
      "other_information": {
        "original_name": "Other Information",
        "value": "No other related information on this agent was found.",
        "links": [],
        "cross_references": []
      }
    }
  },
  "cross_references": [
    {
      "type": "name_match",
      "text": "furan",
      "confidence": 1.0,
      "uuid": "96da3d2e-f46b-4100-9000-704d1a86985b",
      "name": "Furan",
      "url": "https://haz-map.com/Agents/1477",
      "category": "agents"
    },
    {
      "type": "name_match",
      "text": "fructose",
      "confidence": 1.0,
      "uuid": "f9b395e9-cac0-47f7-b3e6-54ba0afd1c40",
      "name": "Fructose",
      "url": "https://haz-map.com/Agents/13687",
      "category": "agents"
    },
    {
      "type": "name_match",
      "text": "d-galactose",
      "confidence": 1.0,
      "uuid": "7c17831c-b514-4b2f-ad08-ce2a610baf28",
      "name": "D-Galactose",
      "url": "https://haz-map.com/Agents/13690",
      "category": "agents"
    },
    {
      "type": "name_match",
      "text": "glucose",
      "confidence": 1.0,
      "uuid": "329d86ed-6744-4566-825c-5247ed1a8f75",
      "name": "Glucose",
      "url": "https://haz-map.com/Agents/14413",
      "category": "agents"
    },
    {
      "type": "name_match",
      "text": "lactose",
      "confidence": 1.0,
      "uuid": "a9f8c81c-bfa0-43e4-a9eb-6e39fa70ab2c",
      "name": "Lactose",
      "url": "https://haz-map.com/Agents/15057",
      "category": "agents"
    },
    {
      "type": "name_match",
      "text": "raffinose",
      "confidence": 1.0,
      "uuid": "968eb7ea-9ba8-4c7e-8385-1894afb2b8f3",
      "name": "Raffinose",
      "url": "https://haz-map.com/Agents/17095",
      "category": "agents"
    }
  ],
  "all_links": [
    {
      "text": "Search PubMed",
      "url": "https://www.ncbi.nlm.nih.gov/pubmed?term=Raffinose%20AND%20human%5Bmh%5D%20AND%20%28Occupational%20Diseases%20%5Bmh%5D%20OR%20Occupational%20Exposure%20%5Bmh%5D%29%20%20AND%20%28tox%5Bsb%5D%29&cmd=search"
    }
  ]
}