{
  "metadata": {
    "scraped_from": "https://haz-map.com/Agents/2844",
    "entity_name": "Thiosemicarbazide",
    "category": "agents",
    "uuid": "96a3d654-b976-4aa2-9356-2ff5476012c2",
    "scraped_at": "2025-07-23T19:19:47.158647"
  },
  "parsed_at": "2025-07-24T01:16:47.954513",
  "title": "Thiosemicarbazide",
  "sections": {
    "general": {
      "agent_name": {
        "original_name": "Agent Name",
        "value": "Thiosemicarbazide",
        "links": [],
        "cross_references": [
          {
            "type": "name_match",
            "text": "mica",
            "confidence": 1.0,
            "uuid": "433f26f1-c399-4596-b179-ce3843cfd465",
            "name": "Mica",
            "url": "https://haz-map.com/Agents/621",
            "category": "agents"
          },
          {
            "type": "name_match",
            "text": "thiosemicarbazide",
            "confidence": 1.0,
            "uuid": "96a3d654-b976-4aa2-9356-2ff5476012c2",
            "name": "Thiosemicarbazide",
            "url": "https://haz-map.com/Agents/2844",
            "category": "agents"
          },
          {
            "type": "name_match",
            "text": "semicarbazide",
            "confidence": 1.0,
            "uuid": "5d71f37a-a077-43bd-b8cb-898edc9c1b65",
            "name": "Semicarbazide",
            "url": "https://haz-map.com/Agents/17241",
            "category": "agents"
          }
        ]
      },
      "alternative_name": {
        "original_name": "Alternative Name",
        "value": "1-Amino-2-thiourea",
        "links": [],
        "cross_references": [
          {
            "type": "name_match",
            "text": "thiourea",
            "confidence": 1.0,
            "uuid": "9d84caab-5d53-428a-985f-be88dd4db13f",
            "name": "Thiourea",
            "url": "https://haz-map.com/Agents/998",
            "category": "agents"
          },
          {
            "type": "name_match",
            "text": "urea",
            "confidence": 1.0,
            "uuid": "a92a6129-bddd-4f79-9a78-136812ae610f",
            "name": "Urea",
            "url": "https://haz-map.com/Agents/2078",
            "category": "agents"
          }
        ]
      },
      "cas_number": {
        "original_name": "CAS Number",
        "value": "79-19-6",
        "links": [],
        "cross_references": []
      },
      "formula": {
        "original_name": "Formula",
        "value": "C-H5-N3-S",
        "links": [],
        "cross_references": []
      },
      "major_category": {
        "original_name": "Major Category",
        "value": "Nitrogen Compounds",
        "links": [],
        "cross_references": [
          {
            "type": "name_match",
            "text": "nitrogen",
            "confidence": 1.0,
            "uuid": "db5e90a9-06d2-45b9-8b81-f345a89b0bc0",
            "name": "Nitrogen",
            "url": "https://haz-map.com/Agents/1072",
            "category": "agents"
          }
        ]
      },
      "synonyms": {
        "original_name": "Synonyms",
        "value": "1-Amino-2-thiourea; 1-Aminothiourea; 2-Thiosemicarbazide; 3-Thiosemicarbazide; Aminothio-urea; Hydrazinecarbothioamide; Isothiosemicarbazide; Isothiosemicarbazide (VAN); N-Aminothiourea; Semicarbazide, 3-thio-; Semicarbazide, thio-; TSC; TSZ; Thiocarbamoylhydrazine; Thiocarbamylhydrazine; [ChemIDplus] UN2811",
        "links": [],
        "cross_references": [
          {
            "type": "name_match",
            "text": "hydrazine",
            "confidence": 1.0,
            "uuid": "72217956-0601-43f2-9d74-0d90d38fd09d",
            "name": "Hydrazine",
            "url": "https://haz-map.com/Agents/55",
            "category": "agents"
          },
          {
            "type": "name_match",
            "text": "mica",
            "confidence": 1.0,
            "uuid": "433f26f1-c399-4596-b179-ce3843cfd465",
            "name": "Mica",
            "url": "https://haz-map.com/Agents/621",
            "category": "agents"
          },
          {
            "type": "name_match",
            "text": "thiourea",
            "confidence": 1.0,
            "uuid": "9d84caab-5d53-428a-985f-be88dd4db13f",
            "name": "Thiourea",
            "url": "https://haz-map.com/Agents/998",
            "category": "agents"
          },
          {
            "type": "name_match",
            "text": "urea",
            "confidence": 1.0,
            "uuid": "a92a6129-bddd-4f79-9a78-136812ae610f",
            "name": "Urea",
            "url": "https://haz-map.com/Agents/2078",
            "category": "agents"
          },
          {
            "type": "name_match",
            "text": "thiosemicarbazide",
            "confidence": 1.0,
            "uuid": "96a3d654-b976-4aa2-9356-2ff5476012c2",
            "name": "Thiosemicarbazide",
            "url": "https://haz-map.com/Agents/2844",
            "category": "agents"
          },
          {
            "type": "name_match",
            "text": "semicarbazide",
            "confidence": 1.0,
            "uuid": "5d71f37a-a077-43bd-b8cb-898edc9c1b65",
            "name": "Semicarbazide",
            "url": "https://haz-map.com/Agents/17241",
            "category": "agents"
          }
        ]
      },
      "category": {
        "original_name": "Category",
        "value": "Thiourea Compounds",
        "links": [],
        "cross_references": [
          {
            "type": "name_match",
            "text": "thiourea",
            "confidence": 1.0,
            "uuid": "9d84caab-5d53-428a-985f-be88dd4db13f",
            "name": "Thiourea",
            "url": "https://haz-map.com/Agents/998",
            "category": "agents"
          },
          {
            "type": "name_match",
            "text": "urea",
            "confidence": 1.0,
            "uuid": "a92a6129-bddd-4f79-9a78-136812ae610f",
            "name": "Urea",
            "url": "https://haz-map.com/Agents/2078",
            "category": "agents"
          }
        ]
      },
      "description": {
        "original_name": "Description",
        "value": "White, odorless solid; [Hawley] Off-white crystalline powder; [Alfa Aesar MSDS]",
        "links": [],
        "cross_references": [
          {
            "type": "fuzzy_match",
            "text": "crystalline",
            "matched_name": "Silica, crystalline",
            "confidence": 0.7061403508771931,
            "uuid": "f920e8a2-46df-41b7-af8d-0368a777251e",
            "category": "agents",
            "url": "https://haz-map.com/Agents/427"
          }
        ]
      },
      "sourcesuses": {
        "original_name": "Sources/Uses",
        "value": "Used as a reagent for ketones and detection of metals, rodenticide, and chemical intermediate; Also used in photography; [HSDB] Effective for controlling bacterial leaf blight in rice: [CAMEO]",
        "links": [],
        "cross_references": [
          {
            "type": "name_match",
            "text": "mica",
            "confidence": 1.0,
            "uuid": "433f26f1-c399-4596-b179-ce3843cfd465",
            "name": "Mica",
            "url": "https://haz-map.com/Agents/621",
            "category": "agents"
          },
          {
            "type": "name_match",
            "text": "ht",
            "confidence": 1.0,
            "uuid": "764df367-8d53-4a11-81a2-31ccfe122a8d",
            "name": "HT",
            "url": "https://haz-map.com/Agents/2168",
            "category": "agents"
          }
        ]
      },
      "comments": {
        "original_name": "Comments",
        "value": "May cause irritation, goiter, bone marrow depression, hyperglycemia, CNS excitation, seizures, and pulmonary edema after ingestion; A GABA synthesis inhibitor in experimental animals; [HSDB] Causes convulsions in lethal-dose studies of guinea pigs, mice, and cats (oral, ocular, intravenous, and intraperitoneal routes); [RTECS] An irritant; [Alfa Aesar MSDS]",
        "links": [],
        "cross_references": [
          {
            "type": "name_match",
            "text": "convulsion",
            "confidence": 1.0,
            "uuid": "af2c36f8-707a-48e3-a62b-1aa07adc9b72",
            "name": "convulsion",
            "url": "https://haz-map.com/Findings/14",
            "category": "findings"
          },
          {
            "type": "name_match",
            "text": "pulmonary edema",
            "confidence": 1.0,
            "uuid": "ee39114e-c922-40fd-9588-a532de404962",
            "name": "pulmonary edema",
            "url": "https://haz-map.com/Findings/186",
            "category": "findings"
          }
        ]
      },
      "restricted": {
        "original_name": "Restricted",
        "value": "Not registered as a pesticide for use in the US; [CAMEO]",
        "links": [],
        "cross_references": []
      },
      "biomedical_references": {
        "original_name": "Biomedical References",
        "value": "Search PubMed",
        "links": [
          {
            "text": "Search PubMed",
            "url": "https://www.ncbi.nlm.nih.gov/pubmed?term=Thiosemicarbazide%20AND%20human%5Bmh%5D%20AND%20%28Occupational%20Diseases%20%5Bmh%5D%20OR%20Occupational%20Exposure%20%5Bmh%5D%29%20%20AND%20%28tox%5Bsb%5D%29&cmd=search"
          }
        ],
        "cross_references": []
      }
    },
    "exposure_assessment": {
      "vapor_pressure": {
        "original_name": "Vapor Pressure",
        "value": "0.33 mm Hg",
        "links": [],
        "cross_references": []
      },
      "explanatory_notes": {
        "original_name": "Explanatory Notes",
        "value": "The Guide in the Emergency Response Guidebook is for \"Toxic solid, organic, n.o.s.\" VP from ChemIDplus;",
        "links": [],
        "cross_references": []
      }
    },
    "adverse_effects": {
      "neurotoxin": {
        "original_name": "Neurotoxin",
        "value": "Other CNS neurotoxin",
        "links": [],
        "cross_references": []
      }
    },
    "diseases_processes_and_activities_linked_to_this_agent": {
      "processes": {
        "original_name": "Processes",
        "value": "Industrial Processes with risk of exposure: Photographic Processing",
        "links": [
          {
            "text": "Photographic Processing",
            "url": "https://haz-map.com/Processes/231"
          }
        ],
        "cross_references": []
      }
    }
  },
  "cross_references": [
    {
      "type": "name_match",
      "text": "convulsion",
      "confidence": 1.0,
      "uuid": "af2c36f8-707a-48e3-a62b-1aa07adc9b72",
      "name": "convulsion",
      "url": "https://haz-map.com/Findings/14",
      "category": "findings"
    },
    {
      "type": "name_match",
      "text": "pulmonary edema",
      "confidence": 1.0,
      "uuid": "ee39114e-c922-40fd-9588-a532de404962",
      "name": "pulmonary edema",
      "url": "https://haz-map.com/Findings/186",
      "category": "findings"
    },
    {
      "type": "name_match",
      "text": "hydrazine",
      "confidence": 1.0,
      "uuid": "72217956-0601-43f2-9d74-0d90d38fd09d",
      "name": "Hydrazine",
      "url": "https://haz-map.com/Agents/55",
      "category": "agents"
    },
    {
      "type": "name_match",
      "text": "mica",
      "confidence": 1.0,
      "uuid": "433f26f1-c399-4596-b179-ce3843cfd465",
      "name": "Mica",
      "url": "https://haz-map.com/Agents/621",
      "category": "agents"
    },
    {
      "type": "name_match",
      "text": "thiourea",
      "confidence": 1.0,
      "uuid": "9d84caab-5d53-428a-985f-be88dd4db13f",
      "name": "Thiourea",
      "url": "https://haz-map.com/Agents/998",
      "category": "agents"
    },
    {
      "type": "name_match",
      "text": "nitrogen",
      "confidence": 1.0,
      "uuid": "db5e90a9-06d2-45b9-8b81-f345a89b0bc0",
      "name": "Nitrogen",
      "url": "https://haz-map.com/Agents/1072",
      "category": "agents"
    },
    {
      "type": "name_match",
      "text": "urea",
      "confidence": 1.0,
      "uuid": "a92a6129-bddd-4f79-9a78-136812ae610f",
      "name": "Urea",
      "url": "https://haz-map.com/Agents/2078",
      "category": "agents"
    },
    {
      "type": "name_match",
      "text": "ht",
      "confidence": 1.0,
      "uuid": "764df367-8d53-4a11-81a2-31ccfe122a8d",
      "name": "HT",
      "url": "https://haz-map.com/Agents/2168",
      "category": "agents"
    },
    {
      "type": "name_match",
      "text": "thiosemicarbazide",
      "confidence": 1.0,
      "uuid": "96a3d654-b976-4aa2-9356-2ff5476012c2",
      "name": "Thiosemicarbazide",
      "url": "https://haz-map.com/Agents/2844",
      "category": "agents"
    },
    {
      "type": "name_match",
      "text": "semicarbazide",
      "confidence": 1.0,
      "uuid": "5d71f37a-a077-43bd-b8cb-898edc9c1b65",
      "name": "Semicarbazide",
      "url": "https://haz-map.com/Agents/17241",
      "category": "agents"
    },
    {
      "type": "fuzzy_match",
      "text": "crystalline",
      "matched_name": "Silica, crystalline",
      "confidence": 0.7061403508771931,
      "uuid": "f920e8a2-46df-41b7-af8d-0368a777251e",
      "category": "agents",
      "url": "https://haz-map.com/Agents/427"
    }
  ],
  "all_links": [
    {
      "text": "Search PubMed",
      "url": "https://www.ncbi.nlm.nih.gov/pubmed?term=Thiosemicarbazide%20AND%20human%5Bmh%5D%20AND%20%28Occupational%20Diseases%20%5Bmh%5D%20OR%20Occupational%20Exposure%20%5Bmh%5D%29%20%20AND%20%28tox%5Bsb%5D%29&cmd=search"
    },
    {
      "text": "Photographic Processing",
      "url": "https://haz-map.com/Processes/231"
    }
  ]
}