{
  "metadata": {
    "scraped_from": "https://haz-map.com/Agents/4193",
    "entity_name": "Capric acid",
    "category": "agents",
    "uuid": "96eb96e2-85f6-4d9d-8ac7-e7f72580e035",
    "scraped_at": "2025-07-23T19:38:37.944418"
  },
  "parsed_at": "2025-07-24T01:14:47.180686",
  "title": "Capric acid",
  "sections": {
    "general": {
      "agent_name": {
        "original_name": "Agent Name",
        "value": "Capric acid",
        "links": [],
        "cross_references": [
          {
            "type": "name_match",
            "text": "capric acid",
            "confidence": 1.0,
            "uuid": "96eb96e2-85f6-4d9d-8ac7-e7f72580e035",
            "name": "Capric acid",
            "url": "https://haz-map.com/Agents/4193",
            "category": "agents"
          }
        ]
      },
      "alternative_name": {
        "original_name": "Alternative Name",
        "value": "Decanoic acid",
        "links": [],
        "cross_references": []
      },
      "cas_number": {
        "original_name": "CAS Number",
        "value": "334-48-5",
        "links": [],
        "cross_references": []
      },
      "formula": {
        "original_name": "Formula",
        "value": "C10-H20-O2",
        "links": [],
        "cross_references": []
      },
      "major_category": {
        "original_name": "Major Category",
        "value": "Other Classes",
        "links": [],
        "cross_references": []
      },
      "synonyms": {
        "original_name": "Synonyms",
        "value": "1-Nonanecarboxylic acid; C10 fatty acid; Caprinic acid; Caprynic acid; Decanoic acid (natural); Decoic acid; Decylic acid; Econosan Acid Sanitizer; Fatty acid(C10); Hexacid 1095; Neo-fat 10; n-Capric acid; n-Decanoic acid; n-Decoic acid; n-Decylic acid; [ChemIDplus]",
        "links": [],
        "cross_references": [
          {
            "type": "name_match",
            "text": "nonane",
            "confidence": 1.0,
            "uuid": "fe0f019a-d093-4bb9-a7d3-2f2ceaf91953",
            "name": "Nonane",
            "url": "https://haz-map.com/Agents/578",
            "category": "agents"
          },
          {
            "type": "name_match",
            "text": "capric acid",
            "confidence": 1.0,
            "uuid": "96eb96e2-85f6-4d9d-8ac7-e7f72580e035",
            "name": "Capric acid",
            "url": "https://haz-map.com/Agents/4193",
            "category": "agents"
          }
        ]
      },
      "category": {
        "original_name": "Category",
        "value": "Organic Acids",
        "links": [],
        "cross_references": []
      },
      "description": {
        "original_name": "Description",
        "value": "White solid with an unpleasant odor; Insoluble in water; mp = 31.5 deg C; [Hawley] Off-white wax or crystalline solid with a rancid odor; Insoluble in water; [MSDSonline]",
        "links": [],
        "cross_references": [
          {
            "type": "name_match",
            "text": "water",
            "confidence": 1.0,
            "uuid": "6f2a7557-dfd2-49bc-9b4b-a93cd8e225d4",
            "name": "Water",
            "url": "https://haz-map.com/Agents/18668",
            "category": "agents"
          },
          {
            "type": "fuzzy_match",
            "text": "crystalline",
            "matched_name": "Silica, crystalline",
            "confidence": 0.7061403508771931,
            "uuid": "f920e8a2-46df-41b7-af8d-0368a777251e",
            "category": "agents",
            "url": "https://haz-map.com/Agents/427"
          }
        ]
      },
      "sourcesuses": {
        "original_name": "Sources/Uses",
        "value": "Used in perfumes , fruit flavors, resins, and to make wetting agents, food additives, and other organic chemicals; Also used as a plasticizer and as an absorption enhancer in guinea pig skin experiments; [HSDB] Found in several essential oils, many fruits, dairy products, rum, whiskey, wine, brandies, other foods, and American elm seeds; [CHEMINFO]",
        "links": [],
        "cross_references": [
          {
            "type": "name_match",
            "text": "mica",
            "confidence": 1.0,
            "uuid": "433f26f1-c399-4596-b179-ce3843cfd465",
            "name": "Mica",
            "url": "https://haz-map.com/Agents/621",
            "category": "agents"
          }
        ]
      },
      "comments": {
        "original_name": "Comments",
        "value": "Emergency treatment: non-toxic ingestion; A skin irritant; Neat material highly irritating in rabbit eyes; Causes skin irritation in human volunteers in concentrations >1%; [HSDB] A skin, eye, mucous membrane, and upper respiratory tract irritant; [CAMEO] Safe when used as a flavoring agent in food; [JECFA] An irritant; [MSDSonline]",
        "links": [],
        "cross_references": []
      },
      "biomedical_references": {
        "original_name": "Biomedical References",
        "value": "Search PubMed",
        "links": [
          {
            "text": "Search PubMed",
            "url": "https://www.ncbi.nlm.nih.gov/pubmed?term=Capric+acid%20AND%20human%5Bmh%5D%20AND%20%28Occupational%20Diseases%20%5Bmh%5D%20OR%20Occupational%20Exposure%20%5Bmh%5D%29%20%20AND%20%28tox%5Bsb%5D%29&cmd=search"
          }
        ],
        "cross_references": []
      }
    },
    "exposure_assessment": {
      "vapor_pressure": {
        "original_name": "Vapor Pressure",
        "value": "0.000366 mm Hg",
        "links": [],
        "cross_references": []
      },
      "odor_threshold_low": {
        "original_name": "Odor Threshold Low",
        "value": "0.0071 ppm",
        "links": [],
        "cross_references": []
      },
      "odor_threshold_high": {
        "original_name": "Odor Threshold High",
        "value": "0.0128 ppm",
        "links": [],
        "cross_references": []
      },
      "explanatory_notes": {
        "original_name": "Explanatory Notes",
        "value": "Odor threshold (detection and recognition) from CHEMINFO;",
        "links": [],
        "cross_references": []
      }
    },
    "diseases_processes_and_activities_linked_to_this_agent": {
      "other_information": {
        "original_name": "Other Information",
        "value": "No other related information on this agent was found.",
        "links": [],
        "cross_references": []
      }
    }
  },
  "cross_references": [
    {
      "type": "name_match",
      "text": "nonane",
      "confidence": 1.0,
      "uuid": "fe0f019a-d093-4bb9-a7d3-2f2ceaf91953",
      "name": "Nonane",
      "url": "https://haz-map.com/Agents/578",
      "category": "agents"
    },
    {
      "type": "name_match",
      "text": "mica",
      "confidence": 1.0,
      "uuid": "433f26f1-c399-4596-b179-ce3843cfd465",
      "name": "Mica",
      "url": "https://haz-map.com/Agents/621",
      "category": "agents"
    },
    {
      "type": "name_match",
      "text": "capric acid",
      "confidence": 1.0,
      "uuid": "96eb96e2-85f6-4d9d-8ac7-e7f72580e035",
      "name": "Capric acid",
      "url": "https://haz-map.com/Agents/4193",
      "category": "agents"
    },
    {
      "type": "name_match",
      "text": "water",
      "confidence": 1.0,
      "uuid": "6f2a7557-dfd2-49bc-9b4b-a93cd8e225d4",
      "name": "Water",
      "url": "https://haz-map.com/Agents/18668",
      "category": "agents"
    },
    {
      "type": "fuzzy_match",
      "text": "crystalline",
      "matched_name": "Silica, crystalline",
      "confidence": 0.7061403508771931,
      "uuid": "f920e8a2-46df-41b7-af8d-0368a777251e",
      "category": "agents",
      "url": "https://haz-map.com/Agents/427"
    }
  ],
  "all_links": [
    {
      "text": "Search PubMed",
      "url": "https://www.ncbi.nlm.nih.gov/pubmed?term=Capric+acid%20AND%20human%5Bmh%5D%20AND%20%28Occupational%20Diseases%20%5Bmh%5D%20OR%20Occupational%20Exposure%20%5Bmh%5D%29%20%20AND%20%28tox%5Bsb%5D%29&cmd=search"
    }
  ]
}