{
  "metadata": {
    "scraped_from": "https://haz-map.com/Agents/5669",
    "entity_name": "Isoborneol",
    "category": "agents",
    "uuid": "971efbba-fdd4-470c-9149-6562198426f9",
    "scraped_at": "2025-07-23T19:54:45.917934"
  },
  "parsed_at": "2025-07-24T00:56:41.995212",
  "title": "Isoborneol",
  "sections": {
    "general": {
      "agent_name": {
        "original_name": "Agent Name",
        "value": "Isoborneol",
        "links": [],
        "cross_references": [
          {
            "type": "name_match",
            "text": "borneol",
            "confidence": 1.0,
            "uuid": "97282e41-118b-4373-9621-d9d230e06c38",
            "name": "Borneol",
            "url": "https://haz-map.com/Agents/3979",
            "category": "agents"
          },
          {
            "type": "name_match",
            "text": "isoborneol",
            "confidence": 1.0,
            "uuid": "971efbba-fdd4-470c-9149-6562198426f9",
            "name": "Isoborneol",
            "url": "https://haz-map.com/Agents/5669",
            "category": "agents"
          }
        ]
      },
      "cas_number": {
        "original_name": "CAS Number",
        "value": "124-76-5",
        "links": [],
        "cross_references": []
      },
      "formula": {
        "original_name": "Formula",
        "value": "C10-H18-O",
        "links": [],
        "cross_references": []
      },
      "major_category": {
        "original_name": "Major Category",
        "value": "Other Classes",
        "links": [],
        "cross_references": []
      },
      "synonyms": {
        "original_name": "Synonyms",
        "value": "1,7,7-Trimethylbicyclo(2.2.1)heptan-2-ol, exo-; 2-Bornanol, exo-; 2-Camphanol, exo-; 2-exo-Bornyl alcohol; Bicyclo(2.2.1)heptan-2-ol, 1,7,7-trimethyl-, exo-; Exoborneol; Isobornyl alcohol; Isocamphol; exo-2-Hydroxy-1,7,7-trimethylnorbornane; exo-1,7,7-Trimethylbicyclo(2.2.1)heptan-2-ol; [ChemIDplus]",
        "links": [],
        "cross_references": [
          {
            "type": "name_match",
            "text": "borneol",
            "confidence": 1.0,
            "uuid": "97282e41-118b-4373-9621-d9d230e06c38",
            "name": "Borneol",
            "url": "https://haz-map.com/Agents/3979",
            "category": "agents"
          }
        ]
      },
      "category": {
        "original_name": "Category",
        "value": "Alcohols and Polyols, Other",
        "links": [],
        "cross_references": []
      },
      "description": {
        "original_name": "Description",
        "value": "White solid; [Hawley]",
        "links": [],
        "cross_references": []
      },
      "sourcesuses": {
        "original_name": "Sources/Uses",
        "value": "Used as a synthetic flavor; In over-the-counter preparations containing <11% camphor, it has been used as a moth repellent, cold sore topical medication, muscle liniment, and steam-inhaled cough suppressant; [HSDB] Used in perfumes; [Hawley]",
        "links": [],
        "cross_references": [
          {
            "type": "name_match",
            "text": "cough",
            "confidence": 1.0,
            "uuid": "c18f3d8e-9c2e-4cef-ace6-8008147b34b1",
            "name": "cough",
            "url": "https://haz-map.com/Findings/4",
            "category": "findings"
          },
          {
            "type": "name_match",
            "text": "tea",
            "confidence": 1.0,
            "uuid": "773409e5-ac1a-4c9e-9470-9667ca82091c",
            "name": "Tea",
            "url": "https://haz-map.com/Agents/878",
            "category": "agents"
          },
          {
            "type": "name_match",
            "text": "moth",
            "confidence": 1.0,
            "uuid": "14a33a40-8ea5-4ef5-b71a-3731a9d4ba32",
            "name": "Moth",
            "url": "https://haz-map.com/Agents/907",
            "category": "agents"
          }
        ]
      },
      "comments": {
        "original_name": "Comments",
        "value": "Emergency treatment: \"Camphor\"; [HSDB] Safe when used as a flavoring agent in food; [JECFA] An irritant; [MSDSonline] See \"Camphor, synthetic.\"",
        "links": [],
        "cross_references": [
          {
            "type": "name_match",
            "text": "camphor, synthetic",
            "confidence": 1.0,
            "uuid": "038de6ee-b665-4b04-b190-4aa1c33cb59d",
            "name": "Camphor, synthetic",
            "url": "https://haz-map.com/Agents/338",
            "category": "agents"
          }
        ]
      },
      "biomedical_references": {
        "original_name": "Biomedical References",
        "value": "Search PubMed",
        "links": [
          {
            "text": "Search PubMed",
            "url": "https://www.ncbi.nlm.nih.gov/pubmed?term=Isoborneol%20AND%20human%5Bmh%5D%20AND%20%28Occupational%20Diseases%20%5Bmh%5D%20OR%20Occupational%20Exposure%20%5Bmh%5D%29%20%20AND%20%28tox%5Bsb%5D%29&cmd=search"
          }
        ],
        "cross_references": []
      }
    },
    "exposure_assessment": {
      "vapor_pressure": {
        "original_name": "Vapor Pressure",
        "value": "0.035 mm Hg",
        "links": [],
        "cross_references": []
      },
      "explanatory_notes": {
        "original_name": "Explanatory Notes",
        "value": "VP from ChemIDplus;",
        "links": [],
        "cross_references": []
      }
    },
    "adverse_effects": {
      "neurotoxin": {
        "original_name": "Neurotoxin",
        "value": "Other CNS neurotoxin",
        "links": [],
        "cross_references": []
      },
      "hepatotoxin": {
        "original_name": "Hepatotoxin",
        "value": "Hepatoxic (a) from occupational exposure (secondary effect) or (b) in animal studies or in humans after ingestion",
        "links": [],
        "cross_references": []
      }
    },
    "diseases_processes_and_activities_linked_to_this_agent": {
      "other_information": {
        "original_name": "Other Information",
        "value": "No other related information on this agent was found.",
        "links": [],
        "cross_references": []
      }
    }
  },
  "cross_references": [
    {
      "type": "name_match",
      "text": "cough",
      "confidence": 1.0,
      "uuid": "c18f3d8e-9c2e-4cef-ace6-8008147b34b1",
      "name": "cough",
      "url": "https://haz-map.com/Findings/4",
      "category": "findings"
    },
    {
      "type": "name_match",
      "text": "camphor, synthetic",
      "confidence": 1.0,
      "uuid": "038de6ee-b665-4b04-b190-4aa1c33cb59d",
      "name": "Camphor, synthetic",
      "url": "https://haz-map.com/Agents/338",
      "category": "agents"
    },
    {
      "type": "name_match",
      "text": "tea",
      "confidence": 1.0,
      "uuid": "773409e5-ac1a-4c9e-9470-9667ca82091c",
      "name": "Tea",
      "url": "https://haz-map.com/Agents/878",
      "category": "agents"
    },
    {
      "type": "name_match",
      "text": "moth",
      "confidence": 1.0,
      "uuid": "14a33a40-8ea5-4ef5-b71a-3731a9d4ba32",
      "name": "Moth",
      "url": "https://haz-map.com/Agents/907",
      "category": "agents"
    },
    {
      "type": "name_match",
      "text": "borneol",
      "confidence": 1.0,
      "uuid": "97282e41-118b-4373-9621-d9d230e06c38",
      "name": "Borneol",
      "url": "https://haz-map.com/Agents/3979",
      "category": "agents"
    },
    {
      "type": "name_match",
      "text": "isoborneol",
      "confidence": 1.0,
      "uuid": "971efbba-fdd4-470c-9149-6562198426f9",
      "name": "Isoborneol",
      "url": "https://haz-map.com/Agents/5669",
      "category": "agents"
    }
  ],
  "all_links": [
    {
      "text": "Search PubMed",
      "url": "https://www.ncbi.nlm.nih.gov/pubmed?term=Isoborneol%20AND%20human%5Bmh%5D%20AND%20%28Occupational%20Diseases%20%5Bmh%5D%20OR%20Occupational%20Exposure%20%5Bmh%5D%29%20%20AND%20%28tox%5Bsb%5D%29&cmd=search"
    }
  ]
}