{
  "metadata": {
    "scraped_from": "https://haz-map.com/Agents/19127",
    "entity_name": "(R)-beta-Citronellol",
    "category": "agents",
    "uuid": "97221226-5b55-457a-99c4-6e8dd5793098",
    "scraped_at": "2025-07-23T22:00:06.743469"
  },
  "parsed_at": "2025-07-24T01:10:25.777677",
  "title": "(R)-beta-Citronellol",
  "sections": {
    "general": {
      "agent_name": {
        "original_name": "Agent Name",
        "value": "(R)-beta-Citronellol",
        "links": [],
        "cross_references": [
          {
            "type": "name_match",
            "text": "citronellol",
            "confidence": 1.0,
            "uuid": "29807a78-69d0-4e7d-b8c4-e88aa3b00d54",
            "name": "Citronellol",
            "url": "https://haz-map.com/Agents/18996",
            "category": "agents"
          },
          {
            "type": "name_match",
            "text": "(r)-beta-citronellol",
            "confidence": 1.0,
            "uuid": "97221226-5b55-457a-99c4-6e8dd5793098",
            "name": "(R)-beta-Citronellol",
            "url": "https://haz-map.com/Agents/19127",
            "category": "agents"
          }
        ]
      },
      "cas_number": {
        "original_name": "CAS Number",
        "value": "1117-61-9",
        "links": [],
        "cross_references": []
      },
      "formula": {
        "original_name": "Formula",
        "value": "C10-H20-O",
        "links": [],
        "cross_references": []
      },
      "major_category": {
        "original_name": "Major Category",
        "value": "Biological Agents",
        "links": [],
        "cross_references": []
      },
      "synonyms": {
        "original_name": "Synonyms",
        "value": "beta-Citronellol, (R)-; D-Citronellol; (R)-3,7-Dimethyloct-6-en-1-ol; 6-Octen-1-ol, 3,7-dimethyl-, (3R)-; 6-Octen-1-ol, 3,7-dimethyl-, (R)-; 6-Octen-1-ol, 3,7-dimethyl-, (theta)-; [ChemIDplus] (+)-(R)-Citronellol; (+)-beta-Citronellol; [RTECS] (R)-(+)-beta-Citronellol; (R)-3,7-Dimethyl-6-octen-1-ol; [Sigma-Aldrich MSDS]",
        "links": [],
        "cross_references": [
          {
            "type": "name_match",
            "text": "citronellol",
            "confidence": 1.0,
            "uuid": "29807a78-69d0-4e7d-b8c4-e88aa3b00d54",
            "name": "Citronellol",
            "url": "https://haz-map.com/Agents/18996",
            "category": "agents"
          }
        ]
      },
      "category": {
        "original_name": "Category",
        "value": "Plant Oils and Extracts",
        "links": [],
        "cross_references": []
      },
      "description": {
        "original_name": "Description",
        "value": "Colorless viscous liquid; [Sigma-Aldrich MSDS]",
        "links": [],
        "cross_references": []
      },
      "comments": {
        "original_name": "Comments",
        "value": "May cause irritation; [Sigma-Aldrich MSDS] See \"Citronellol.\"",
        "links": [],
        "cross_references": [
          {
            "type": "name_match",
            "text": "citronellol",
            "confidence": 1.0,
            "uuid": "29807a78-69d0-4e7d-b8c4-e88aa3b00d54",
            "name": "Citronellol",
            "url": "https://haz-map.com/Agents/18996",
            "category": "agents"
          }
        ]
      },
      "biomedical_references": {
        "original_name": "Biomedical References",
        "value": "Search PubMed",
        "links": [
          {
            "text": "Search PubMed",
            "url": "https://www.ncbi.nlm.nih.gov/pubmed?term=(R)-beta-Citronellol%20AND%20human%5Bmh%5D%20AND%20%28Occupational%20Diseases%20%5Bmh%5D%20OR%20Occupational%20Exposure%20%5Bmh%5D%29%20%20AND%20%28tox%5Bsb%5D%29&cmd=search"
          }
        ],
        "cross_references": []
      }
    },
    "exposure_assessment": {
      "vapor_pressure": {
        "original_name": "Vapor Pressure",
        "value": "0.02 mm Hg",
        "links": [],
        "cross_references": []
      }
    },
    "diseases_processes_and_activities_linked_to_this_agent": {
      "other_information": {
        "original_name": "Other Information",
        "value": "No other related information on this agent was found.",
        "links": [],
        "cross_references": []
      }
    }
  },
  "cross_references": [
    {
      "type": "name_match",
      "text": "citronellol",
      "confidence": 1.0,
      "uuid": "29807a78-69d0-4e7d-b8c4-e88aa3b00d54",
      "name": "Citronellol",
      "url": "https://haz-map.com/Agents/18996",
      "category": "agents"
    },
    {
      "type": "name_match",
      "text": "(r)-beta-citronellol",
      "confidence": 1.0,
      "uuid": "97221226-5b55-457a-99c4-6e8dd5793098",
      "name": "(R)-beta-Citronellol",
      "url": "https://haz-map.com/Agents/19127",
      "category": "agents"
    }
  ],
  "all_links": [
    {
      "text": "Search PubMed",
      "url": "https://www.ncbi.nlm.nih.gov/pubmed?term=(R)-beta-Citronellol%20AND%20human%5Bmh%5D%20AND%20%28Occupational%20Diseases%20%5Bmh%5D%20OR%20Occupational%20Exposure%20%5Bmh%5D%29%20%20AND%20%28tox%5Bsb%5D%29&cmd=search"
    }
  ]
}