{
  "metadata": {
    "scraped_from": "https://haz-map.com/Agents/3979",
    "entity_name": "Borneol",
    "category": "agents",
    "uuid": "97282e41-118b-4373-9621-d9d230e06c38",
    "scraped_at": "2025-07-23T19:35:30.327501"
  },
  "parsed_at": "2025-07-24T01:14:20.147066",
  "title": "Borneol",
  "sections": {
    "general": {
      "agent_name": {
        "original_name": "Agent Name",
        "value": "Borneol",
        "links": [],
        "cross_references": [
          {
            "type": "name_match",
            "text": "borneol",
            "confidence": 1.0,
            "uuid": "97282e41-118b-4373-9621-d9d230e06c38",
            "name": "Borneol",
            "url": "https://haz-map.com/Agents/3979",
            "category": "agents"
          }
        ]
      },
      "cas_number": {
        "original_name": "CAS Number",
        "value": "507-70-0",
        "links": [],
        "cross_references": []
      },
      "formula": {
        "original_name": "Formula",
        "value": "C10-H18-O",
        "links": [],
        "cross_references": []
      },
      "major_category": {
        "original_name": "Major Category",
        "value": "Other Classes",
        "links": [],
        "cross_references": []
      },
      "synonyms": {
        "original_name": "Synonyms",
        "value": "1,7,7-Trimethyl-bicyclo(2.2.1)heptan-2-ol, endo-; 2-Bornanol, endo-; 2-Camphanol; 2-Hydroxy-1,7,7-trimethylnorbornane, endo-; 2-Hydroxybornane; 2-Hydroxycamphane; 2-endo-Bornyl alcohol; Baros; Baros camphor; Bhimsaim camphor; Bicyclo(2.2.1)heptan-2-ol, 1,7,7-trimethyl-, endo-; Borneo camphor; Borneocamphor; Bornyl alcohol; Camphane, 2-hydroxy-; Camphol; Dryobalanops camphor; Malayan camphor; Sumatra camphor; trans-Borneol; [ChemIDplus] UN1312",
        "links": [],
        "cross_references": [
          {
            "type": "name_match",
            "text": "borneol",
            "confidence": 1.0,
            "uuid": "97282e41-118b-4373-9621-d9d230e06c38",
            "name": "Borneol",
            "url": "https://haz-map.com/Agents/3979",
            "category": "agents"
          }
        ]
      },
      "category": {
        "original_name": "Category",
        "value": "Alcohols and Polyols, Other",
        "links": [],
        "cross_references": []
      },
      "description": {
        "original_name": "Description",
        "value": "White translucent solid; [Hawley]",
        "links": [],
        "cross_references": []
      },
      "sourcesuses": {
        "original_name": "Sources/Uses",
        "value": "Used in the manufacture of its esters. in perfumery and incense, and as a food flavoring agent; [HSDB]",
        "links": [],
        "cross_references": []
      },
      "comments": {
        "original_name": "Comments",
        "value": "Emergency treatment: \"Camphor\"; [HSDB] May cause burns to skin and eyes; [CAMEO] Safe when used as a flavoring agent in food; [JECFA] See \"Camphor, synthetic.\" See \"(-)-Borneol.\"",
        "links": [],
        "cross_references": [
          {
            "type": "name_match",
            "text": "burn",
            "confidence": 1.0,
            "uuid": "63665de5-6376-4918-8dbf-4c10c4d63837",
            "name": "burn",
            "url": "https://haz-map.com/Findings/204",
            "category": "findings"
          },
          {
            "type": "name_match",
            "text": "camphor, synthetic",
            "confidence": 1.0,
            "uuid": "038de6ee-b665-4b04-b190-4aa1c33cb59d",
            "name": "Camphor, synthetic",
            "url": "https://haz-map.com/Agents/338",
            "category": "agents"
          },
          {
            "type": "name_match",
            "text": "borneol",
            "confidence": 1.0,
            "uuid": "97282e41-118b-4373-9621-d9d230e06c38",
            "name": "Borneol",
            "url": "https://haz-map.com/Agents/3979",
            "category": "agents"
          },
          {
            "type": "name_match",
            "text": "(-)-borneol",
            "confidence": 1.0,
            "uuid": "16e34bfc-50db-4cad-b0bf-bd217796d8c4",
            "name": "(-)-Borneol",
            "url": "https://haz-map.com/Agents/10976",
            "category": "agents"
          }
        ]
      },
      "biomedical_references": {
        "original_name": "Biomedical References",
        "value": "Search PubMed",
        "links": [
          {
            "text": "Search PubMed",
            "url": "https://www.ncbi.nlm.nih.gov/pubmed?term=Borneol%20AND%20human%5Bmh%5D%20AND%20%28Occupational%20Diseases%20%5Bmh%5D%20OR%20Occupational%20Exposure%20%5Bmh%5D%29%20%20AND%20%28tox%5Bsb%5D%29&cmd=search"
          }
        ],
        "cross_references": []
      }
    },
    "exposure_assessment": {
      "vapor_pressure": {
        "original_name": "Vapor Pressure",
        "value": "0.035 mm Hg",
        "links": [],
        "cross_references": []
      },
      "explanatory_notes": {
        "original_name": "Explanatory Notes",
        "value": "VP from ChemIDplus;",
        "links": [],
        "cross_references": []
      },
      "nfpa": {
        "original_name": "NFPA",
        "value": "high ambient temp required",
        "links": [],
        "cross_references": []
      }
    },
    "adverse_effects": {
      "neurotoxin": {
        "original_name": "Neurotoxin",
        "value": "Other CNS neurotoxin",
        "links": [],
        "cross_references": []
      },
      "hepatotoxin": {
        "original_name": "Hepatotoxin",
        "value": "Hepatoxic (a) from occupational exposure (secondary effect) or (b) in animal studies or in humans after ingestion",
        "links": [],
        "cross_references": []
      }
    },
    "diseases_processes_and_activities_linked_to_this_agent": {
      "other_information": {
        "original_name": "Other Information",
        "value": "No other related information on this agent was found.",
        "links": [],
        "cross_references": []
      }
    }
  },
  "cross_references": [
    {
      "type": "name_match",
      "text": "burn",
      "confidence": 1.0,
      "uuid": "63665de5-6376-4918-8dbf-4c10c4d63837",
      "name": "burn",
      "url": "https://haz-map.com/Findings/204",
      "category": "findings"
    },
    {
      "type": "name_match",
      "text": "camphor, synthetic",
      "confidence": 1.0,
      "uuid": "038de6ee-b665-4b04-b190-4aa1c33cb59d",
      "name": "Camphor, synthetic",
      "url": "https://haz-map.com/Agents/338",
      "category": "agents"
    },
    {
      "type": "name_match",
      "text": "borneol",
      "confidence": 1.0,
      "uuid": "97282e41-118b-4373-9621-d9d230e06c38",
      "name": "Borneol",
      "url": "https://haz-map.com/Agents/3979",
      "category": "agents"
    },
    {
      "type": "name_match",
      "text": "(-)-borneol",
      "confidence": 1.0,
      "uuid": "16e34bfc-50db-4cad-b0bf-bd217796d8c4",
      "name": "(-)-Borneol",
      "url": "https://haz-map.com/Agents/10976",
      "category": "agents"
    }
  ],
  "all_links": [
    {
      "text": "Search PubMed",
      "url": "https://www.ncbi.nlm.nih.gov/pubmed?term=Borneol%20AND%20human%5Bmh%5D%20AND%20%28Occupational%20Diseases%20%5Bmh%5D%20OR%20Occupational%20Exposure%20%5Bmh%5D%29%20%20AND%20%28tox%5Bsb%5D%29&cmd=search"
    }
  ]
}