{
  "metadata": {
    "scraped_from": "https://haz-map.com/Agents/19595",
    "entity_name": "2-Ethyl-1-butene",
    "category": "agents",
    "uuid": "972caa0e-7a35-4562-8514-7f7c2cca61d1",
    "scraped_at": "2025-07-23T22:09:09.797827"
  },
  "parsed_at": "2025-07-24T01:11:42.853896",
  "title": "2-Ethyl-1-butene",
  "sections": {
    "general": {
      "agent_name": {
        "original_name": "Agent Name",
        "value": "2-Ethyl-1-butene",
        "links": [],
        "cross_references": [
          {
            "type": "name_match",
            "text": "2-ethyl-1-butene",
            "confidence": 1.0,
            "uuid": "972caa0e-7a35-4562-8514-7f7c2cca61d1",
            "name": "2-Ethyl-1-butene",
            "url": "https://haz-map.com/Agents/19595",
            "category": "agents"
          }
        ]
      },
      "cas_number": {
        "original_name": "CAS Number",
        "value": "760-21-4",
        "links": [],
        "cross_references": []
      },
      "formula": {
        "original_name": "Formula",
        "value": "C6-H12",
        "links": [],
        "cross_references": []
      },
      "major_category": {
        "original_name": "Major Category",
        "value": "Other Classes",
        "links": [],
        "cross_references": []
      },
      "synonyms": {
        "original_name": "Synonyms",
        "value": "3-Methylenepentane; 1-Butene, 2-ethyl- (8CI); 2-Ethylbut-1-ene; Pentane, 3-methylene-; [ChemIDplus] UN3295",
        "links": [],
        "cross_references": [
          {
            "type": "name_match",
            "text": "ethylene",
            "confidence": 1.0,
            "uuid": "958eacc0-5135-4b62-bb93-6df972bf552f",
            "name": "Ethylene",
            "url": "https://haz-map.com/Agents/1076",
            "category": "agents"
          }
        ]
      },
      "category": {
        "original_name": "Category",
        "value": "Aliphatics, Unsaturated",
        "links": [],
        "cross_references": []
      },
      "description": {
        "original_name": "Description",
        "value": "Colorless liquid; [Sigma-Aldrich MSDS]",
        "links": [],
        "cross_references": []
      },
      "comments": {
        "original_name": "Comments",
        "value": "May cause irritation and skin sensitization; [Sigma-Aldrich MSDS] Search for (760-21-4[EC/RN Number]) AND (sensitizer OR sensitization OR dermatitis OR allergic): no results; [PubMed] See \"3,3-Dimethyl-1-butene,\" \"2,3-Dimethyl-1-butene,\" \"3-Methyl-1-butene,\" \"2-Methyl-1-butene,\" and \"Butene, all isomers.\"",
        "links": [],
        "cross_references": [
          {
            "type": "name_match",
            "text": "dermatitis",
            "confidence": 1.0,
            "uuid": "fe9c05f2-b19f-4ceb-ac7a-ffb7d7a0cae0",
            "name": "dermatitis",
            "url": "https://haz-map.com/Findings/59",
            "category": "findings"
          },
          {
            "type": "name_match",
            "text": "butene, all isomers",
            "confidence": 1.0,
            "uuid": "3d8b9b36-5cca-4c28-aa7b-2b2ed01cb64a",
            "name": "Butene, all isomers",
            "url": "https://haz-map.com/Agents/2855",
            "category": "agents"
          },
          {
            "type": "name_match",
            "text": "2-methyl-1-butene",
            "confidence": 1.0,
            "uuid": "63d2e314-2103-4901-b05e-ba07ac6ad3b8",
            "name": "2-Methyl-1-butene",
            "url": "https://haz-map.com/Agents/3127",
            "category": "agents"
          },
          {
            "type": "name_match",
            "text": "3-methyl-1-butene",
            "confidence": 1.0,
            "uuid": "955932b6-2bad-4042-9071-ed8efdaa518c",
            "name": "3-Methyl-1-butene",
            "url": "https://haz-map.com/Agents/3235",
            "category": "agents"
          },
          {
            "type": "name_match",
            "text": "2,3-dimethyl-1-butene",
            "confidence": 1.0,
            "uuid": "16c55abd-04d4-475c-b433-09d7a5cb9f23",
            "name": "2,3-Dimethyl-1-butene",
            "url": "https://haz-map.com/Agents/10133",
            "category": "agents"
          },
          {
            "type": "name_match",
            "text": "3,3-dimethyl-1-butene",
            "confidence": 1.0,
            "uuid": "46dad235-d8c0-49cb-98c3-6705fb5892ed",
            "name": "3,3-Dimethyl-1-butene",
            "url": "https://haz-map.com/Agents/10135",
            "category": "agents"
          }
        ]
      },
      "biomedical_references": {
        "original_name": "Biomedical References",
        "value": "Search PubMed",
        "links": [
          {
            "text": "Search PubMed",
            "url": "https://www.ncbi.nlm.nih.gov/pubmed?term=2-Ethyl-1-butene%20AND%20human%5Bmh%5D%20AND%20%28Occupational%20Diseases%20%5Bmh%5D%20OR%20Occupational%20Exposure%20%5Bmh%5D%29%20%20AND%20%28tox%5Bsb%5D%29&cmd=search"
          }
        ],
        "cross_references": []
      }
    },
    "exposure_assessment": {
      "vapor_pressure": {
        "original_name": "Vapor Pressure",
        "value": "175 mm Hg",
        "links": [],
        "cross_references": []
      },
      "explanatory_notes": {
        "original_name": "Explanatory Notes",
        "value": "The Guide in the Emergency Response Guidebook is for \"Hydrocarbons, liquid, n.o.s.\"",
        "links": [],
        "cross_references": [
          {
            "type": "name_match",
            "text": "carbon",
            "confidence": 1.0,
            "uuid": "b53f8815-ee80-40ef-b4aa-3b000e17dab5",
            "name": "Carbon",
            "url": "https://haz-map.com/Agents/1891",
            "category": "agents"
          },
          {
            "type": "fuzzy_match",
            "text": "hydrocarbons",
            "matched_name": "Hydrocarbons, C>3",
            "confidence": 0.7100840336134454,
            "uuid": "8eaa37ac-3931-44e4-9242-2734127fd661",
            "category": "agents",
            "url": "https://haz-map.com/Agents/14795"
          }
        ]
      },
      "nfpa": {
        "original_name": "NFPA",
        "value": "may ignite at ambient temp",
        "links": [],
        "cross_references": []
      }
    },
    "adverse_effects": {
      "neurotoxin": {
        "original_name": "Neurotoxin",
        "value": "Acute solvent syndrome",
        "links": [],
        "cross_references": []
      }
    },
    "diseases_processes_and_activities_linked_to_this_agent": {
      "diseases": {
        "original_name": "Diseases",
        "value": "Occupational diseases associated with exposure to this agent: Solvents, acute toxic effect",
        "links": [
          {
            "text": "Solvents, acute toxic effect",
            "url": "https://haz-map.com/Diseases/326"
          }
        ],
        "cross_references": [
          {
            "type": "url_match",
            "text": "Solvents, acute toxic effect",
            "url": "https://haz-map.com/Diseases/326",
            "confidence": 1.0,
            "uuid": "581e90e3-9d0c-45f0-aa6c-3468c28da129",
            "name": "Solvents, acute toxic effect",
            "category": "diseases"
          }
        ]
      }
    }
  },
  "cross_references": [
    {
      "type": "url_match",
      "text": "Solvents, acute toxic effect",
      "url": "https://haz-map.com/Diseases/326",
      "confidence": 1.0,
      "uuid": "581e90e3-9d0c-45f0-aa6c-3468c28da129",
      "name": "Solvents, acute toxic effect",
      "category": "diseases"
    },
    {
      "type": "name_match",
      "text": "dermatitis",
      "confidence": 1.0,
      "uuid": "fe9c05f2-b19f-4ceb-ac7a-ffb7d7a0cae0",
      "name": "dermatitis",
      "url": "https://haz-map.com/Findings/59",
      "category": "findings"
    },
    {
      "type": "name_match",
      "text": "ethylene",
      "confidence": 1.0,
      "uuid": "958eacc0-5135-4b62-bb93-6df972bf552f",
      "name": "Ethylene",
      "url": "https://haz-map.com/Agents/1076",
      "category": "agents"
    },
    {
      "type": "name_match",
      "text": "carbon",
      "confidence": 1.0,
      "uuid": "b53f8815-ee80-40ef-b4aa-3b000e17dab5",
      "name": "Carbon",
      "url": "https://haz-map.com/Agents/1891",
      "category": "agents"
    },
    {
      "type": "name_match",
      "text": "butene, all isomers",
      "confidence": 1.0,
      "uuid": "3d8b9b36-5cca-4c28-aa7b-2b2ed01cb64a",
      "name": "Butene, all isomers",
      "url": "https://haz-map.com/Agents/2855",
      "category": "agents"
    },
    {
      "type": "name_match",
      "text": "2-methyl-1-butene",
      "confidence": 1.0,
      "uuid": "63d2e314-2103-4901-b05e-ba07ac6ad3b8",
      "name": "2-Methyl-1-butene",
      "url": "https://haz-map.com/Agents/3127",
      "category": "agents"
    },
    {
      "type": "name_match",
      "text": "3-methyl-1-butene",
      "confidence": 1.0,
      "uuid": "955932b6-2bad-4042-9071-ed8efdaa518c",
      "name": "3-Methyl-1-butene",
      "url": "https://haz-map.com/Agents/3235",
      "category": "agents"
    },
    {
      "type": "name_match",
      "text": "2,3-dimethyl-1-butene",
      "confidence": 1.0,
      "uuid": "16c55abd-04d4-475c-b433-09d7a5cb9f23",
      "name": "2,3-Dimethyl-1-butene",
      "url": "https://haz-map.com/Agents/10133",
      "category": "agents"
    },
    {
      "type": "name_match",
      "text": "3,3-dimethyl-1-butene",
      "confidence": 1.0,
      "uuid": "46dad235-d8c0-49cb-98c3-6705fb5892ed",
      "name": "3,3-Dimethyl-1-butene",
      "url": "https://haz-map.com/Agents/10135",
      "category": "agents"
    },
    {
      "type": "name_match",
      "text": "2-ethyl-1-butene",
      "confidence": 1.0,
      "uuid": "972caa0e-7a35-4562-8514-7f7c2cca61d1",
      "name": "2-Ethyl-1-butene",
      "url": "https://haz-map.com/Agents/19595",
      "category": "agents"
    },
    {
      "type": "fuzzy_match",
      "text": "hydrocarbons",
      "matched_name": "Hydrocarbons, C>3",
      "confidence": 0.7100840336134454,
      "uuid": "8eaa37ac-3931-44e4-9242-2734127fd661",
      "category": "agents",
      "url": "https://haz-map.com/Agents/14795"
    }
  ],
  "all_links": [
    {
      "text": "Search PubMed",
      "url": "https://www.ncbi.nlm.nih.gov/pubmed?term=2-Ethyl-1-butene%20AND%20human%5Bmh%5D%20AND%20%28Occupational%20Diseases%20%5Bmh%5D%20OR%20Occupational%20Exposure%20%5Bmh%5D%29%20%20AND%20%28tox%5Bsb%5D%29&cmd=search"
    },
    {
      "text": "Solvents, acute toxic effect",
      "url": "https://haz-map.com/Diseases/326"
    }
  ]
}