{
  "metadata": {
    "scraped_from": "https://haz-map.com/Agents/3206",
    "entity_name": "3,5-Dichloroaniline",
    "category": "agents",
    "uuid": "975e5323-caf3-4320-998d-7a36806b3812",
    "scraped_at": "2025-07-23T19:25:41.395280"
  },
  "parsed_at": "2025-07-24T01:15:44.413527",
  "title": "3,5-Dichloroaniline",
  "sections": {
    "general": {
      "agent_name": {
        "original_name": "Agent Name",
        "value": "3,5-Dichloroaniline",
        "links": [],
        "cross_references": [
          {
            "type": "name_match",
            "text": "aniline",
            "confidence": 1.0,
            "uuid": "e4932692-8d9c-4a98-8c5c-81e55b12aedf",
            "name": "Aniline",
            "url": "https://haz-map.com/Agents/296",
            "category": "agents"
          },
          {
            "type": "name_match",
            "text": "3,5-dichloroaniline",
            "confidence": 1.0,
            "uuid": "975e5323-caf3-4320-998d-7a36806b3812",
            "name": "3,5-Dichloroaniline",
            "url": "https://haz-map.com/Agents/3206",
            "category": "agents"
          },
          {
            "type": "fuzzy_match",
            "text": "5-dichloroaniline",
            "matched_name": "2,5-Dichloroaniline",
            "confidence": 0.8759398496240601,
            "uuid": "0ba8737e-275f-4a23-b209-a5a95b049e4d",
            "category": "agents",
            "url": "https://haz-map.com/Agents/3022"
          }
        ]
      },
      "cas_number": {
        "original_name": "CAS Number",
        "value": "626-43-7",
        "links": [],
        "cross_references": []
      },
      "formula": {
        "original_name": "Formula",
        "value": "C6-H5-Cl2-N",
        "links": [],
        "cross_references": []
      },
      "major_category": {
        "original_name": "Major Category",
        "value": "Nitrogen Compounds",
        "links": [],
        "cross_references": [
          {
            "type": "name_match",
            "text": "nitrogen",
            "confidence": 1.0,
            "uuid": "db5e90a9-06d2-45b9-8b81-f345a89b0bc0",
            "name": "Nitrogen",
            "url": "https://haz-map.com/Agents/1072",
            "category": "agents"
          }
        ]
      },
      "synonyms": {
        "original_name": "Synonyms",
        "value": "Aniline, 3,5-dichloro-; Benzenamine, 3,5-dichloro-; [ChemIDplus] UN1590; UN3442",
        "links": [],
        "cross_references": [
          {
            "type": "name_match",
            "text": "aniline",
            "confidence": 1.0,
            "uuid": "e4932692-8d9c-4a98-8c5c-81e55b12aedf",
            "name": "Aniline",
            "url": "https://haz-map.com/Agents/296",
            "category": "agents"
          }
        ]
      },
      "category": {
        "original_name": "Category",
        "value": "Amines, Aromatic",
        "links": [],
        "cross_references": []
      },
      "description": {
        "original_name": "Description",
        "value": "Solid; [HSDB] White crystalline solid; [MSDSonline]",
        "links": [],
        "cross_references": [
          {
            "type": "fuzzy_match",
            "text": "crystalline",
            "matched_name": "Silica, crystalline",
            "confidence": 0.7061403508771931,
            "uuid": "f920e8a2-46df-41b7-af8d-0368a777251e",
            "category": "agents",
            "url": "https://haz-map.com/Agents/427"
          }
        ]
      },
      "sourcesuses": {
        "original_name": "Sources/Uses",
        "value": "Used in the production of fungicides (vinclozolin and iprodione), dyes, and pharmaceuticals; [HSDB]",
        "links": [],
        "cross_references": [
          {
            "type": "name_match",
            "text": "fungicides",
            "confidence": 1.0,
            "uuid": "f4a9c1e1-4d57-4480-be97-d3590d38ce39",
            "name": "FUNGICIDES",
            "url": "https://haz-map.com/Agents/763",
            "category": "agents"
          },
          {
            "type": "name_match",
            "text": "pharmaceuticals",
            "confidence": 1.0,
            "uuid": "713c3c30-b67e-4a2f-a90f-b32f8a306332",
            "name": "PHARMACEUTICALS",
            "url": "https://haz-map.com/Agents/1000",
            "category": "agents"
          },
          {
            "type": "name_match",
            "text": "fungi",
            "confidence": 1.0,
            "uuid": "e0d489cb-bfee-4aee-b665-999c017268a2",
            "name": "Fungi",
            "url": "https://haz-map.com/Agents/1988",
            "category": "agents"
          },
          {
            "type": "name_match",
            "text": "iprodione",
            "confidence": 1.0,
            "uuid": "311912a8-3d5b-4066-8b7c-03ef10b89c7b",
            "name": "Iprodione",
            "url": "https://haz-map.com/Agents/5647",
            "category": "agents"
          },
          {
            "type": "name_match",
            "text": "vinclozolin",
            "confidence": 1.0,
            "uuid": "54c6d7cb-b131-4aff-b9d0-3d6c7ff0ef65",
            "name": "Vinclozolin",
            "url": "https://haz-map.com/Agents/7727",
            "category": "agents"
          }
        ]
      },
      "comments": {
        "original_name": "Comments",
        "value": "Emergency treatment: Methemoglobinemia; The dichloroanilines cause evidence of kidney damage (proteinuria, hematuria, and elevated blood urea nitrogen) at 0.8 mmol/kg given intraperitoneally to rats; [HSDB] An irritant; May induce methemoglobinemia; May be absorbed through skin; [MSDSonline] See \"3,4-Dichloroaniline.\"",
        "links": [],
        "cross_references": [
          {
            "type": "name_match",
            "text": "hematuria",
            "confidence": 1.0,
            "uuid": "70ebc052-1f06-40b0-96ce-573e17554dc8",
            "name": "hematuria",
            "url": "https://haz-map.com/Findings/77",
            "category": "findings"
          },
          {
            "type": "name_match",
            "text": "proteinuria",
            "confidence": 1.0,
            "uuid": "bb0ad01f-a677-491a-bcaa-73b9314b919a",
            "name": "proteinuria",
            "url": "https://haz-map.com/Findings/79",
            "category": "findings"
          },
          {
            "type": "name_match",
            "text": "aniline",
            "confidence": 1.0,
            "uuid": "e4932692-8d9c-4a98-8c5c-81e55b12aedf",
            "name": "Aniline",
            "url": "https://haz-map.com/Agents/296",
            "category": "agents"
          },
          {
            "type": "name_match",
            "text": "nitrogen",
            "confidence": 1.0,
            "uuid": "db5e90a9-06d2-45b9-8b81-f345a89b0bc0",
            "name": "Nitrogen",
            "url": "https://haz-map.com/Agents/1072",
            "category": "agents"
          },
          {
            "type": "name_match",
            "text": "urea",
            "confidence": 1.0,
            "uuid": "a92a6129-bddd-4f79-9a78-136812ae610f",
            "name": "Urea",
            "url": "https://haz-map.com/Agents/2078",
            "category": "agents"
          },
          {
            "type": "name_match",
            "text": "3,4-dichloroaniline",
            "confidence": 1.0,
            "uuid": "d78473c0-e188-4916-b912-4830655ba04f",
            "name": "3,4-Dichloroaniline",
            "url": "https://haz-map.com/Agents/3194",
            "category": "agents"
          },
          {
            "type": "name_match",
            "text": "methemoglobin",
            "confidence": 1.0,
            "uuid": "afb7ebf5-d2a3-4e60-8d2e-3a19456344ee",
            "name": "Methemoglobin",
            "url": "https://haz-map.com/Agents/15467",
            "category": "agents"
          },
          {
            "type": "fuzzy_match",
            "text": "methemoglobinemia",
            "matched_name": "Methemoglobinemia, acute",
            "confidence": 0.7208333333333333,
            "uuid": "473a44bd-cf11-4710-a769-e8e2b25ba317",
            "category": "diseases",
            "url": "https://haz-map.com/Diseases/210"
          }
        ]
      },
      "biomedical_references": {
        "original_name": "Biomedical References",
        "value": "Search PubMed",
        "links": [
          {
            "text": "Search PubMed",
            "url": "https://www.ncbi.nlm.nih.gov/pubmed?term=3%2c5-Dichloroaniline%20AND%20human%5Bmh%5D%20AND%20%28Occupational%20Diseases%20%5Bmh%5D%20OR%20Occupational%20Exposure%20%5Bmh%5D%29%20%20AND%20%28tox%5Bsb%5D%29&cmd=search"
          }
        ],
        "cross_references": []
      }
    },
    "exposure_assessment": {
      "vapor_pressure": {
        "original_name": "Vapor Pressure",
        "value": "0.021 mm Hg",
        "links": [],
        "cross_references": []
      },
      "explanatory_notes": {
        "original_name": "Explanatory Notes",
        "value": "The Guide in the Emergency Response Guidebook is for \"Dichloroanilines, solid.\" VP from ChemIDplus;",
        "links": [],
        "cross_references": [
          {
            "type": "name_match",
            "text": "aniline",
            "confidence": 1.0,
            "uuid": "e4932692-8d9c-4a98-8c5c-81e55b12aedf",
            "name": "Aniline",
            "url": "https://haz-map.com/Agents/296",
            "category": "agents"
          }
        ]
      }
    },
    "adverse_effects": {
      "methemoglobinemia": {
        "original_name": "Methemoglobinemia",
        "value": "MetHgb is secondary toxic effect",
        "links": [],
        "cross_references": []
      },
      "hepatotoxin": {
        "original_name": "Hepatotoxin",
        "value": "Hepatoxic (a) from occupational exposure (secondary effect) or (b) in animal studies or in humans after ingestion",
        "links": [],
        "cross_references": []
      }
    },
    "diseases_processes_and_activities_linked_to_this_agent": {
      "other_information": {
        "original_name": "Other Information",
        "value": "No other related information on this agent was found.",
        "links": [],
        "cross_references": []
      }
    }
  },
  "cross_references": [
    {
      "type": "name_match",
      "text": "hematuria",
      "confidence": 1.0,
      "uuid": "70ebc052-1f06-40b0-96ce-573e17554dc8",
      "name": "hematuria",
      "url": "https://haz-map.com/Findings/77",
      "category": "findings"
    },
    {
      "type": "name_match",
      "text": "proteinuria",
      "confidence": 1.0,
      "uuid": "bb0ad01f-a677-491a-bcaa-73b9314b919a",
      "name": "proteinuria",
      "url": "https://haz-map.com/Findings/79",
      "category": "findings"
    },
    {
      "type": "name_match",
      "text": "aniline",
      "confidence": 1.0,
      "uuid": "e4932692-8d9c-4a98-8c5c-81e55b12aedf",
      "name": "Aniline",
      "url": "https://haz-map.com/Agents/296",
      "category": "agents"
    },
    {
      "type": "name_match",
      "text": "fungicides",
      "confidence": 1.0,
      "uuid": "f4a9c1e1-4d57-4480-be97-d3590d38ce39",
      "name": "FUNGICIDES",
      "url": "https://haz-map.com/Agents/763",
      "category": "agents"
    },
    {
      "type": "name_match",
      "text": "pharmaceuticals",
      "confidence": 1.0,
      "uuid": "713c3c30-b67e-4a2f-a90f-b32f8a306332",
      "name": "PHARMACEUTICALS",
      "url": "https://haz-map.com/Agents/1000",
      "category": "agents"
    },
    {
      "type": "name_match",
      "text": "nitrogen",
      "confidence": 1.0,
      "uuid": "db5e90a9-06d2-45b9-8b81-f345a89b0bc0",
      "name": "Nitrogen",
      "url": "https://haz-map.com/Agents/1072",
      "category": "agents"
    },
    {
      "type": "name_match",
      "text": "fungi",
      "confidence": 1.0,
      "uuid": "e0d489cb-bfee-4aee-b665-999c017268a2",
      "name": "Fungi",
      "url": "https://haz-map.com/Agents/1988",
      "category": "agents"
    },
    {
      "type": "name_match",
      "text": "urea",
      "confidence": 1.0,
      "uuid": "a92a6129-bddd-4f79-9a78-136812ae610f",
      "name": "Urea",
      "url": "https://haz-map.com/Agents/2078",
      "category": "agents"
    },
    {
      "type": "name_match",
      "text": "3,4-dichloroaniline",
      "confidence": 1.0,
      "uuid": "d78473c0-e188-4916-b912-4830655ba04f",
      "name": "3,4-Dichloroaniline",
      "url": "https://haz-map.com/Agents/3194",
      "category": "agents"
    },
    {
      "type": "name_match",
      "text": "3,5-dichloroaniline",
      "confidence": 1.0,
      "uuid": "975e5323-caf3-4320-998d-7a36806b3812",
      "name": "3,5-Dichloroaniline",
      "url": "https://haz-map.com/Agents/3206",
      "category": "agents"
    },
    {
      "type": "name_match",
      "text": "iprodione",
      "confidence": 1.0,
      "uuid": "311912a8-3d5b-4066-8b7c-03ef10b89c7b",
      "name": "Iprodione",
      "url": "https://haz-map.com/Agents/5647",
      "category": "agents"
    },
    {
      "type": "name_match",
      "text": "vinclozolin",
      "confidence": 1.0,
      "uuid": "54c6d7cb-b131-4aff-b9d0-3d6c7ff0ef65",
      "name": "Vinclozolin",
      "url": "https://haz-map.com/Agents/7727",
      "category": "agents"
    },
    {
      "type": "name_match",
      "text": "methemoglobin",
      "confidence": 1.0,
      "uuid": "afb7ebf5-d2a3-4e60-8d2e-3a19456344ee",
      "name": "Methemoglobin",
      "url": "https://haz-map.com/Agents/15467",
      "category": "agents"
    },
    {
      "type": "fuzzy_match",
      "text": "5-dichloroaniline",
      "matched_name": "2,5-Dichloroaniline",
      "confidence": 0.8759398496240601,
      "uuid": "0ba8737e-275f-4a23-b209-a5a95b049e4d",
      "category": "agents",
      "url": "https://haz-map.com/Agents/3022"
    },
    {
      "type": "fuzzy_match",
      "text": "methemoglobinemia",
      "matched_name": "Methemoglobinemia, acute",
      "confidence": 0.7208333333333333,
      "uuid": "473a44bd-cf11-4710-a769-e8e2b25ba317",
      "category": "diseases",
      "url": "https://haz-map.com/Diseases/210"
    },
    {
      "type": "fuzzy_match",
      "text": "crystalline",
      "matched_name": "Silica, crystalline",
      "confidence": 0.7061403508771931,
      "uuid": "f920e8a2-46df-41b7-af8d-0368a777251e",
      "category": "agents",
      "url": "https://haz-map.com/Agents/427"
    }
  ],
  "all_links": [
    {
      "text": "Search PubMed",
      "url": "https://www.ncbi.nlm.nih.gov/pubmed?term=3%2c5-Dichloroaniline%20AND%20human%5Bmh%5D%20AND%20%28Occupational%20Diseases%20%5Bmh%5D%20OR%20Occupational%20Exposure%20%5Bmh%5D%29%20%20AND%20%28tox%5Bsb%5D%29&cmd=search"
    }
  ]
}