{
  "metadata": {
    "scraped_from": "https://haz-map.com/Agents/21289",
    "entity_name": "1-Nitroso-3-pipecoline",
    "category": "agents",
    "uuid": "9766d66f-11ab-4475-be2d-9a1b6da7554a",
    "scraped_at": "2025-07-23T22:41:03.809216"
  },
  "parsed_at": "2025-07-24T01:16:21.438772",
  "title": "1-Nitroso-3-pipecoline",
  "sections": {
    "general": {
      "agent_name": {
        "original_name": "Agent Name",
        "value": "1-Nitroso-3-pipecoline",
        "links": [],
        "cross_references": [
          {
            "type": "name_match",
            "text": "1-nitroso-3-pipecoline",
            "confidence": 1.0,
            "uuid": "9766d66f-11ab-4475-be2d-9a1b6da7554a",
            "name": "1-Nitroso-3-pipecoline",
            "url": "https://haz-map.com/Agents/21289",
            "category": "agents"
          }
        ]
      },
      "cas_number": {
        "original_name": "CAS Number",
        "value": "13603-07-1",
        "links": [],
        "cross_references": []
      },
      "formula": {
        "original_name": "Formula",
        "value": "C6-H12-N2-O",
        "links": [],
        "cross_references": []
      },
      "major_category": {
        "original_name": "Major Category",
        "value": "Nitrogen Compounds",
        "links": [],
        "cross_references": [
          {
            "type": "name_match",
            "text": "nitrogen",
            "confidence": 1.0,
            "uuid": "db5e90a9-06d2-45b9-8b81-f345a89b0bc0",
            "name": "Nitrogen",
            "url": "https://haz-map.com/Agents/1072",
            "category": "agents"
          }
        ]
      },
      "synonyms": {
        "original_name": "Synonyms",
        "value": "3-Methylnitrosopiperidine; 3-Pipecoline, 1-nitroso-; [ChemIDplus]",
        "links": [],
        "cross_references": [
          {
            "type": "name_match",
            "text": "piperidine",
            "confidence": 1.0,
            "uuid": "622e458e-e32f-4d3a-80d2-7455291a8a04",
            "name": "Piperidine",
            "url": "https://haz-map.com/Agents/1427",
            "category": "agents"
          }
        ]
      },
      "category": {
        "original_name": "Category",
        "value": "Nitrosamines",
        "links": [],
        "cross_references": [
          {
            "type": "name_match",
            "text": "nitrosamines",
            "confidence": 1.0,
            "uuid": "71647706-f82f-4f7a-a1ad-2500c04c2ac0",
            "name": "NITROSAMINES",
            "url": "https://haz-map.com/Agents/767",
            "category": "agents"
          }
        ]
      },
      "comments": {
        "original_name": "Comments",
        "value": "See \"NITROSAMINES.\" See \"N-Nitrosopyrrolidine\" and \"N-Nitrosopiperidine.\"",
        "links": [],
        "cross_references": [
          {
            "type": "name_match",
            "text": "nitrosamines",
            "confidence": 1.0,
            "uuid": "71647706-f82f-4f7a-a1ad-2500c04c2ac0",
            "name": "NITROSAMINES",
            "url": "https://haz-map.com/Agents/767",
            "category": "agents"
          },
          {
            "type": "name_match",
            "text": "piperidine",
            "confidence": 1.0,
            "uuid": "622e458e-e32f-4d3a-80d2-7455291a8a04",
            "name": "Piperidine",
            "url": "https://haz-map.com/Agents/1427",
            "category": "agents"
          },
          {
            "type": "name_match",
            "text": "pyrrolidine",
            "confidence": 1.0,
            "uuid": "2d5875c0-8966-4b9b-8176-e71ea453a10c",
            "name": "Pyrrolidine",
            "url": "https://haz-map.com/Agents/1429",
            "category": "agents"
          },
          {
            "type": "name_match",
            "text": "n-nitrosopiperidine",
            "confidence": 1.0,
            "uuid": "832c6e62-9aef-45a6-b181-0c9c7bc422ec",
            "name": "N-Nitrosopiperidine",
            "url": "https://haz-map.com/Agents/6265",
            "category": "agents"
          },
          {
            "type": "name_match",
            "text": "n-nitrosopyrrolidine",
            "confidence": 1.0,
            "uuid": "b070f22d-6d75-4948-ac70-2d557af024bb",
            "name": "N-Nitrosopyrrolidine",
            "url": "https://haz-map.com/Agents/6266",
            "category": "agents"
          }
        ]
      },
      "biomedical_references": {
        "original_name": "Biomedical References",
        "value": "Search PubMed",
        "links": [
          {
            "text": "Search PubMed",
            "url": "https://www.ncbi.nlm.nih.gov/pubmed?term=1-Nitroso-3-pipecoline%20AND%20human%5Bmh%5D%20AND%20%28Occupational%20Diseases%20%5Bmh%5D%20OR%20Occupational%20Exposure%20%5Bmh%5D%29%20%20AND%20%28tox%5Bsb%5D%29&cmd=search"
          }
        ],
        "cross_references": []
      }
    },
    "exposure_assessment": {
      "vapor_pressure": {
        "original_name": "Vapor Pressure",
        "value": "0.064 mm Hg",
        "links": [],
        "cross_references": []
      }
    },
    "diseases_processes_and_activities_linked_to_this_agent": {
      "other_information": {
        "original_name": "Other Information",
        "value": "No other related information on this agent was found.",
        "links": [],
        "cross_references": []
      }
    }
  },
  "cross_references": [
    {
      "type": "name_match",
      "text": "nitrosamines",
      "confidence": 1.0,
      "uuid": "71647706-f82f-4f7a-a1ad-2500c04c2ac0",
      "name": "NITROSAMINES",
      "url": "https://haz-map.com/Agents/767",
      "category": "agents"
    },
    {
      "type": "name_match",
      "text": "nitrogen",
      "confidence": 1.0,
      "uuid": "db5e90a9-06d2-45b9-8b81-f345a89b0bc0",
      "name": "Nitrogen",
      "url": "https://haz-map.com/Agents/1072",
      "category": "agents"
    },
    {
      "type": "name_match",
      "text": "piperidine",
      "confidence": 1.0,
      "uuid": "622e458e-e32f-4d3a-80d2-7455291a8a04",
      "name": "Piperidine",
      "url": "https://haz-map.com/Agents/1427",
      "category": "agents"
    },
    {
      "type": "name_match",
      "text": "pyrrolidine",
      "confidence": 1.0,
      "uuid": "2d5875c0-8966-4b9b-8176-e71ea453a10c",
      "name": "Pyrrolidine",
      "url": "https://haz-map.com/Agents/1429",
      "category": "agents"
    },
    {
      "type": "name_match",
      "text": "n-nitrosopiperidine",
      "confidence": 1.0,
      "uuid": "832c6e62-9aef-45a6-b181-0c9c7bc422ec",
      "name": "N-Nitrosopiperidine",
      "url": "https://haz-map.com/Agents/6265",
      "category": "agents"
    },
    {
      "type": "name_match",
      "text": "n-nitrosopyrrolidine",
      "confidence": 1.0,
      "uuid": "b070f22d-6d75-4948-ac70-2d557af024bb",
      "name": "N-Nitrosopyrrolidine",
      "url": "https://haz-map.com/Agents/6266",
      "category": "agents"
    },
    {
      "type": "name_match",
      "text": "1-nitroso-3-pipecoline",
      "confidence": 1.0,
      "uuid": "9766d66f-11ab-4475-be2d-9a1b6da7554a",
      "name": "1-Nitroso-3-pipecoline",
      "url": "https://haz-map.com/Agents/21289",
      "category": "agents"
    }
  ],
  "all_links": [
    {
      "text": "Search PubMed",
      "url": "https://www.ncbi.nlm.nih.gov/pubmed?term=1-Nitroso-3-pipecoline%20AND%20human%5Bmh%5D%20AND%20%28Occupational%20Diseases%20%5Bmh%5D%20OR%20Occupational%20Exposure%20%5Bmh%5D%29%20%20AND%20%28tox%5Bsb%5D%29&cmd=search"
    }
  ]
}