{
  "metadata": {
    "scraped_from": "https://haz-map.com/Agents/2672",
    "entity_name": "S-Propyl chlorothioformate",
    "category": "agents",
    "uuid": "982c29cf-071c-4af8-a2dd-c1eb3ca45567",
    "scraped_at": "2025-07-23T19:17:27.024497"
  },
  "parsed_at": "2025-07-24T00:58:08.923851",
  "title": "S-Propyl chlorothioformate",
  "sections": {
    "general": {
      "agent_name": {
        "original_name": "Agent Name",
        "value": "S-Propyl chlorothioformate",
        "links": [],
        "cross_references": [
          {
            "type": "name_match",
            "text": "s-propyl chlorothioformate",
            "confidence": 1.0,
            "uuid": "982c29cf-071c-4af8-a2dd-c1eb3ca45567",
            "name": "S-Propyl chlorothioformate",
            "url": "https://haz-map.com/Agents/2672",
            "category": "agents"
          }
        ]
      },
      "cas_number": {
        "original_name": "CAS Number",
        "value": "13889-92-4",
        "links": [],
        "cross_references": []
      },
      "formula": {
        "original_name": "Formula",
        "value": "C4-H7-Cl-O-S",
        "links": [],
        "cross_references": []
      },
      "major_category": {
        "original_name": "Major Category",
        "value": "Toxic Gases & Vapors",
        "links": [],
        "cross_references": []
      },
      "synonyms": {
        "original_name": "Synonyms",
        "value": "Carbonochloridothioic acid, S-propyl ester; Formic acid, chlorothio-, S-propyl ester; Propyl chlorothioformate; Propyl chlorothiolformate; S-(Propyl)chlorothioformic acid; S-(n-Propyl) carbonochloridothioate; S-(n-Propyl) thiochloroformate; S-Propyl thiochloroformate; n-Propyl chlorothioformate; n-Propyl chlorothiolformate; n-Propyl thiochloroformate; [ChemIDplus]",
        "links": [],
        "cross_references": [
          {
            "type": "name_match",
            "text": "chloroform",
            "confidence": 1.0,
            "uuid": "c05794fb-7374-465e-8219-dc071fdda4a7",
            "name": "Chloroform",
            "url": "https://haz-map.com/Agents/53",
            "category": "agents"
          },
          {
            "type": "name_match",
            "text": "formic acid",
            "confidence": 1.0,
            "uuid": "5de50e8b-f1d4-40c0-a85a-79ed7fd08ea8",
            "name": "Formic acid",
            "url": "https://haz-map.com/Agents/497",
            "category": "agents"
          },
          {
            "type": "name_match",
            "text": "carbon",
            "confidence": 1.0,
            "uuid": "b53f8815-ee80-40ef-b4aa-3b000e17dab5",
            "name": "Carbon",
            "url": "https://haz-map.com/Agents/1891",
            "category": "agents"
          }
        ]
      },
      "category": {
        "original_name": "Category",
        "value": "Acid Halides",
        "links": [],
        "cross_references": []
      },
      "description": {
        "original_name": "Description",
        "value": "Amber-colored liquid; [HSDB] Odor of \"stench\"; [MSDSonline]",
        "links": [],
        "cross_references": []
      },
      "sourcesuses": {
        "original_name": "Sources/Uses",
        "value": "Used to make thiocarbamate pesticides and herbicides; [HSDB]",
        "links": [],
        "cross_references": [
          {
            "type": "name_match",
            "text": "herbicides",
            "confidence": 1.0,
            "uuid": "195f29ae-3f15-47c5-836d-0a9791db3fc1",
            "name": "HERBICIDES",
            "url": "https://haz-map.com/Agents/703",
            "category": "agents"
          }
        ]
      },
      "comments": {
        "original_name": "Comments",
        "value": "Lachrymator; May hydrolyze after inhalation releasing HCl; Causes acute pulmonary edema in animal inhalation experiments; [HSDB] Harmful if ingested; Causes burns; Lachrymator; [MSDSonline]",
        "links": [],
        "cross_references": [
          {
            "type": "name_match",
            "text": "pulmonary edema",
            "confidence": 1.0,
            "uuid": "ee39114e-c922-40fd-9588-a532de404962",
            "name": "pulmonary edema",
            "url": "https://haz-map.com/Findings/186",
            "category": "findings"
          },
          {
            "type": "name_match",
            "text": "burn",
            "confidence": 1.0,
            "uuid": "63665de5-6376-4918-8dbf-4c10c4d63837",
            "name": "burn",
            "url": "https://haz-map.com/Findings/204",
            "category": "findings"
          }
        ]
      },
      "biomedical_references": {
        "original_name": "Biomedical References",
        "value": "Search PubMed",
        "links": [
          {
            "text": "Search PubMed",
            "url": "https://www.ncbi.nlm.nih.gov/pubmed?term=S-Propyl+chlorothioformate%20AND%20human%5Bmh%5D%20AND%20%28Occupational%20Diseases%20%5Bmh%5D%20OR%20Occupational%20Exposure%20%5Bmh%5D%29%20%20AND%20%28tox%5Bsb%5D%29&cmd=search"
          }
        ],
        "cross_references": []
      }
    },
    "exposure_assessment": {
      "vapor_pressure": {
        "original_name": "Vapor Pressure",
        "value": "6.27 mm Hg",
        "links": [],
        "cross_references": []
      },
      "lethal_concentration": {
        "original_name": "Lethal Concentration",
        "value": "LCLo (rat) = 1,300 mg/m3",
        "links": [],
        "cross_references": []
      },
      "explanatory_notes": {
        "original_name": "Explanatory Notes",
        "value": "Flash point = 63 deg C; [HSDB]",
        "links": [],
        "cross_references": [
          {
            "type": "name_match",
            "text": "ash",
            "confidence": 1.0,
            "uuid": "68b360f1-5ad0-4337-bea0-d7adca2961b5",
            "name": "Ash",
            "url": "https://haz-map.com/Agents/965",
            "category": "agents"
          }
        ]
      }
    },
    "adverse_effects": {
      "lachrymator": {
        "original_name": "Lachrymator",
        "value": "Yes",
        "links": [],
        "cross_references": []
      },
      "toxic_pneumonitis": {
        "original_name": "Toxic Pneumonitis",
        "value": "Yes",
        "links": [],
        "cross_references": []
      },
      "dermatotoxin": {
        "original_name": "Dermatotoxin",
        "value": "Skin burns",
        "links": [],
        "cross_references": [
          {
            "type": "name_match",
            "text": "burn",
            "confidence": 1.0,
            "uuid": "63665de5-6376-4918-8dbf-4c10c4d63837",
            "name": "burn",
            "url": "https://haz-map.com/Findings/204",
            "category": "findings"
          }
        ]
      }
    },
    "diseases_processes_and_activities_linked_to_this_agent": {
      "other_information": {
        "original_name": "Other Information",
        "value": "No other related information on this agent was found.",
        "links": [],
        "cross_references": []
      }
    }
  },
  "cross_references": [
    {
      "type": "name_match",
      "text": "pulmonary edema",
      "confidence": 1.0,
      "uuid": "ee39114e-c922-40fd-9588-a532de404962",
      "name": "pulmonary edema",
      "url": "https://haz-map.com/Findings/186",
      "category": "findings"
    },
    {
      "type": "name_match",
      "text": "burn",
      "confidence": 1.0,
      "uuid": "63665de5-6376-4918-8dbf-4c10c4d63837",
      "name": "burn",
      "url": "https://haz-map.com/Findings/204",
      "category": "findings"
    },
    {
      "type": "name_match",
      "text": "chloroform",
      "confidence": 1.0,
      "uuid": "c05794fb-7374-465e-8219-dc071fdda4a7",
      "name": "Chloroform",
      "url": "https://haz-map.com/Agents/53",
      "category": "agents"
    },
    {
      "type": "name_match",
      "text": "formic acid",
      "confidence": 1.0,
      "uuid": "5de50e8b-f1d4-40c0-a85a-79ed7fd08ea8",
      "name": "Formic acid",
      "url": "https://haz-map.com/Agents/497",
      "category": "agents"
    },
    {
      "type": "name_match",
      "text": "herbicides",
      "confidence": 1.0,
      "uuid": "195f29ae-3f15-47c5-836d-0a9791db3fc1",
      "name": "HERBICIDES",
      "url": "https://haz-map.com/Agents/703",
      "category": "agents"
    },
    {
      "type": "name_match",
      "text": "ash",
      "confidence": 1.0,
      "uuid": "68b360f1-5ad0-4337-bea0-d7adca2961b5",
      "name": "Ash",
      "url": "https://haz-map.com/Agents/965",
      "category": "agents"
    },
    {
      "type": "name_match",
      "text": "carbon",
      "confidence": 1.0,
      "uuid": "b53f8815-ee80-40ef-b4aa-3b000e17dab5",
      "name": "Carbon",
      "url": "https://haz-map.com/Agents/1891",
      "category": "agents"
    },
    {
      "type": "name_match",
      "text": "s-propyl chlorothioformate",
      "confidence": 1.0,
      "uuid": "982c29cf-071c-4af8-a2dd-c1eb3ca45567",
      "name": "S-Propyl chlorothioformate",
      "url": "https://haz-map.com/Agents/2672",
      "category": "agents"
    }
  ],
  "all_links": [
    {
      "text": "Search PubMed",
      "url": "https://www.ncbi.nlm.nih.gov/pubmed?term=S-Propyl+chlorothioformate%20AND%20human%5Bmh%5D%20AND%20%28Occupational%20Diseases%20%5Bmh%5D%20OR%20Occupational%20Exposure%20%5Bmh%5D%29%20%20AND%20%28tox%5Bsb%5D%29&cmd=search"
    }
  ]
}