{
  "metadata": {
    "scraped_from": "https://haz-map.com/Agents/4985",
    "entity_name": "Dioctyl peroxide",
    "category": "agents",
    "uuid": "984b2b3d-79a3-45db-8bee-c36884a950c8",
    "scraped_at": "2025-07-23T19:47:36.269581"
  },
  "parsed_at": "2025-07-24T01:17:16.906176",
  "title": "Dioctyl peroxide",
  "sections": {
    "general": {
      "agent_name": {
        "original_name": "Agent Name",
        "value": "Dioctyl peroxide",
        "links": [],
        "cross_references": [
          {
            "type": "name_match",
            "text": "dioctyl peroxide",
            "confidence": 1.0,
            "uuid": "984b2b3d-79a3-45db-8bee-c36884a950c8",
            "name": "Dioctyl peroxide",
            "url": "https://haz-map.com/Agents/4985",
            "category": "agents"
          }
        ]
      },
      "cas_number": {
        "original_name": "CAS Number",
        "value": "19102-74-0",
        "links": [],
        "cross_references": []
      },
      "formula": {
        "original_name": "Formula",
        "value": "C16-H34-O2",
        "links": [],
        "cross_references": []
      },
      "major_category": {
        "original_name": "Major Category",
        "value": "Other Classes",
        "links": [],
        "cross_references": []
      },
      "synonyms": {
        "original_name": "Synonyms",
        "value": "Octane, 1,1'-dioxybis-; Octyl peroxide; Peroxide, dioctyl; [ChemIDplus]",
        "links": [],
        "cross_references": [
          {
            "type": "name_match",
            "text": "octane",
            "confidence": 1.0,
            "uuid": "feb2932c-69c5-4142-b6b6-bde017998940",
            "name": "Octane",
            "url": "https://haz-map.com/Agents/106",
            "category": "agents"
          }
        ]
      },
      "category": {
        "original_name": "Category",
        "value": "Peroxides, Organic",
        "links": [],
        "cross_references": []
      },
      "description": {
        "original_name": "Description",
        "value": "Straw colored liquid; [HSDB]",
        "links": [],
        "cross_references": []
      },
      "comments": {
        "original_name": "Comments",
        "value": "A strong oxidizing agent; [HSDB]",
        "links": [],
        "cross_references": []
      },
      "biomedical_references": {
        "original_name": "Biomedical References",
        "value": "Search PubMed",
        "links": [
          {
            "text": "Search PubMed",
            "url": "https://www.ncbi.nlm.nih.gov/pubmed?term=Dioctyl+peroxide%20AND%20human%5Bmh%5D%20AND%20%28Occupational%20Diseases%20%5Bmh%5D%20OR%20Occupational%20Exposure%20%5Bmh%5D%29%20%20AND%20%28tox%5Bsb%5D%29&cmd=search"
          }
        ],
        "cross_references": []
      }
    },
    "exposure_assessment": {
      "vapor_pressure": {
        "original_name": "Vapor Pressure",
        "value": "0.00126 mm Hg",
        "links": [],
        "cross_references": []
      }
    },
    "diseases_processes_and_activities_linked_to_this_agent": {
      "other_information": {
        "original_name": "Other Information",
        "value": "No other related information on this agent was found.",
        "links": [],
        "cross_references": []
      }
    }
  },
  "cross_references": [
    {
      "type": "name_match",
      "text": "octane",
      "confidence": 1.0,
      "uuid": "feb2932c-69c5-4142-b6b6-bde017998940",
      "name": "Octane",
      "url": "https://haz-map.com/Agents/106",
      "category": "agents"
    },
    {
      "type": "name_match",
      "text": "dioctyl peroxide",
      "confidence": 1.0,
      "uuid": "984b2b3d-79a3-45db-8bee-c36884a950c8",
      "name": "Dioctyl peroxide",
      "url": "https://haz-map.com/Agents/4985",
      "category": "agents"
    }
  ],
  "all_links": [
    {
      "text": "Search PubMed",
      "url": "https://www.ncbi.nlm.nih.gov/pubmed?term=Dioctyl+peroxide%20AND%20human%5Bmh%5D%20AND%20%28Occupational%20Diseases%20%5Bmh%5D%20OR%20Occupational%20Exposure%20%5Bmh%5D%29%20%20AND%20%28tox%5Bsb%5D%29&cmd=search"
    }
  ]
}