{
  "metadata": {
    "scraped_from": "https://haz-map.com/Agents/14587",
    "entity_name": "Hexadecanoic acid, butyl ester",
    "category": "agents",
    "uuid": "994851b1-b0f6-4bd4-820b-49880abc7718",
    "scraped_at": "2025-07-23T21:24:31.481762"
  },
  "parsed_at": "2025-07-24T00:54:00.309543",
  "title": "Hexadecanoic acid, butyl ester",
  "sections": {
    "general": {
      "agent_name": {
        "original_name": "Agent Name",
        "value": "Hexadecanoic acid, butyl ester",
        "links": [],
        "cross_references": [
          {
            "type": "name_match",
            "text": "hexadecanoic acid, butyl ester",
            "confidence": 1.0,
            "uuid": "994851b1-b0f6-4bd4-820b-49880abc7718",
            "name": "Hexadecanoic acid, butyl ester",
            "url": "https://haz-map.com/Agents/14587",
            "category": "agents"
          }
        ]
      },
      "cas_number": {
        "original_name": "CAS Number",
        "value": "111-06-8",
        "links": [],
        "cross_references": []
      },
      "formula": {
        "original_name": "Formula",
        "value": "C20-H40-O2",
        "links": [],
        "cross_references": []
      },
      "major_category": {
        "original_name": "Major Category",
        "value": "Other Classes",
        "links": [],
        "cross_references": []
      },
      "synonyms": {
        "original_name": "Synonyms",
        "value": "Butyl hexadecanoate; Butyl palmitate; n-Butyl hexadecanoate; n-Butyl palmitate; Palmitic acid, butyl ester (8CI); [ChemIDplus]",
        "links": [],
        "cross_references": [
          {
            "type": "name_match",
            "text": "palmitic acid",
            "confidence": 1.0,
            "uuid": "9a0987be-5bc6-483b-8daf-6ed89325a82c",
            "name": "Palmitic acid",
            "url": "https://haz-map.com/Agents/6518",
            "category": "agents"
          }
        ]
      },
      "category": {
        "original_name": "Category",
        "value": "Esters, Other",
        "links": [],
        "cross_references": []
      },
      "description": {
        "original_name": "Description",
        "value": "Light yellow liquid or solid with a pleasant fruity odor; mp = 17 deg C; [Chem Service MSDS]",
        "links": [],
        "cross_references": [
          {
            "type": "name_match",
            "text": "ht",
            "confidence": 1.0,
            "uuid": "764df367-8d53-4a11-81a2-31ccfe122a8d",
            "name": "HT",
            "url": "https://haz-map.com/Agents/2168",
            "category": "agents"
          }
        ]
      },
      "comments": {
        "original_name": "Comments",
        "value": "May cause irritation; [Chem Service MSDS]",
        "links": [],
        "cross_references": []
      },
      "biomedical_references": {
        "original_name": "Biomedical References",
        "value": "Search PubMed",
        "links": [
          {
            "text": "Search PubMed",
            "url": "https://www.ncbi.nlm.nih.gov/pubmed?term=Hexadecanoic+acid%2c+butyl+ester%20AND%20human%5Bmh%5D%20AND%20%28Occupational%20Diseases%20%5Bmh%5D%20OR%20Occupational%20Exposure%20%5Bmh%5D%29%20%20AND%20%28tox%5Bsb%5D%29&cmd=search"
          }
        ],
        "cross_references": []
      }
    },
    "exposure_assessment": {
      "vapor_pressure": {
        "original_name": "Vapor Pressure",
        "value": "1.72E-05 mm Hg",
        "links": [],
        "cross_references": []
      },
      "explanatory_notes": {
        "original_name": "Explanatory Notes",
        "value": "VP from ChemIDplus;",
        "links": [],
        "cross_references": []
      }
    },
    "diseases_processes_and_activities_linked_to_this_agent": {
      "other_information": {
        "original_name": "Other Information",
        "value": "No other related information on this agent was found.",
        "links": [],
        "cross_references": []
      }
    }
  },
  "cross_references": [
    {
      "type": "name_match",
      "text": "ht",
      "confidence": 1.0,
      "uuid": "764df367-8d53-4a11-81a2-31ccfe122a8d",
      "name": "HT",
      "url": "https://haz-map.com/Agents/2168",
      "category": "agents"
    },
    {
      "type": "name_match",
      "text": "palmitic acid",
      "confidence": 1.0,
      "uuid": "9a0987be-5bc6-483b-8daf-6ed89325a82c",
      "name": "Palmitic acid",
      "url": "https://haz-map.com/Agents/6518",
      "category": "agents"
    },
    {
      "type": "name_match",
      "text": "hexadecanoic acid, butyl ester",
      "confidence": 1.0,
      "uuid": "994851b1-b0f6-4bd4-820b-49880abc7718",
      "name": "Hexadecanoic acid, butyl ester",
      "url": "https://haz-map.com/Agents/14587",
      "category": "agents"
    }
  ],
  "all_links": [
    {
      "text": "Search PubMed",
      "url": "https://www.ncbi.nlm.nih.gov/pubmed?term=Hexadecanoic+acid%2c+butyl+ester%20AND%20human%5Bmh%5D%20AND%20%28Occupational%20Diseases%20%5Bmh%5D%20OR%20Occupational%20Exposure%20%5Bmh%5D%29%20%20AND%20%28tox%5Bsb%5D%29&cmd=search"
    }
  ]
}