{
  "metadata": {
    "scraped_from": "https://haz-map.com/Agents/10766",
    "entity_name": "3'-Hydroxyacetophenone",
    "category": "agents",
    "uuid": "996f45fe-8230-45b4-98ba-bbf91fd2d426",
    "scraped_at": "2025-07-23T20:52:45.091699"
  },
  "parsed_at": "2025-07-24T01:15:23.702963",
  "title": "3'-Hydroxyacetophenone",
  "sections": {
    "general": {
      "agent_name": {
        "original_name": "Agent Name",
        "value": "3'-Hydroxyacetophenone",
        "links": [],
        "cross_references": [
          {
            "type": "name_match",
            "text": "acetophenone",
            "confidence": 1.0,
            "uuid": "ea2f7a13-5a06-4d04-88db-0d365933a3ec",
            "name": "Acetophenone",
            "url": "https://haz-map.com/Agents/2193",
            "category": "agents"
          },
          {
            "type": "name_match",
            "text": "3'-hydroxyacetophenone",
            "confidence": 1.0,
            "uuid": "996f45fe-8230-45b4-98ba-bbf91fd2d426",
            "name": "3'-Hydroxyacetophenone",
            "url": "https://haz-map.com/Agents/10766",
            "category": "agents"
          }
        ]
      },
      "cas_number": {
        "original_name": "CAS Number",
        "value": "121-71-1",
        "links": [],
        "cross_references": []
      },
      "formula": {
        "original_name": "Formula",
        "value": "C8-H8-O2",
        "links": [],
        "cross_references": []
      },
      "major_category": {
        "original_name": "Major Category",
        "value": "Other Classes",
        "links": [],
        "cross_references": []
      },
      "synonyms": {
        "original_name": "Synonyms",
        "value": "1-(3-Hydroxyphenyl)ethan-1-one; 3-Acetylphenol; m-Acetylphenol; m-Hydroxyacetophenone; Acetophenone, 3'-hydroxy- (8CI); Ethanone, 1-(3-hydroxyphenyl)-; [ChemIDplus]",
        "links": [],
        "cross_references": [
          {
            "type": "name_match",
            "text": "phenol",
            "confidence": 1.0,
            "uuid": "03141a03-a7df-4f51-9a37-adde1a7c4b31",
            "name": "Phenol",
            "url": "https://haz-map.com/Agents/84",
            "category": "agents"
          },
          {
            "type": "name_match",
            "text": "acetophenone",
            "confidence": 1.0,
            "uuid": "ea2f7a13-5a06-4d04-88db-0d365933a3ec",
            "name": "Acetophenone",
            "url": "https://haz-map.com/Agents/2193",
            "category": "agents"
          }
        ]
      },
      "category": {
        "original_name": "Category",
        "value": "Aromatic Ketones",
        "links": [],
        "cross_references": []
      },
      "description": {
        "original_name": "Description",
        "value": "White crystalline powder; [Alfa Aesar MSDS]",
        "links": [],
        "cross_references": [
          {
            "type": "fuzzy_match",
            "text": "crystalline",
            "matched_name": "Silica, crystalline",
            "confidence": 0.7061403508771931,
            "uuid": "f920e8a2-46df-41b7-af8d-0368a777251e",
            "category": "agents",
            "url": "https://haz-map.com/Agents/427"
          }
        ]
      },
      "comments": {
        "original_name": "Comments",
        "value": "A skin and strong eye irritant; [Alfa Aesar MSDS] See \"Acetophenone.\"",
        "links": [],
        "cross_references": [
          {
            "type": "name_match",
            "text": "acetophenone",
            "confidence": 1.0,
            "uuid": "ea2f7a13-5a06-4d04-88db-0d365933a3ec",
            "name": "Acetophenone",
            "url": "https://haz-map.com/Agents/2193",
            "category": "agents"
          }
        ]
      },
      "biomedical_references": {
        "original_name": "Biomedical References",
        "value": "Search PubMed",
        "links": [
          {
            "text": "Search PubMed",
            "url": "https://www.ncbi.nlm.nih.gov/pubmed?term=3%26%2339%3b-Hydroxyacetophenone%20AND%20human%5Bmh%5D%20AND%20%28Occupational%20Diseases%20%5Bmh%5D%20OR%20Occupational%20Exposure%20%5Bmh%5D%29%20%20AND%20%28tox%5Bsb%5D%29&cmd=search"
          }
        ],
        "cross_references": []
      }
    },
    "exposure_assessment": {
      "vapor_pressure": {
        "original_name": "Vapor Pressure",
        "value": "0.00748 mm Hg",
        "links": [],
        "cross_references": []
      },
      "explanatory_notes": {
        "original_name": "Explanatory Notes",
        "value": "VP from ChemIDplus;",
        "links": [],
        "cross_references": []
      }
    },
    "diseases_processes_and_activities_linked_to_this_agent": {
      "other_information": {
        "original_name": "Other Information",
        "value": "No other related information on this agent was found.",
        "links": [],
        "cross_references": []
      }
    }
  },
  "cross_references": [
    {
      "type": "name_match",
      "text": "phenol",
      "confidence": 1.0,
      "uuid": "03141a03-a7df-4f51-9a37-adde1a7c4b31",
      "name": "Phenol",
      "url": "https://haz-map.com/Agents/84",
      "category": "agents"
    },
    {
      "type": "name_match",
      "text": "acetophenone",
      "confidence": 1.0,
      "uuid": "ea2f7a13-5a06-4d04-88db-0d365933a3ec",
      "name": "Acetophenone",
      "url": "https://haz-map.com/Agents/2193",
      "category": "agents"
    },
    {
      "type": "name_match",
      "text": "3'-hydroxyacetophenone",
      "confidence": 1.0,
      "uuid": "996f45fe-8230-45b4-98ba-bbf91fd2d426",
      "name": "3'-Hydroxyacetophenone",
      "url": "https://haz-map.com/Agents/10766",
      "category": "agents"
    },
    {
      "type": "fuzzy_match",
      "text": "crystalline",
      "matched_name": "Silica, crystalline",
      "confidence": 0.7061403508771931,
      "uuid": "f920e8a2-46df-41b7-af8d-0368a777251e",
      "category": "agents",
      "url": "https://haz-map.com/Agents/427"
    }
  ],
  "all_links": [
    {
      "text": "Search PubMed",
      "url": "https://www.ncbi.nlm.nih.gov/pubmed?term=3%26%2339%3b-Hydroxyacetophenone%20AND%20human%5Bmh%5D%20AND%20%28Occupational%20Diseases%20%5Bmh%5D%20OR%20Occupational%20Exposure%20%5Bmh%5D%29%20%20AND%20%28tox%5Bsb%5D%29&cmd=search"
    }
  ]
}