{
  "metadata": {
    "scraped_from": "https://haz-map.com/Agents/4229",
    "entity_name": "Carbophenothion",
    "category": "agents",
    "uuid": "998adfe4-bf2f-42bf-8be5-0815d647612c",
    "scraped_at": "2025-07-23T19:38:59.911399"
  },
  "parsed_at": "2025-07-24T00:55:48.544753",
  "title": "Carbophenothion",
  "sections": {
    "general": {
      "agent_name": {
        "original_name": "Agent Name",
        "value": "Carbophenothion",
        "links": [],
        "cross_references": [
          {
            "type": "name_match",
            "text": "carbophenothion",
            "confidence": 1.0,
            "uuid": "998adfe4-bf2f-42bf-8be5-0815d647612c",
            "name": "Carbophenothion",
            "url": "https://haz-map.com/Agents/4229",
            "category": "agents"
          }
        ]
      },
      "cas_number": {
        "original_name": "CAS Number",
        "value": "786-19-6",
        "links": [],
        "cross_references": []
      },
      "formula": {
        "original_name": "Formula",
        "value": "C11-H16-Cl-O2-P-S3",
        "links": [],
        "cross_references": []
      },
      "major_category": {
        "original_name": "Major Category",
        "value": "Pesticides",
        "links": [],
        "cross_references": []
      },
      "synonyms": {
        "original_name": "Synonyms",
        "value": "Acarithion; Akarithion; Carbofenothion [Dutch]; Carbofenotion; Carbofenotionum [INN-Latin]; Carbofenthion; Carbophenothion; Dagadip; Dithiophosphate de O,O-diethyle et de (4-chloro-phenyl) thiomethyle [French]; ENT 23,708; Endyl; Ethyl carbophenothion; Garrathion; Hexathion; Karbofenothion [Czech]; Lethox; Nephocarp; O,O-Diaethyl-S-((4-chlor-phenyl-thio)-methyl)dithiophosphat [German]; O,O-Diethyl S-(4-chlorophenylthiomethyl) dithiophosphate; O,O-Diethyl S-(p-chlorophenylthiomethyl) phosphorodithioate; O,O-Diethyl S-p-chlorophenylthiomethyl dithiophosphate; O,O-Diethyl dithiophosphoric acid p-chlorophenylthiomethyl ester; O,O-Diethyl p-chlorophenylmercaptomethyl dithiophosphate; O,O-Diethyl-S-((4-chloor-fenyl-thio)-methyl)-dithiofosfaat [Dutch]; O,O-Diethyl-S-p-chlorfenylthiomethylester kyseliny dithiofosforecne [Czech]; O,O-Dietil-S-((4-cloro-fenil-tio)-metile)-ditiofosfato [Italian]; OMS 244; Oleoakarithion; Phosphorodithioic acid, S-(((4-chlorophenyl)thio)methyl) O,O-diethyl ester; Phosphorodithioic acid, S-(((p-chlorophenyl)thio)methyl) O,O-diethyl ester; R 1303; R-1303; S-(((4-Chlorophenyl)thio)methyl) O,O-diethyl phosphorodithioate (9CI); S-((p-Chlorophenylthio)methyl) O,O-diethyl phosphorodithioate; S-(4-Chlorophenylthiomethyl)diethyl phosphorothiolothionate; Stauffer R-1,303; Trithion; Trithion miticide; [ChemIDplus] UN3018",
        "links": [],
        "cross_references": [
          {
            "type": "name_match",
            "text": "fenthion",
            "confidence": 1.0,
            "uuid": "71ee7c21-30fe-48fb-8fbe-6036faba310f",
            "name": "Fenthion",
            "url": "https://haz-map.com/Agents/251",
            "category": "agents"
          },
          {
            "type": "name_match",
            "text": "phosphoric acid",
            "confidence": 1.0,
            "uuid": "9049e74c-22b3-4fb1-8e7f-53f17c0ec74a",
            "name": "Phosphoric acid",
            "url": "https://haz-map.com/Agents/595",
            "category": "agents"
          },
          {
            "type": "name_match",
            "text": "oak",
            "confidence": 1.0,
            "uuid": "631b107a-216e-4168-b323-dbb24976e011",
            "name": "Oak",
            "url": "https://haz-map.com/Agents/955",
            "category": "agents"
          },
          {
            "type": "name_match",
            "text": "tali",
            "confidence": 1.0,
            "uuid": "8c3a0f99-2143-4122-b539-ec5cc49596b0",
            "name": "Tali",
            "url": "https://haz-map.com/Agents/1128",
            "category": "agents"
          },
          {
            "type": "name_match",
            "text": "carbophenothion",
            "confidence": 1.0,
            "uuid": "998adfe4-bf2f-42bf-8be5-0815d647612c",
            "name": "Carbophenothion",
            "url": "https://haz-map.com/Agents/4229",
            "category": "agents"
          },
          {
            "type": "name_match",
            "text": "o,o-diethyl phosphorodithioate",
            "confidence": 1.0,
            "uuid": "ba11ef42-b3aa-4424-a2e7-10d0f2b38f5e",
            "name": "O,O-Diethyl phosphorodithioate",
            "url": "https://haz-map.com/Agents/6687",
            "category": "agents"
          }
        ]
      },
      "category": {
        "original_name": "Category",
        "value": "Organophosphate Insecticides",
        "links": [],
        "cross_references": []
      },
      "description": {
        "original_name": "Description",
        "value": "Colorless or light amber liquid; [HSDB] Slight odor of rotten eggs; [CAMEO] Clear liquid; [MSDSonline]",
        "links": [],
        "cross_references": [
          {
            "type": "name_match",
            "text": "ht",
            "confidence": 1.0,
            "uuid": "764df367-8d53-4a11-81a2-31ccfe122a8d",
            "name": "HT",
            "url": "https://haz-map.com/Agents/2168",
            "category": "agents"
          }
        ]
      },
      "sourcesuses": {
        "original_name": "Sources/Uses",
        "value": "Used as a non-systemic acaricide and insecticide for citrus, deciduous fruits and nuts, and other crops; [HSDB]",
        "links": [],
        "cross_references": []
      },
      "comments": {
        "original_name": "Comments",
        "value": "May be absorbed through skin; A cholinesterase inhibitor; [ICSC] In an epidemic involving 19 sugar cane workers, the route of exposure appeared to be inhalation or skin absorption (possibly both); Animal feeding studies showed depression of cholinesterase activity but no gross or microscopic pathology; [HSDB] A highly toxic cholinesterase inhibitor (estimated lethal oral dose of 0.6 g for 70 kg person); [CAMEO] Effects in a three-generation feeding study with rats at 20 ppm include reduced pup weight, increase in stillbirths, and fewer pups alive at weaning; Examination of stillborn pups was negative for teratogenicity; Effects in a 2 year feeding study with rats at the highest dose level (80 ppm) include an increase in adrenal weight; No increase in incidence of neoplasm was observed; [INCHEM JMPR] “The average of two baseline respective cholinesterase activity determinations three days apart, with no exposures to enzyme inhibiting pesticides for at least 30 days, is recommended for each worker prior to exposure to cholinesterase inhibitors because of large inter-individual differences in published baseline values. To be established at least once a year. Removal from workplace exposures is recommended until the cholinesterase activity returns to within 20% of baseline.” [TLVs and BEIs]",
        "links": [],
        "cross_references": [
          {
            "type": "name_match",
            "text": "ht",
            "confidence": 1.0,
            "uuid": "764df367-8d53-4a11-81a2-31ccfe122a8d",
            "name": "HT",
            "url": "https://haz-map.com/Agents/2168",
            "category": "agents"
          },
          {
            "type": "name_match",
            "text": "choline",
            "confidence": 1.0,
            "uuid": "a21a71e9-9d67-4563-9da2-98c4dcb1b766",
            "name": "Choline",
            "url": "https://haz-map.com/Agents/12978",
            "category": "agents"
          }
        ]
      },
      "restricted": {
        "original_name": "Restricted",
        "value": "Cancelled--no longer registered as a pesticide for use in the US; [HSDB]",
        "links": [],
        "cross_references": []
      },
      "biomedical_references": {
        "original_name": "Biomedical References",
        "value": "Search PubMed",
        "links": [
          {
            "text": "Search PubMed",
            "url": "https://www.ncbi.nlm.nih.gov/pubmed?term=Carbophenothion%20AND%20human%5Bmh%5D%20AND%20%28Occupational%20Diseases%20%5Bmh%5D%20OR%20Occupational%20Exposure%20%5Bmh%5D%29%20%20AND%20%28tox%5Bsb%5D%29&cmd=search"
          }
        ],
        "cross_references": []
      }
    },
    "exposure_assessment": {
      "bei": {
        "original_name": "BEI",
        "value": "Acetylcholinesterase activity in red blood cells = 70% of individual's baseline; Butylcholinesterase activity in serum or plasma = 60% of individual's baseline; Sample at end of shift; [TLVs and BEIs]",
        "links": [],
        "cross_references": [
          {
            "type": "name_match",
            "text": "choline",
            "confidence": 1.0,
            "uuid": "a21a71e9-9d67-4563-9da2-98c4dcb1b766",
            "name": "Choline",
            "url": "https://haz-map.com/Agents/12978",
            "category": "agents"
          }
        ]
      },
      "vapor_pressure": {
        "original_name": "Vapor Pressure",
        "value": "3E-07 mm Hg",
        "links": [],
        "cross_references": []
      },
      "explanatory_notes": {
        "original_name": "Explanatory Notes",
        "value": "The Guide in the Emergency Response Guidebook is for \"Organophosphorus pesticides, liquid, toxic.\"",
        "links": [],
        "cross_references": []
      }
    },
    "adverse_effects": {
      "other_poison": {
        "original_name": "Other Poison",
        "value": "Organophosphate",
        "links": [],
        "cross_references": []
      }
    },
    "diseases_processes_and_activities_linked_to_this_agent": {
      "diseases": {
        "original_name": "Diseases",
        "value": "Occupational diseases associated with exposure to this agent: Organophosphates & carbamates, acute poisoning",
        "links": [
          {
            "text": "Organophosphates & carbamates, acute poisoning",
            "url": "https://haz-map.com/Diseases/66"
          }
        ],
        "cross_references": [
          {
            "type": "url_match",
            "text": "Organophosphates & carbamates, acute poisoning",
            "url": "https://haz-map.com/Diseases/66",
            "confidence": 1.0,
            "uuid": "aea2cba9-fb36-463f-84d8-b819551bb327",
            "name": "Organophosphates & carbamates, acute poisoning",
            "category": "diseases"
          },
          {
            "type": "name_match",
            "text": "organophosphates",
            "confidence": 1.0,
            "uuid": "8d2d239c-20f9-4f02-9916-5e7667b9990c",
            "name": "ORGANOPHOSPHATES",
            "url": "https://haz-map.com/Agents/702",
            "category": "agents"
          }
        ]
      },
      "processes": {
        "original_name": "Processes",
        "value": "Industrial Processes with risk of exposure: Farming (Pesticides)",
        "links": [
          {
            "text": "Farming (Pesticides)",
            "url": "https://haz-map.com/Processes/218"
          }
        ],
        "cross_references": [
          {
            "type": "url_match",
            "text": "Farming (Pesticides)",
            "url": "https://haz-map.com/Processes/218",
            "confidence": 1.0,
            "uuid": "cf1e5815-c9bb-4917-82a5-391848170b7e",
            "name": "Farming (Pesticides)",
            "category": "processes"
          }
        ]
      }
    }
  },
  "cross_references": [
    {
      "type": "url_match",
      "text": "Organophosphates & carbamates, acute poisoning",
      "url": "https://haz-map.com/Diseases/66",
      "confidence": 1.0,
      "uuid": "aea2cba9-fb36-463f-84d8-b819551bb327",
      "name": "Organophosphates & carbamates, acute poisoning",
      "category": "diseases"
    },
    {
      "type": "url_match",
      "text": "Farming (Pesticides)",
      "url": "https://haz-map.com/Processes/218",
      "confidence": 1.0,
      "uuid": "cf1e5815-c9bb-4917-82a5-391848170b7e",
      "name": "Farming (Pesticides)",
      "category": "processes"
    },
    {
      "type": "name_match",
      "text": "fenthion",
      "confidence": 1.0,
      "uuid": "71ee7c21-30fe-48fb-8fbe-6036faba310f",
      "name": "Fenthion",
      "url": "https://haz-map.com/Agents/251",
      "category": "agents"
    },
    {
      "type": "name_match",
      "text": "phosphoric acid",
      "confidence": 1.0,
      "uuid": "9049e74c-22b3-4fb1-8e7f-53f17c0ec74a",
      "name": "Phosphoric acid",
      "url": "https://haz-map.com/Agents/595",
      "category": "agents"
    },
    {
      "type": "name_match",
      "text": "organophosphates",
      "confidence": 1.0,
      "uuid": "8d2d239c-20f9-4f02-9916-5e7667b9990c",
      "name": "ORGANOPHOSPHATES",
      "url": "https://haz-map.com/Agents/702",
      "category": "agents"
    },
    {
      "type": "name_match",
      "text": "oak",
      "confidence": 1.0,
      "uuid": "631b107a-216e-4168-b323-dbb24976e011",
      "name": "Oak",
      "url": "https://haz-map.com/Agents/955",
      "category": "agents"
    },
    {
      "type": "name_match",
      "text": "tali",
      "confidence": 1.0,
      "uuid": "8c3a0f99-2143-4122-b539-ec5cc49596b0",
      "name": "Tali",
      "url": "https://haz-map.com/Agents/1128",
      "category": "agents"
    },
    {
      "type": "name_match",
      "text": "ht",
      "confidence": 1.0,
      "uuid": "764df367-8d53-4a11-81a2-31ccfe122a8d",
      "name": "HT",
      "url": "https://haz-map.com/Agents/2168",
      "category": "agents"
    },
    {
      "type": "name_match",
      "text": "carbophenothion",
      "confidence": 1.0,
      "uuid": "998adfe4-bf2f-42bf-8be5-0815d647612c",
      "name": "Carbophenothion",
      "url": "https://haz-map.com/Agents/4229",
      "category": "agents"
    },
    {
      "type": "name_match",
      "text": "o,o-diethyl phosphorodithioate",
      "confidence": 1.0,
      "uuid": "ba11ef42-b3aa-4424-a2e7-10d0f2b38f5e",
      "name": "O,O-Diethyl phosphorodithioate",
      "url": "https://haz-map.com/Agents/6687",
      "category": "agents"
    },
    {
      "type": "name_match",
      "text": "choline",
      "confidence": 1.0,
      "uuid": "a21a71e9-9d67-4563-9da2-98c4dcb1b766",
      "name": "Choline",
      "url": "https://haz-map.com/Agents/12978",
      "category": "agents"
    }
  ],
  "all_links": [
    {
      "text": "Search PubMed",
      "url": "https://www.ncbi.nlm.nih.gov/pubmed?term=Carbophenothion%20AND%20human%5Bmh%5D%20AND%20%28Occupational%20Diseases%20%5Bmh%5D%20OR%20Occupational%20Exposure%20%5Bmh%5D%29%20%20AND%20%28tox%5Bsb%5D%29&cmd=search"
    },
    {
      "text": "Organophosphates & carbamates, acute poisoning",
      "url": "https://haz-map.com/Diseases/66"
    },
    {
      "text": "Farming (Pesticides)",
      "url": "https://haz-map.com/Processes/218"
    }
  ]
}