{
  "metadata": {
    "scraped_from": "https://haz-map.com/Agents/6518",
    "entity_name": "Palmitic acid",
    "category": "agents",
    "uuid": "9a0987be-5bc6-483b-8daf-6ed89325a82c",
    "scraped_at": "2025-07-23T20:02:47.231735"
  },
  "parsed_at": "2025-07-24T00:57:20.541430",
  "title": "Palmitic acid",
  "sections": {
    "general": {
      "agent_name": {
        "original_name": "Agent Name",
        "value": "Palmitic acid",
        "links": [],
        "cross_references": [
          {
            "type": "name_match",
            "text": "palmitic acid",
            "confidence": 1.0,
            "uuid": "9a0987be-5bc6-483b-8daf-6ed89325a82c",
            "name": "Palmitic acid",
            "url": "https://haz-map.com/Agents/6518",
            "category": "agents"
          }
        ]
      },
      "cas_number": {
        "original_name": "CAS Number",
        "value": "57-10-3",
        "links": [],
        "cross_references": []
      },
      "formula": {
        "original_name": "Formula",
        "value": "C16-H32-O2",
        "links": [],
        "cross_references": []
      },
      "major_category": {
        "original_name": "Major Category",
        "value": "Other Classes",
        "links": [],
        "cross_references": []
      },
      "synonyms": {
        "original_name": "Synonyms",
        "value": "1-Pentadecanecarboxylic acid; C16 fatty acid; Cetylic acid; Emersol 140; Emersol 143; Hexadecanoic acid; Hexadecylic acid; Hydrofol; Hystrene 8016; Hystrene 9016; Industrene 4516; Palmitate; Palmitic acid (natural); Palmitic acid 95%; Pentadecanecarboxylic acid; n-Hexadecanoic acid; n-Hexadecoic acid; [ChemIDplus]",
        "links": [],
        "cross_references": [
          {
            "type": "name_match",
            "text": "pentadecane",
            "confidence": 1.0,
            "uuid": "c94bad99-ad05-4452-a705-4d5deee091ba",
            "name": "Pentadecane",
            "url": "https://haz-map.com/Agents/1786",
            "category": "agents"
          },
          {
            "type": "name_match",
            "text": "palmitic acid",
            "confidence": 1.0,
            "uuid": "9a0987be-5bc6-483b-8daf-6ed89325a82c",
            "name": "Palmitic acid",
            "url": "https://haz-map.com/Agents/6518",
            "category": "agents"
          }
        ]
      },
      "category": {
        "original_name": "Category",
        "value": "Organic Acids",
        "links": [],
        "cross_references": []
      },
      "description": {
        "original_name": "Description",
        "value": "Colorless or white solid; [ICSC] Off-white solid; [MSDSonline]",
        "links": [],
        "cross_references": []
      },
      "sourcesuses": {
        "original_name": "Sources/Uses",
        "value": "Found as glycerol ester in oils and fats; Produced from palm oil, Japan wax, or Chinese vegetable tallow; [Merck Index] Very common naturally occurring fatty acid; Used to make metallic palmitates and esters; in soaps and cosmetics; in lube oils; for waterproofing; in food-grade additives; as a non-drying oil (surface coating); [HSDB]",
        "links": [],
        "cross_references": [
          {
            "type": "name_match",
            "text": "tallow",
            "confidence": 1.0,
            "uuid": "8626387d-ec32-429b-976a-814e9b5197af",
            "name": "Tallow",
            "url": "https://haz-map.com/Agents/7294",
            "category": "agents"
          },
          {
            "type": "name_match",
            "text": "palm oil",
            "confidence": 1.0,
            "uuid": "bda08ae2-a665-45eb-855a-2f36dc9fcbbc",
            "name": "Palm oil",
            "url": "https://haz-map.com/Agents/16355",
            "category": "agents"
          },
          {
            "type": "name_match",
            "text": "water",
            "confidence": 1.0,
            "uuid": "6f2a7557-dfd2-49bc-9b4b-a93cd8e225d4",
            "name": "Water",
            "url": "https://haz-map.com/Agents/18668",
            "category": "agents"
          }
        ]
      },
      "comments": {
        "original_name": "Comments",
        "value": "No listed effects of short-term or long-term exposure; \"Health effects of exposure to the substance have not been investigated.\" [ICSC] Safe when used as a flavoring agent in food; [JECFA] When given intravenously at lethal doses, causes convulsions; Causes mild irritation when administered to human skin; [RTECS] May cause irritation; [MSDSonline]",
        "links": [],
        "cross_references": [
          {
            "type": "name_match",
            "text": "convulsion",
            "confidence": 1.0,
            "uuid": "af2c36f8-707a-48e3-a62b-1aa07adc9b72",
            "name": "convulsion",
            "url": "https://haz-map.com/Findings/14",
            "category": "findings"
          }
        ]
      },
      "biomedical_references": {
        "original_name": "Biomedical References",
        "value": "Search PubMed",
        "links": [
          {
            "text": "Search PubMed",
            "url": "https://www.ncbi.nlm.nih.gov/pubmed?term=Palmitic+acid%20AND%20human%5Bmh%5D%20AND%20%28Occupational%20Diseases%20%5Bmh%5D%20OR%20Occupational%20Exposure%20%5Bmh%5D%29%20%20AND%20%28tox%5Bsb%5D%29&cmd=search"
          }
        ],
        "cross_references": []
      }
    },
    "exposure_assessment": {
      "vapor_pressure": {
        "original_name": "Vapor Pressure",
        "value": "3.8E-07 mm Hg",
        "links": [],
        "cross_references": []
      },
      "odor_threshold_low": {
        "original_name": "Odor Threshold Low",
        "value": "10 ppm",
        "links": [],
        "cross_references": []
      },
      "explanatory_notes": {
        "original_name": "Explanatory Notes",
        "value": "Odor threshold (detection) = 10 ppm; [HSDB]",
        "links": [],
        "cross_references": []
      }
    },
    "diseases_processes_and_activities_linked_to_this_agent": {
      "processes": {
        "original_name": "Processes",
        "value": "Industrial Processes with risk of exposure: Painting (Pigments, Binders, and Biocides)",
        "links": [
          {
            "text": "Painting (Pigments, Binders, and Biocides)",
            "url": "https://haz-map.com/Processes/145"
          }
        ],
        "cross_references": [
          {
            "type": "url_match",
            "text": "Painting (Pigments, Binders, and Biocides)",
            "url": "https://haz-map.com/Processes/145",
            "confidence": 1.0,
            "uuid": "25867878-e178-4c21-906f-d392d86b76de",
            "name": "Painting (Pigments, Binders, and Biocides)",
            "category": "processes"
          },
          {
            "type": "name_match",
            "text": "painting",
            "confidence": 1.0,
            "uuid": "19816ce9-9edf-4a86-8e64-b0cbf7dcf520",
            "name": "Painting",
            "url": "https://haz-map.com/Activities/9",
            "category": "activities"
          }
        ]
      }
    }
  },
  "cross_references": [
    {
      "type": "url_match",
      "text": "Painting (Pigments, Binders, and Biocides)",
      "url": "https://haz-map.com/Processes/145",
      "confidence": 1.0,
      "uuid": "25867878-e178-4c21-906f-d392d86b76de",
      "name": "Painting (Pigments, Binders, and Biocides)",
      "category": "processes"
    },
    {
      "type": "name_match",
      "text": "painting",
      "confidence": 1.0,
      "uuid": "19816ce9-9edf-4a86-8e64-b0cbf7dcf520",
      "name": "Painting",
      "url": "https://haz-map.com/Activities/9",
      "category": "activities"
    },
    {
      "type": "name_match",
      "text": "convulsion",
      "confidence": 1.0,
      "uuid": "af2c36f8-707a-48e3-a62b-1aa07adc9b72",
      "name": "convulsion",
      "url": "https://haz-map.com/Findings/14",
      "category": "findings"
    },
    {
      "type": "name_match",
      "text": "pentadecane",
      "confidence": 1.0,
      "uuid": "c94bad99-ad05-4452-a705-4d5deee091ba",
      "name": "Pentadecane",
      "url": "https://haz-map.com/Agents/1786",
      "category": "agents"
    },
    {
      "type": "name_match",
      "text": "palmitic acid",
      "confidence": 1.0,
      "uuid": "9a0987be-5bc6-483b-8daf-6ed89325a82c",
      "name": "Palmitic acid",
      "url": "https://haz-map.com/Agents/6518",
      "category": "agents"
    },
    {
      "type": "name_match",
      "text": "tallow",
      "confidence": 1.0,
      "uuid": "8626387d-ec32-429b-976a-814e9b5197af",
      "name": "Tallow",
      "url": "https://haz-map.com/Agents/7294",
      "category": "agents"
    },
    {
      "type": "name_match",
      "text": "palm oil",
      "confidence": 1.0,
      "uuid": "bda08ae2-a665-45eb-855a-2f36dc9fcbbc",
      "name": "Palm oil",
      "url": "https://haz-map.com/Agents/16355",
      "category": "agents"
    },
    {
      "type": "name_match",
      "text": "water",
      "confidence": 1.0,
      "uuid": "6f2a7557-dfd2-49bc-9b4b-a93cd8e225d4",
      "name": "Water",
      "url": "https://haz-map.com/Agents/18668",
      "category": "agents"
    }
  ],
  "all_links": [
    {
      "text": "Search PubMed",
      "url": "https://www.ncbi.nlm.nih.gov/pubmed?term=Palmitic+acid%20AND%20human%5Bmh%5D%20AND%20%28Occupational%20Diseases%20%5Bmh%5D%20OR%20Occupational%20Exposure%20%5Bmh%5D%29%20%20AND%20%28tox%5Bsb%5D%29&cmd=search"
    },
    {
      "text": "Painting (Pigments, Binders, and Biocides)",
      "url": "https://haz-map.com/Processes/145"
    }
  ]
}