{
  "metadata": {
    "scraped_from": "https://haz-map.com/Agents/6766",
    "entity_name": "Polypropylene glycol monomethyl ether",
    "category": "agents",
    "uuid": "9a287b75-a033-41f3-bd79-3237ec45909d",
    "scraped_at": "2025-07-23T20:05:24.112485"
  },
  "parsed_at": "2025-07-24T01:12:54.201175",
  "title": "Polypropylene glycol monomethyl ether",
  "sections": {
    "general": {
      "agent_name": {
        "original_name": "Agent Name",
        "value": "Polypropylene glycol monomethyl ether",
        "links": [],
        "cross_references": [
          {
            "type": "name_match",
            "text": "ethyl ether",
            "confidence": 1.0,
            "uuid": "c95edddc-9ad3-44f8-bafa-78e0bd19db3a",
            "name": "Ethyl ether",
            "url": "https://haz-map.com/Agents/455",
            "category": "agents"
          },
          {
            "type": "name_match",
            "text": "propylene glycol monomethyl ether",
            "confidence": 1.0,
            "uuid": "5c8c4e0f-36a6-4d6b-9ec9-7b59401a6e22",
            "name": "Propylene glycol monomethyl ether",
            "url": "https://haz-map.com/Agents/614",
            "category": "agents"
          },
          {
            "type": "name_match",
            "text": "propylene glycol",
            "confidence": 1.0,
            "uuid": "6d7c61db-8aa2-442e-b6c7-8a0385ab77da",
            "name": "Propylene glycol",
            "url": "https://haz-map.com/Agents/685",
            "category": "agents"
          },
          {
            "type": "name_match",
            "text": "polypropylene",
            "confidence": 1.0,
            "uuid": "a9a4e600-f5bf-4392-b369-8020b5c06e8e",
            "name": "Polypropylene",
            "url": "https://haz-map.com/Agents/854",
            "category": "agents"
          },
          {
            "type": "name_match",
            "text": "propylene",
            "confidence": 1.0,
            "uuid": "78ac73a1-0029-4a50-b283-561134c72041",
            "name": "Propylene",
            "url": "https://haz-map.com/Agents/1078",
            "category": "agents"
          },
          {
            "type": "name_match",
            "text": "polypropylene glycol",
            "confidence": 1.0,
            "uuid": "02d74fc4-3e9a-4def-894b-7ad7b55f392b",
            "name": "Polypropylene glycol",
            "url": "https://haz-map.com/Agents/6765",
            "category": "agents"
          },
          {
            "type": "name_match",
            "text": "polypropylene glycol monomethyl ether",
            "confidence": 1.0,
            "uuid": "9a287b75-a033-41f3-bd79-3237ec45909d",
            "name": "Polypropylene glycol monomethyl ether",
            "url": "https://haz-map.com/Agents/6766",
            "category": "agents"
          }
        ]
      },
      "cas_number": {
        "original_name": "CAS Number",
        "value": "37286-64-9",
        "links": [],
        "cross_references": []
      },
      "formula": {
        "original_name": "Formula",
        "value": "(C3-H6-O)mult-C-H4-O",
        "links": [],
        "cross_references": []
      },
      "major_category": {
        "original_name": "Major Category",
        "value": "Other Classes",
        "links": [],
        "cross_references": []
      },
      "synonyms": {
        "original_name": "Synonyms",
        "value": "PPG-3 Methyl ether; Polyoxypropylene (3) methyl ether; Polypropylene glycol (3) methyl ether; Adeka Carpoll ML 250; Dowfroth 250; Jeffox OL 2700; Poly(oxy(methyl-1,2-ethanediyl)), alpha-methyl-omega-hydroxy-; Poly(oxypropylene) monomethyl ether; Polypropylene glycol methyl ether; Polypropylene glycol methyl monoether; Polypropylene glycol monomethylether; Propylene oxide-methanol adduct; Slovasol 2430; Ucon LB-1715; alpha-Methyl-omega-hydroxypoly(oxy(methyl-1,2-ethanediyl)); [ChemIDplus]",
        "links": [],
        "cross_references": [
          {
            "type": "name_match",
            "text": "propylene oxide",
            "confidence": 1.0,
            "uuid": "ba4ef42b-914d-42fd-b05e-f2b28e97be37",
            "name": "Propylene oxide",
            "url": "https://haz-map.com/Agents/423",
            "category": "agents"
          },
          {
            "type": "name_match",
            "text": "ethyl ether",
            "confidence": 1.0,
            "uuid": "c95edddc-9ad3-44f8-bafa-78e0bd19db3a",
            "name": "Ethyl ether",
            "url": "https://haz-map.com/Agents/455",
            "category": "agents"
          },
          {
            "type": "name_match",
            "text": "propylene glycol",
            "confidence": 1.0,
            "uuid": "6d7c61db-8aa2-442e-b6c7-8a0385ab77da",
            "name": "Propylene glycol",
            "url": "https://haz-map.com/Agents/685",
            "category": "agents"
          },
          {
            "type": "name_match",
            "text": "polypropylene",
            "confidence": 1.0,
            "uuid": "a9a4e600-f5bf-4392-b369-8020b5c06e8e",
            "name": "Polypropylene",
            "url": "https://haz-map.com/Agents/854",
            "category": "agents"
          },
          {
            "type": "name_match",
            "text": "ethane",
            "confidence": 1.0,
            "uuid": "5162cc8c-dfb9-4060-81ac-38a8cec7f9dd",
            "name": "Ethane",
            "url": "https://haz-map.com/Agents/1075",
            "category": "agents"
          },
          {
            "type": "name_match",
            "text": "propylene",
            "confidence": 1.0,
            "uuid": "78ac73a1-0029-4a50-b283-561134c72041",
            "name": "Propylene",
            "url": "https://haz-map.com/Agents/1078",
            "category": "agents"
          },
          {
            "type": "name_match",
            "text": "polypropylene glycol",
            "confidence": 1.0,
            "uuid": "02d74fc4-3e9a-4def-894b-7ad7b55f392b",
            "name": "Polypropylene glycol",
            "url": "https://haz-map.com/Agents/6765",
            "category": "agents"
          }
        ]
      },
      "category": {
        "original_name": "Category",
        "value": "Other Organic Compounds",
        "links": [],
        "cross_references": [
          {
            "type": "fuzzy_match",
            "text": "organic compounds",
            "matched_name": "Tin, organic compounds",
            "confidence": 0.8196969696969697,
            "uuid": "e027d413-8869-4308-9eb2-27d768b011ea",
            "category": "agents",
            "url": "https://haz-map.com/Agents/656"
          }
        ]
      },
      "description": {
        "original_name": "Description",
        "value": "Colorless to amber odorless liquid; [CHEMINFO]",
        "links": [],
        "cross_references": []
      },
      "sourcesuses": {
        "original_name": "Sources/Uses",
        "value": "Used as a functional fluid and diluent and a water-insoluble lubricant; [HSDB] Used in surfactants and hydraulic fluids and as a solvent and flotation frother; [CHEMINFO]",
        "links": [],
        "cross_references": [
          {
            "type": "name_match",
            "text": "water",
            "confidence": 1.0,
            "uuid": "6f2a7557-dfd2-49bc-9b4b-a93cd8e225d4",
            "name": "Water",
            "url": "https://haz-map.com/Agents/18668",
            "category": "agents"
          }
        ]
      },
      "comments": {
        "original_name": "Comments",
        "value": "Emergency treatment: \"Glycols\"; [HSDB] See \"1,4-Dioxane.\"",
        "links": [],
        "cross_references": [
          {
            "type": "name_match",
            "text": "1,4-dioxane",
            "confidence": 1.0,
            "uuid": "dc0a6e50-5bf2-4132-b581-9288333fa994",
            "name": "1,4-Dioxane",
            "url": "https://haz-map.com/Agents/408",
            "category": "agents"
          }
        ]
      },
      "biomedical_references": {
        "original_name": "Biomedical References",
        "value": "Search PubMed",
        "links": [
          {
            "text": "Search PubMed",
            "url": "https://www.ncbi.nlm.nih.gov/pubmed?term=Polypropylene+glycol+monomethyl+ether%20AND%20human%5Bmh%5D%20AND%20%28Occupational%20Diseases%20%5Bmh%5D%20OR%20Occupational%20Exposure%20%5Bmh%5D%29%20%20AND%20%28tox%5Bsb%5D%29&cmd=search"
          }
        ],
        "cross_references": []
      }
    },
    "exposure_assessment": {
      "vapor_pressure": {
        "original_name": "Vapor Pressure",
        "value": "0.0001 mm Hg",
        "links": [],
        "cross_references": []
      }
    },
    "diseases_processes_and_activities_linked_to_this_agent": {
      "other_information": {
        "original_name": "Other Information",
        "value": "No other related information on this agent was found.",
        "links": [],
        "cross_references": []
      }
    }
  },
  "cross_references": [
    {
      "type": "name_match",
      "text": "1,4-dioxane",
      "confidence": 1.0,
      "uuid": "dc0a6e50-5bf2-4132-b581-9288333fa994",
      "name": "1,4-Dioxane",
      "url": "https://haz-map.com/Agents/408",
      "category": "agents"
    },
    {
      "type": "name_match",
      "text": "propylene oxide",
      "confidence": 1.0,
      "uuid": "ba4ef42b-914d-42fd-b05e-f2b28e97be37",
      "name": "Propylene oxide",
      "url": "https://haz-map.com/Agents/423",
      "category": "agents"
    },
    {
      "type": "name_match",
      "text": "ethyl ether",
      "confidence": 1.0,
      "uuid": "c95edddc-9ad3-44f8-bafa-78e0bd19db3a",
      "name": "Ethyl ether",
      "url": "https://haz-map.com/Agents/455",
      "category": "agents"
    },
    {
      "type": "name_match",
      "text": "propylene glycol monomethyl ether",
      "confidence": 1.0,
      "uuid": "5c8c4e0f-36a6-4d6b-9ec9-7b59401a6e22",
      "name": "Propylene glycol monomethyl ether",
      "url": "https://haz-map.com/Agents/614",
      "category": "agents"
    },
    {
      "type": "name_match",
      "text": "propylene glycol",
      "confidence": 1.0,
      "uuid": "6d7c61db-8aa2-442e-b6c7-8a0385ab77da",
      "name": "Propylene glycol",
      "url": "https://haz-map.com/Agents/685",
      "category": "agents"
    },
    {
      "type": "name_match",
      "text": "polypropylene",
      "confidence": 1.0,
      "uuid": "a9a4e600-f5bf-4392-b369-8020b5c06e8e",
      "name": "Polypropylene",
      "url": "https://haz-map.com/Agents/854",
      "category": "agents"
    },
    {
      "type": "name_match",
      "text": "ethane",
      "confidence": 1.0,
      "uuid": "5162cc8c-dfb9-4060-81ac-38a8cec7f9dd",
      "name": "Ethane",
      "url": "https://haz-map.com/Agents/1075",
      "category": "agents"
    },
    {
      "type": "name_match",
      "text": "propylene",
      "confidence": 1.0,
      "uuid": "78ac73a1-0029-4a50-b283-561134c72041",
      "name": "Propylene",
      "url": "https://haz-map.com/Agents/1078",
      "category": "agents"
    },
    {
      "type": "name_match",
      "text": "polypropylene glycol",
      "confidence": 1.0,
      "uuid": "02d74fc4-3e9a-4def-894b-7ad7b55f392b",
      "name": "Polypropylene glycol",
      "url": "https://haz-map.com/Agents/6765",
      "category": "agents"
    },
    {
      "type": "name_match",
      "text": "polypropylene glycol monomethyl ether",
      "confidence": 1.0,
      "uuid": "9a287b75-a033-41f3-bd79-3237ec45909d",
      "name": "Polypropylene glycol monomethyl ether",
      "url": "https://haz-map.com/Agents/6766",
      "category": "agents"
    },
    {
      "type": "name_match",
      "text": "water",
      "confidence": 1.0,
      "uuid": "6f2a7557-dfd2-49bc-9b4b-a93cd8e225d4",
      "name": "Water",
      "url": "https://haz-map.com/Agents/18668",
      "category": "agents"
    },
    {
      "type": "fuzzy_match",
      "text": "organic compounds",
      "matched_name": "Tin, organic compounds",
      "confidence": 0.8196969696969697,
      "uuid": "e027d413-8869-4308-9eb2-27d768b011ea",
      "category": "agents",
      "url": "https://haz-map.com/Agents/656"
    }
  ],
  "all_links": [
    {
      "text": "Search PubMed",
      "url": "https://www.ncbi.nlm.nih.gov/pubmed?term=Polypropylene+glycol+monomethyl+ether%20AND%20human%5Bmh%5D%20AND%20%28Occupational%20Diseases%20%5Bmh%5D%20OR%20Occupational%20Exposure%20%5Bmh%5D%29%20%20AND%20%28tox%5Bsb%5D%29&cmd=search"
    }
  ]
}