{
  "metadata": {
    "scraped_from": "https://haz-map.com/Agents/5451",
    "entity_name": "Glyoxylic acid",
    "category": "agents",
    "uuid": "9a494de6-a33d-4794-9235-27f27305cf3a",
    "scraped_at": "2025-07-23T19:52:29.145865"
  },
  "parsed_at": "2025-07-24T00:51:55.133249",
  "title": "Glyoxylic acid",
  "sections": {
    "general": {
      "agent_name": {
        "original_name": "Agent Name",
        "value": "Glyoxylic acid",
        "links": [],
        "cross_references": [
          {
            "type": "name_match",
            "text": "glyoxylic acid",
            "confidence": 1.0,
            "uuid": "9a494de6-a33d-4794-9235-27f27305cf3a",
            "name": "Glyoxylic acid",
            "url": "https://haz-map.com/Agents/5451",
            "category": "agents"
          }
        ]
      },
      "cas_number": {
        "original_name": "CAS Number",
        "value": "298-12-4",
        "links": [],
        "cross_references": []
      },
      "formula": {
        "original_name": "Formula",
        "value": "C2-H2-O3",
        "links": [],
        "cross_references": []
      },
      "major_category": {
        "original_name": "Major Category",
        "value": "Other Classes",
        "links": [],
        "cross_references": []
      },
      "synonyms": {
        "original_name": "Synonyms",
        "value": "Acetic acid, oxo-; Formic acid, formyl-; Formylformic acid; GLYOXYLIC ACID; Glyoxalic acid; Kyselina glyoxylova [Czech]; Oxalaldehydic acid; Oxoacetic acid; Oxoethanoic acid; alpha-Ketoacetic acid; [ChemIDplus] UN3265",
        "links": [],
        "cross_references": [
          {
            "type": "name_match",
            "text": "glyoxal",
            "confidence": 1.0,
            "uuid": "2b9e6427-9bb5-4761-a203-976d2bf6ac36",
            "name": "Glyoxal",
            "url": "https://haz-map.com/Agents/98",
            "category": "agents"
          },
          {
            "type": "name_match",
            "text": "acetic acid",
            "confidence": 1.0,
            "uuid": "0905c6e4-df84-4895-a92d-658819239bbd",
            "name": "Acetic acid",
            "url": "https://haz-map.com/Agents/207",
            "category": "agents"
          },
          {
            "type": "name_match",
            "text": "formic acid",
            "confidence": 1.0,
            "uuid": "5de50e8b-f1d4-40c0-a85a-79ed7fd08ea8",
            "name": "Formic acid",
            "url": "https://haz-map.com/Agents/497",
            "category": "agents"
          },
          {
            "type": "name_match",
            "text": "glyoxylic acid",
            "confidence": 1.0,
            "uuid": "9a494de6-a33d-4794-9235-27f27305cf3a",
            "name": "Glyoxylic acid",
            "url": "https://haz-map.com/Agents/5451",
            "category": "agents"
          }
        ]
      },
      "category": {
        "original_name": "Category",
        "value": "Organic Acids",
        "links": [],
        "cross_references": []
      },
      "description": {
        "original_name": "Description",
        "value": "Solid with an obnoxious odor; Deliquesces quickly to form a syrup in contact with air; [Merck Index] Found as colorless to straw-yellow 50% aqueous solution; [CAMEO] 50% aqueous solution is colorless to light yellow viscous liquid; [MSDSonline]",
        "links": [],
        "cross_references": [
          {
            "type": "name_match",
            "text": "ht",
            "confidence": 1.0,
            "uuid": "764df367-8d53-4a11-81a2-31ccfe122a8d",
            "name": "HT",
            "url": "https://haz-map.com/Agents/2168",
            "category": "agents"
          }
        ]
      },
      "sourcesuses": {
        "original_name": "Sources/Uses",
        "value": "Found in unripe fruit, young green leaves, and very young sugar beets; [Merck Index] Used to make flavorings, perfumes, cosmetics, pharmaceuticals, dyes, plastics, agricultural chemicals, and vanillin; Also used as a cleaning agent for a variety of industrial applications; [HSDB]",
        "links": [],
        "cross_references": [
          {
            "type": "name_match",
            "text": "mica",
            "confidence": 1.0,
            "uuid": "433f26f1-c399-4596-b179-ce3843cfd465",
            "name": "Mica",
            "url": "https://haz-map.com/Agents/621",
            "category": "agents"
          },
          {
            "type": "name_match",
            "text": "pharmaceuticals",
            "confidence": 1.0,
            "uuid": "713c3c30-b67e-4a2f-a90f-b32f8a306332",
            "name": "PHARMACEUTICALS",
            "url": "https://haz-map.com/Agents/1000",
            "category": "agents"
          },
          {
            "type": "name_match",
            "text": "vanillin",
            "confidence": 1.0,
            "uuid": "b18209ef-a08d-4dca-8b00-7907c33bb340",
            "name": "Vanillin",
            "url": "https://haz-map.com/Agents/18622",
            "category": "agents"
          }
        ]
      },
      "comments": {
        "original_name": "Comments",
        "value": "Corrosive acid; [Merck Index] Emergency treatment: see \"Oxalic acid.\" A skin, eye, and mucous membrane irritant; [HSDB] May cause irritation or burns to skin and eyes; [CAMEO] A corrosive substance that can cause injury to the skin, eyes, and respiratory tract; Inhalation may cause chemical pneumonitis; [MSDSonline]",
        "links": [],
        "cross_references": [
          {
            "type": "name_match",
            "text": "burn",
            "confidence": 1.0,
            "uuid": "63665de5-6376-4918-8dbf-4c10c4d63837",
            "name": "burn",
            "url": "https://haz-map.com/Findings/204",
            "category": "findings"
          },
          {
            "type": "name_match",
            "text": "mica",
            "confidence": 1.0,
            "uuid": "433f26f1-c399-4596-b179-ce3843cfd465",
            "name": "Mica",
            "url": "https://haz-map.com/Agents/621",
            "category": "agents"
          }
        ]
      },
      "biomedical_references": {
        "original_name": "Biomedical References",
        "value": "Search PubMed",
        "links": [
          {
            "text": "Search PubMed",
            "url": "https://www.ncbi.nlm.nih.gov/pubmed?term=Glyoxylic+acid%20AND%20human%5Bmh%5D%20AND%20%28Occupational%20Diseases%20%5Bmh%5D%20OR%20Occupational%20Exposure%20%5Bmh%5D%29%20%20AND%20%28tox%5Bsb%5D%29&cmd=search"
          }
        ],
        "cross_references": []
      }
    },
    "exposure_assessment": {
      "vapor_pressure": {
        "original_name": "Vapor Pressure",
        "value": "1.06 mm Hg",
        "links": [],
        "cross_references": []
      },
      "explanatory_notes": {
        "original_name": "Explanatory Notes",
        "value": "The Guide in the Emergency Response Guidebook is for \"Corrosive liquid, acidic, organic, n.o.s.\" VP from ChemIDplus;",
        "links": [],
        "cross_references": []
      }
    },
    "adverse_effects": {
      "toxic_pneumonitis": {
        "original_name": "Toxic Pneumonitis",
        "value": "Yes",
        "links": [],
        "cross_references": []
      },
      "hepatotoxin": {
        "original_name": "Hepatotoxin",
        "value": "Hepatoxic (a) from occupational exposure (secondary effect) or (b) in animal studies or in humans after ingestion",
        "links": [],
        "cross_references": []
      },
      "dermatotoxin": {
        "original_name": "Dermatotoxin",
        "value": "Skin burns",
        "links": [],
        "cross_references": [
          {
            "type": "name_match",
            "text": "burn",
            "confidence": 1.0,
            "uuid": "63665de5-6376-4918-8dbf-4c10c4d63837",
            "name": "burn",
            "url": "https://haz-map.com/Findings/204",
            "category": "findings"
          }
        ]
      }
    },
    "diseases_processes_and_activities_linked_to_this_agent": {
      "other_information": {
        "original_name": "Other Information",
        "value": "No other related information on this agent was found.",
        "links": [],
        "cross_references": []
      }
    }
  },
  "cross_references": [
    {
      "type": "name_match",
      "text": "burn",
      "confidence": 1.0,
      "uuid": "63665de5-6376-4918-8dbf-4c10c4d63837",
      "name": "burn",
      "url": "https://haz-map.com/Findings/204",
      "category": "findings"
    },
    {
      "type": "name_match",
      "text": "glyoxal",
      "confidence": 1.0,
      "uuid": "2b9e6427-9bb5-4761-a203-976d2bf6ac36",
      "name": "Glyoxal",
      "url": "https://haz-map.com/Agents/98",
      "category": "agents"
    },
    {
      "type": "name_match",
      "text": "acetic acid",
      "confidence": 1.0,
      "uuid": "0905c6e4-df84-4895-a92d-658819239bbd",
      "name": "Acetic acid",
      "url": "https://haz-map.com/Agents/207",
      "category": "agents"
    },
    {
      "type": "name_match",
      "text": "formic acid",
      "confidence": 1.0,
      "uuid": "5de50e8b-f1d4-40c0-a85a-79ed7fd08ea8",
      "name": "Formic acid",
      "url": "https://haz-map.com/Agents/497",
      "category": "agents"
    },
    {
      "type": "name_match",
      "text": "mica",
      "confidence": 1.0,
      "uuid": "433f26f1-c399-4596-b179-ce3843cfd465",
      "name": "Mica",
      "url": "https://haz-map.com/Agents/621",
      "category": "agents"
    },
    {
      "type": "name_match",
      "text": "pharmaceuticals",
      "confidence": 1.0,
      "uuid": "713c3c30-b67e-4a2f-a90f-b32f8a306332",
      "name": "PHARMACEUTICALS",
      "url": "https://haz-map.com/Agents/1000",
      "category": "agents"
    },
    {
      "type": "name_match",
      "text": "ht",
      "confidence": 1.0,
      "uuid": "764df367-8d53-4a11-81a2-31ccfe122a8d",
      "name": "HT",
      "url": "https://haz-map.com/Agents/2168",
      "category": "agents"
    },
    {
      "type": "name_match",
      "text": "glyoxylic acid",
      "confidence": 1.0,
      "uuid": "9a494de6-a33d-4794-9235-27f27305cf3a",
      "name": "Glyoxylic acid",
      "url": "https://haz-map.com/Agents/5451",
      "category": "agents"
    },
    {
      "type": "name_match",
      "text": "vanillin",
      "confidence": 1.0,
      "uuid": "b18209ef-a08d-4dca-8b00-7907c33bb340",
      "name": "Vanillin",
      "url": "https://haz-map.com/Agents/18622",
      "category": "agents"
    }
  ],
  "all_links": [
    {
      "text": "Search PubMed",
      "url": "https://www.ncbi.nlm.nih.gov/pubmed?term=Glyoxylic+acid%20AND%20human%5Bmh%5D%20AND%20%28Occupational%20Diseases%20%5Bmh%5D%20OR%20Occupational%20Exposure%20%5Bmh%5D%29%20%20AND%20%28tox%5Bsb%5D%29&cmd=search"
    }
  ]
}