{
  "metadata": {
    "scraped_from": "https://haz-map.com/Agents/20107",
    "entity_name": "5-Bromovaleric acid",
    "category": "agents",
    "uuid": "9b99387a-25ed-4c3c-83f0-cd259af23add",
    "scraped_at": "2025-07-23T22:19:11.768994"
  },
  "parsed_at": "2025-07-24T00:52:32.452019",
  "title": "5-Bromovaleric acid",
  "sections": {
    "general": {
      "agent_name": {
        "original_name": "Agent Name",
        "value": "5-Bromovaleric acid",
        "links": [],
        "cross_references": [
          {
            "type": "name_match",
            "text": "5-bromovaleric acid",
            "confidence": 1.0,
            "uuid": "9b99387a-25ed-4c3c-83f0-cd259af23add",
            "name": "5-Bromovaleric acid",
            "url": "https://haz-map.com/Agents/20107",
            "category": "agents"
          }
        ]
      },
      "cas_number": {
        "original_name": "CAS Number",
        "value": "2067-33-6",
        "links": [],
        "cross_references": []
      },
      "formula": {
        "original_name": "Formula",
        "value": "C5-H9-Br-O2",
        "links": [],
        "cross_references": []
      },
      "major_category": {
        "original_name": "Major Category",
        "value": "Other Classes",
        "links": [],
        "cross_references": []
      },
      "synonyms": {
        "original_name": "Synonyms",
        "value": "5-Bromopentanoic acid; delta-Bromovaleric acid; Valeric acid, 5-bromo-; Pentanoic acid, 5-bromo-; [ChemIDplus] UN3261",
        "links": [],
        "cross_references": []
      },
      "category": {
        "original_name": "Category",
        "value": "Organic Acids",
        "links": [],
        "cross_references": []
      },
      "description": {
        "original_name": "Description",
        "value": "White crystalline powder; [Alfa Aesar MSDS]",
        "links": [],
        "cross_references": [
          {
            "type": "fuzzy_match",
            "text": "crystalline",
            "matched_name": "Silica, crystalline",
            "confidence": 0.7061403508771931,
            "uuid": "f920e8a2-46df-41b7-af8d-0368a777251e",
            "category": "agents",
            "url": "https://haz-map.com/Agents/427"
          }
        ]
      },
      "comments": {
        "original_name": "Comments",
        "value": "Causes burns; Inhalation may cause corrosive injuries to upper respiratory tract and lungs; [Alfa Aesar MSDS] See \"3-Bromopropionic acid.\"",
        "links": [],
        "cross_references": [
          {
            "type": "name_match",
            "text": "burn",
            "confidence": 1.0,
            "uuid": "63665de5-6376-4918-8dbf-4c10c4d63837",
            "name": "burn",
            "url": "https://haz-map.com/Findings/204",
            "category": "findings"
          },
          {
            "type": "name_match",
            "text": "propionic acid",
            "confidence": 1.0,
            "uuid": "519c4d0a-ac6f-4f79-a08f-47ebc278e0b4",
            "name": "Propionic acid",
            "url": "https://haz-map.com/Agents/609",
            "category": "agents"
          },
          {
            "type": "name_match",
            "text": "3-bromopropionic acid",
            "confidence": 1.0,
            "uuid": "e406a78a-0fcd-4521-92d9-3a4ac31ad4ee",
            "name": "3-Bromopropionic acid",
            "url": "https://haz-map.com/Agents/1443",
            "category": "agents"
          }
        ]
      },
      "biomedical_references": {
        "original_name": "Biomedical References",
        "value": "Search PubMed",
        "links": [
          {
            "text": "Search PubMed",
            "url": "https://www.ncbi.nlm.nih.gov/pubmed?term=5-Bromovaleric+acid%20AND%20human%5Bmh%5D%20AND%20%28Occupational%20Diseases%20%5Bmh%5D%20OR%20Occupational%20Exposure%20%5Bmh%5D%29%20%20AND%20%28tox%5Bsb%5D%29&cmd=search"
          }
        ],
        "cross_references": []
      }
    },
    "exposure_assessment": {
      "vapor_pressure": {
        "original_name": "Vapor Pressure",
        "value": "0.015 mm Hg",
        "links": [],
        "cross_references": []
      },
      "explanatory_notes": {
        "original_name": "Explanatory Notes",
        "value": "The Guide in the Emergency Response Guidebook is for \"Corrosive solid, acidic, organic, n.o.s.\"",
        "links": [],
        "cross_references": []
      }
    },
    "adverse_effects": {
      "toxic_pneumonitis": {
        "original_name": "Toxic Pneumonitis",
        "value": "Yes",
        "links": [],
        "cross_references": []
      },
      "dermatotoxin": {
        "original_name": "Dermatotoxin",
        "value": "Skin burns",
        "links": [],
        "cross_references": [
          {
            "type": "name_match",
            "text": "burn",
            "confidence": 1.0,
            "uuid": "63665de5-6376-4918-8dbf-4c10c4d63837",
            "name": "burn",
            "url": "https://haz-map.com/Findings/204",
            "category": "findings"
          }
        ]
      }
    },
    "diseases_processes_and_activities_linked_to_this_agent": {
      "other_information": {
        "original_name": "Other Information",
        "value": "No other related information on this agent was found.",
        "links": [],
        "cross_references": []
      }
    }
  },
  "cross_references": [
    {
      "type": "name_match",
      "text": "burn",
      "confidence": 1.0,
      "uuid": "63665de5-6376-4918-8dbf-4c10c4d63837",
      "name": "burn",
      "url": "https://haz-map.com/Findings/204",
      "category": "findings"
    },
    {
      "type": "name_match",
      "text": "propionic acid",
      "confidence": 1.0,
      "uuid": "519c4d0a-ac6f-4f79-a08f-47ebc278e0b4",
      "name": "Propionic acid",
      "url": "https://haz-map.com/Agents/609",
      "category": "agents"
    },
    {
      "type": "name_match",
      "text": "3-bromopropionic acid",
      "confidence": 1.0,
      "uuid": "e406a78a-0fcd-4521-92d9-3a4ac31ad4ee",
      "name": "3-Bromopropionic acid",
      "url": "https://haz-map.com/Agents/1443",
      "category": "agents"
    },
    {
      "type": "name_match",
      "text": "5-bromovaleric acid",
      "confidence": 1.0,
      "uuid": "9b99387a-25ed-4c3c-83f0-cd259af23add",
      "name": "5-Bromovaleric acid",
      "url": "https://haz-map.com/Agents/20107",
      "category": "agents"
    },
    {
      "type": "fuzzy_match",
      "text": "crystalline",
      "matched_name": "Silica, crystalline",
      "confidence": 0.7061403508771931,
      "uuid": "f920e8a2-46df-41b7-af8d-0368a777251e",
      "category": "agents",
      "url": "https://haz-map.com/Agents/427"
    }
  ],
  "all_links": [
    {
      "text": "Search PubMed",
      "url": "https://www.ncbi.nlm.nih.gov/pubmed?term=5-Bromovaleric+acid%20AND%20human%5Bmh%5D%20AND%20%28Occupational%20Diseases%20%5Bmh%5D%20OR%20Occupational%20Exposure%20%5Bmh%5D%29%20%20AND%20%28tox%5Bsb%5D%29&cmd=search"
    }
  ]
}