{
  "metadata": {
    "scraped_from": "https://haz-map.com/Agents/5538",
    "entity_name": "Hexyltrichlorosilane",
    "category": "agents",
    "uuid": "9ba6d778-0691-4e8a-a880-5d1e51ac8840",
    "scraped_at": "2025-07-23T19:53:32.570078"
  },
  "parsed_at": "2025-07-24T01:14:20.077536",
  "title": "Hexyltrichlorosilane",
  "sections": {
    "general": {
      "agent_name": {
        "original_name": "Agent Name",
        "value": "Hexyltrichlorosilane",
        "links": [],
        "cross_references": [
          {
            "type": "name_match",
            "text": "trichlorosilane",
            "confidence": 1.0,
            "uuid": "6167c10c-9f80-4be7-8d6f-d56a8dff0532",
            "name": "Trichlorosilane",
            "url": "https://haz-map.com/Agents/1373",
            "category": "agents"
          },
          {
            "type": "name_match",
            "text": "hexyltrichlorosilane",
            "confidence": 1.0,
            "uuid": "9ba6d778-0691-4e8a-a880-5d1e51ac8840",
            "name": "Hexyltrichlorosilane",
            "url": "https://haz-map.com/Agents/5538",
            "category": "agents"
          }
        ]
      },
      "cas_number": {
        "original_name": "CAS Number",
        "value": "928-65-4",
        "links": [],
        "cross_references": []
      },
      "formula": {
        "original_name": "Formula",
        "value": "C6-H13-Cl3-Si",
        "links": [],
        "cross_references": []
      },
      "major_category": {
        "original_name": "Major Category",
        "value": "Toxic Gases & Vapors",
        "links": [],
        "cross_references": []
      },
      "synonyms": {
        "original_name": "Synonyms",
        "value": "Silane, hexyltrichloro-; Silane, trichlorohexyl-; Trichlorohexylsilane; [ChemIDplus] n-Hexyltrichlorosilane; Trichloro-n-hexylsilane; [MSDSonline] UN1784",
        "links": [],
        "cross_references": [
          {
            "type": "name_match",
            "text": "trichlorosilane",
            "confidence": 1.0,
            "uuid": "6167c10c-9f80-4be7-8d6f-d56a8dff0532",
            "name": "Trichlorosilane",
            "url": "https://haz-map.com/Agents/1373",
            "category": "agents"
          },
          {
            "type": "name_match",
            "text": "hexyltrichlorosilane",
            "confidence": 1.0,
            "uuid": "9ba6d778-0691-4e8a-a880-5d1e51ac8840",
            "name": "Hexyltrichlorosilane",
            "url": "https://haz-map.com/Agents/5538",
            "category": "agents"
          }
        ]
      },
      "category": {
        "original_name": "Category",
        "value": "Chlorosilanes",
        "links": [],
        "cross_references": [
          {
            "type": "name_match",
            "text": "chlorosilanes",
            "confidence": 1.0,
            "uuid": "9067acc8-066c-4a06-8282-d403262ae462",
            "name": "CHLOROSILANES",
            "url": "https://haz-map.com/Agents/1584",
            "category": "agents"
          }
        ]
      },
      "description": {
        "original_name": "Description",
        "value": "Colorless liquid with a penetrating odor; Fumes in moist air; [Hawley]",
        "links": [],
        "cross_references": []
      },
      "sourcesuses": {
        "original_name": "Sources/Uses",
        "value": "Used as chemical intermediate; [Hawley]",
        "links": [],
        "cross_references": [
          {
            "type": "name_match",
            "text": "mica",
            "confidence": 1.0,
            "uuid": "433f26f1-c399-4596-b179-ce3843cfd465",
            "name": "Mica",
            "url": "https://haz-map.com/Agents/621",
            "category": "agents"
          }
        ]
      },
      "comments": {
        "original_name": "Comments",
        "value": "A strong irritant; [Hawley] Produces hydrogen chloride when spilled in water; [ERG 2016] A severe skin, eye, and mucous membrane irritant; [HSDB] Reacts violently with water evolving heat, hydrogen (combustible), and hydrogen chloride (corrosive); Produces hydrogen chloride gas on contact with air; Corrosive to tissue; [CAMEO] Reacts violently with water; A corrosive substance that can cause injury to the skin, eyes, and respiratory tract; [MSDSonline]",
        "links": [],
        "cross_references": [
          {
            "type": "name_match",
            "text": "hydrogen chloride",
            "confidence": 1.0,
            "uuid": "706dfaa8-58f7-4376-809d-ba14aee8dbd3",
            "name": "Hydrogen chloride",
            "url": "https://haz-map.com/Agents/513",
            "category": "agents"
          },
          {
            "type": "name_match",
            "text": "hydrogen",
            "confidence": 1.0,
            "uuid": "e2d9645f-5559-4d88-b820-fc4710c154f2",
            "name": "Hydrogen",
            "url": "https://haz-map.com/Agents/1070",
            "category": "agents"
          },
          {
            "type": "name_match",
            "text": "water",
            "confidence": 1.0,
            "uuid": "6f2a7557-dfd2-49bc-9b4b-a93cd8e225d4",
            "name": "Water",
            "url": "https://haz-map.com/Agents/18668",
            "category": "agents"
          }
        ]
      },
      "biomedical_references": {
        "original_name": "Biomedical References",
        "value": "Search PubMed",
        "links": [
          {
            "text": "Search PubMed",
            "url": "https://www.ncbi.nlm.nih.gov/pubmed?term=Hexyltrichlorosilane%20AND%20human%5Bmh%5D%20AND%20%28Occupational%20Diseases%20%5Bmh%5D%20OR%20Occupational%20Exposure%20%5Bmh%5D%29%20%20AND%20%28tox%5Bsb%5D%29&cmd=search"
          }
        ],
        "cross_references": []
      }
    },
    "exposure_assessment": {
      "tih": {
        "original_name": "TIH",
        "value": "Yes",
        "links": [],
        "cross_references": []
      },
      "dangerous_when_wet": {
        "original_name": "Dangerous When Wet",
        "value": "Yes",
        "links": [],
        "cross_references": []
      },
      "vapor_pressure": {
        "original_name": "Vapor Pressure",
        "value": "1.25 mm Hg",
        "links": [],
        "cross_references": []
      },
      "explanatory_notes": {
        "original_name": "Explanatory Notes",
        "value": "Not TIH in land-based spills, but TiH substance released when spilled in water; [ERG 2016] VP from ChemIDplus;",
        "links": [],
        "cross_references": [
          {
            "type": "name_match",
            "text": "water",
            "confidence": 1.0,
            "uuid": "6f2a7557-dfd2-49bc-9b4b-a93cd8e225d4",
            "name": "Water",
            "url": "https://haz-map.com/Agents/18668",
            "category": "agents"
          }
        ]
      }
    },
    "adverse_effects": {
      "toxic_pneumonitis": {
        "original_name": "Toxic Pneumonitis",
        "value": "Yes",
        "links": [],
        "cross_references": []
      },
      "dermatotoxin": {
        "original_name": "Dermatotoxin",
        "value": "Skin burns",
        "links": [],
        "cross_references": [
          {
            "type": "name_match",
            "text": "burn",
            "confidence": 1.0,
            "uuid": "63665de5-6376-4918-8dbf-4c10c4d63837",
            "name": "burn",
            "url": "https://haz-map.com/Findings/204",
            "category": "findings"
          }
        ]
      }
    },
    "diseases_processes_and_activities_linked_to_this_agent": {
      "diseases": {
        "original_name": "Diseases",
        "value": "Occupational diseases associated with exposure to this agent: Pneumonitis, toxic",
        "links": [
          {
            "text": "Pneumonitis, toxic",
            "url": "https://haz-map.com/Diseases/306"
          }
        ],
        "cross_references": [
          {
            "type": "url_match",
            "text": "Pneumonitis, toxic",
            "url": "https://haz-map.com/Diseases/306",
            "confidence": 1.0,
            "uuid": "cd799281-0284-450d-bb82-ed6b675616ac",
            "name": "Pneumonitis, toxic",
            "category": "diseases"
          }
        ]
      },
      "processes": {
        "original_name": "Processes",
        "value": "Industrial Processes with risk of exposure: Toxic Gas from Spilling Chemical in Water",
        "links": [
          {
            "text": "Toxic Gas from Spilling Chemical in Water",
            "url": "https://haz-map.com/Processes/256"
          }
        ],
        "cross_references": [
          {
            "type": "name_match",
            "text": "mica",
            "confidence": 1.0,
            "uuid": "433f26f1-c399-4596-b179-ce3843cfd465",
            "name": "Mica",
            "url": "https://haz-map.com/Agents/621",
            "category": "agents"
          },
          {
            "type": "name_match",
            "text": "water",
            "confidence": 1.0,
            "uuid": "6f2a7557-dfd2-49bc-9b4b-a93cd8e225d4",
            "name": "Water",
            "url": "https://haz-map.com/Agents/18668",
            "category": "agents"
          }
        ]
      }
    }
  },
  "cross_references": [
    {
      "type": "url_match",
      "text": "Pneumonitis, toxic",
      "url": "https://haz-map.com/Diseases/306",
      "confidence": 1.0,
      "uuid": "cd799281-0284-450d-bb82-ed6b675616ac",
      "name": "Pneumonitis, toxic",
      "category": "diseases"
    },
    {
      "type": "name_match",
      "text": "burn",
      "confidence": 1.0,
      "uuid": "63665de5-6376-4918-8dbf-4c10c4d63837",
      "name": "burn",
      "url": "https://haz-map.com/Findings/204",
      "category": "findings"
    },
    {
      "type": "name_match",
      "text": "hydrogen chloride",
      "confidence": 1.0,
      "uuid": "706dfaa8-58f7-4376-809d-ba14aee8dbd3",
      "name": "Hydrogen chloride",
      "url": "https://haz-map.com/Agents/513",
      "category": "agents"
    },
    {
      "type": "name_match",
      "text": "mica",
      "confidence": 1.0,
      "uuid": "433f26f1-c399-4596-b179-ce3843cfd465",
      "name": "Mica",
      "url": "https://haz-map.com/Agents/621",
      "category": "agents"
    },
    {
      "type": "name_match",
      "text": "hydrogen",
      "confidence": 1.0,
      "uuid": "e2d9645f-5559-4d88-b820-fc4710c154f2",
      "name": "Hydrogen",
      "url": "https://haz-map.com/Agents/1070",
      "category": "agents"
    },
    {
      "type": "name_match",
      "text": "trichlorosilane",
      "confidence": 1.0,
      "uuid": "6167c10c-9f80-4be7-8d6f-d56a8dff0532",
      "name": "Trichlorosilane",
      "url": "https://haz-map.com/Agents/1373",
      "category": "agents"
    },
    {
      "type": "name_match",
      "text": "chlorosilanes",
      "confidence": 1.0,
      "uuid": "9067acc8-066c-4a06-8282-d403262ae462",
      "name": "CHLOROSILANES",
      "url": "https://haz-map.com/Agents/1584",
      "category": "agents"
    },
    {
      "type": "name_match",
      "text": "hexyltrichlorosilane",
      "confidence": 1.0,
      "uuid": "9ba6d778-0691-4e8a-a880-5d1e51ac8840",
      "name": "Hexyltrichlorosilane",
      "url": "https://haz-map.com/Agents/5538",
      "category": "agents"
    },
    {
      "type": "name_match",
      "text": "water",
      "confidence": 1.0,
      "uuid": "6f2a7557-dfd2-49bc-9b4b-a93cd8e225d4",
      "name": "Water",
      "url": "https://haz-map.com/Agents/18668",
      "category": "agents"
    }
  ],
  "all_links": [
    {
      "text": "Search PubMed",
      "url": "https://www.ncbi.nlm.nih.gov/pubmed?term=Hexyltrichlorosilane%20AND%20human%5Bmh%5D%20AND%20%28Occupational%20Diseases%20%5Bmh%5D%20OR%20Occupational%20Exposure%20%5Bmh%5D%29%20%20AND%20%28tox%5Bsb%5D%29&cmd=search"
    },
    {
      "text": "Pneumonitis, toxic",
      "url": "https://haz-map.com/Diseases/306"
    },
    {
      "text": "Toxic Gas from Spilling Chemical in Water",
      "url": "https://haz-map.com/Processes/256"
    }
  ]
}