{
  "metadata": {
    "scraped_from": "https://haz-map.com/Agents/14979",
    "entity_name": "Isoleucine",
    "category": "agents",
    "uuid": "9c66d894-43c2-4148-a2cf-8ee9baa66139",
    "scraped_at": "2025-07-23T21:27:42.617316"
  },
  "parsed_at": "2025-07-24T00:57:29.500748",
  "title": "Isoleucine",
  "sections": {
    "general": {
      "agent_name": {
        "original_name": "Agent Name",
        "value": "Isoleucine",
        "links": [],
        "cross_references": [
          {
            "type": "name_match",
            "text": "isoleucine",
            "confidence": 1.0,
            "uuid": "9c66d894-43c2-4148-a2cf-8ee9baa66139",
            "name": "Isoleucine",
            "url": "https://haz-map.com/Agents/14979",
            "category": "agents"
          },
          {
            "type": "name_match",
            "text": "leucine",
            "confidence": 1.0,
            "uuid": "ba733437-a503-4dd6-9f58-9ce7cb505d48",
            "name": "Leucine",
            "url": "https://haz-map.com/Agents/15162",
            "category": "agents"
          }
        ]
      },
      "cas_number": {
        "original_name": "CAS Number",
        "value": "73-32-5",
        "links": [],
        "cross_references": []
      },
      "formula": {
        "original_name": "Formula",
        "value": "C6-H13-N-O2",
        "links": [],
        "cross_references": []
      },
      "major_category": {
        "original_name": "Major Category",
        "value": "Biological Agents",
        "links": [],
        "cross_references": []
      },
      "synonyms": {
        "original_name": "Synonyms",
        "value": "(2S,3S)-2-Amino-3-methylpentanoic acid; (2S,3S)-alpha-Amino-beta-merthyl-n-valeric acid; (2S,3S)-alpha-Amino-beta-merthylvaleric acid; (2S,3S)-alpha-Amino-beta-methyl-n-valeric acid; (S)-Isoleucine; (S,S)-Isoleucine; (S-(R*,R*))-2-Amino-3-methylpentanoic acid; 2-Amino-3-methylpentanoic acid, (S-(R*,R*))-; 2S,3S-Isoleucine; Acetic acid, amino(1-methylpropyl)-, (R*,R*)-; Isoleucina [Spanish]; Isoleucinum [Latin]; L-Norvaline, 3-methyl-, erythro-; Norvaline, 3-methyl-; Pentanoic acid, 2-amino-3-methyl-, (S-(R*,R))-; erythro-L-Isoleucine; L-Isoleucine; Isoleucine, L-; [ChemIDplus] Ile; I; erythro-3-Methyl-L-norvaline; [Merck Index]",
        "links": [],
        "cross_references": [
          {
            "type": "name_match",
            "text": "acetic acid",
            "confidence": 1.0,
            "uuid": "0905c6e4-df84-4895-a92d-658819239bbd",
            "name": "Acetic acid",
            "url": "https://haz-map.com/Agents/207",
            "category": "agents"
          },
          {
            "type": "name_match",
            "text": "isoleucine",
            "confidence": 1.0,
            "uuid": "9c66d894-43c2-4148-a2cf-8ee9baa66139",
            "name": "Isoleucine",
            "url": "https://haz-map.com/Agents/14979",
            "category": "agents"
          },
          {
            "type": "name_match",
            "text": "leucine",
            "confidence": 1.0,
            "uuid": "ba733437-a503-4dd6-9f58-9ce7cb505d48",
            "name": "Leucine",
            "url": "https://haz-map.com/Agents/15162",
            "category": "agents"
          },
          {
            "type": "name_match",
            "text": "valine",
            "confidence": 1.0,
            "uuid": "2284e5a1-ea67-4774-8b4e-3eaa65e20c4f",
            "name": "Valine",
            "url": "https://haz-map.com/Agents/18597",
            "category": "agents"
          }
        ]
      },
      "category": {
        "original_name": "Category",
        "value": "Amino Acids and Derivatives",
        "links": [],
        "cross_references": []
      },
      "description": {
        "original_name": "Description",
        "value": "Waxy shiny solid; [Merck Index] White solid; [Sigma-Aldrich MSDS]",
        "links": [],
        "cross_references": []
      },
      "sourcesuses": {
        "original_name": "Sources/Uses",
        "value": "An essential amino acid; [Merck Index] An isomer of leucine found in many proteins; [ChemIDplus] Used as a flavoring agent and nutritional supplement for foods; [FDA] Used a nutritional supplement and for biochemical research; [HSDB]",
        "links": [],
        "cross_references": [
          {
            "type": "name_match",
            "text": "mica",
            "confidence": 1.0,
            "uuid": "433f26f1-c399-4596-b179-ce3843cfd465",
            "name": "Mica",
            "url": "https://haz-map.com/Agents/621",
            "category": "agents"
          },
          {
            "type": "name_match",
            "text": "leucine",
            "confidence": 1.0,
            "uuid": "ba733437-a503-4dd6-9f58-9ce7cb505d48",
            "name": "Leucine",
            "url": "https://haz-map.com/Agents/15162",
            "category": "agents"
          }
        ]
      },
      "comments": {
        "original_name": "Comments",
        "value": "May cause irritation; Shown to have tumor promoting activity for bladder carcinomas; [Sigma-Aldrich MSDS]",
        "links": [],
        "cross_references": [
          {
            "type": "name_match",
            "text": "dde",
            "confidence": 1.0,
            "uuid": "88506fb4-e7b1-4bde-a283-917057f67fc2",
            "name": "DDE",
            "url": "https://haz-map.com/Agents/4656",
            "category": "agents"
          }
        ]
      },
      "biomedical_references": {
        "original_name": "Biomedical References",
        "value": "Search PubMed",
        "links": [
          {
            "text": "Search PubMed",
            "url": "https://www.ncbi.nlm.nih.gov/pubmed?term=Isoleucine%20AND%20human%5Bmh%5D%20AND%20%28Occupational%20Diseases%20%5Bmh%5D%20OR%20Occupational%20Exposure%20%5Bmh%5D%29%20%20AND%20%28tox%5Bsb%5D%29&cmd=search"
          }
        ],
        "cross_references": []
      }
    },
    "exposure_assessment": {
      "vapor_pressure": {
        "original_name": "Vapor Pressure",
        "value": "1.34E-08 mm Hg",
        "links": [],
        "cross_references": []
      }
    },
    "diseases_processes_and_activities_linked_to_this_agent": {
      "other_information": {
        "original_name": "Other Information",
        "value": "No other related information on this agent was found.",
        "links": [],
        "cross_references": []
      }
    }
  },
  "cross_references": [
    {
      "type": "name_match",
      "text": "acetic acid",
      "confidence": 1.0,
      "uuid": "0905c6e4-df84-4895-a92d-658819239bbd",
      "name": "Acetic acid",
      "url": "https://haz-map.com/Agents/207",
      "category": "agents"
    },
    {
      "type": "name_match",
      "text": "mica",
      "confidence": 1.0,
      "uuid": "433f26f1-c399-4596-b179-ce3843cfd465",
      "name": "Mica",
      "url": "https://haz-map.com/Agents/621",
      "category": "agents"
    },
    {
      "type": "name_match",
      "text": "dde",
      "confidence": 1.0,
      "uuid": "88506fb4-e7b1-4bde-a283-917057f67fc2",
      "name": "DDE",
      "url": "https://haz-map.com/Agents/4656",
      "category": "agents"
    },
    {
      "type": "name_match",
      "text": "isoleucine",
      "confidence": 1.0,
      "uuid": "9c66d894-43c2-4148-a2cf-8ee9baa66139",
      "name": "Isoleucine",
      "url": "https://haz-map.com/Agents/14979",
      "category": "agents"
    },
    {
      "type": "name_match",
      "text": "leucine",
      "confidence": 1.0,
      "uuid": "ba733437-a503-4dd6-9f58-9ce7cb505d48",
      "name": "Leucine",
      "url": "https://haz-map.com/Agents/15162",
      "category": "agents"
    },
    {
      "type": "name_match",
      "text": "valine",
      "confidence": 1.0,
      "uuid": "2284e5a1-ea67-4774-8b4e-3eaa65e20c4f",
      "name": "Valine",
      "url": "https://haz-map.com/Agents/18597",
      "category": "agents"
    }
  ],
  "all_links": [
    {
      "text": "Search PubMed",
      "url": "https://www.ncbi.nlm.nih.gov/pubmed?term=Isoleucine%20AND%20human%5Bmh%5D%20AND%20%28Occupational%20Diseases%20%5Bmh%5D%20OR%20Occupational%20Exposure%20%5Bmh%5D%29%20%20AND%20%28tox%5Bsb%5D%29&cmd=search"
    }
  ]
}