{
  "metadata": {
    "scraped_from": "https://haz-map.com/Agents/4318",
    "entity_name": "Methazole",
    "category": "agents",
    "uuid": "9ccd6f13-fd56-4d13-8383-0be1974c2ac5",
    "scraped_at": "2025-07-23T19:39:56.734208"
  },
  "parsed_at": "2025-07-24T01:14:38.819853",
  "title": "Methazole",
  "sections": {
    "general": {
      "agent_name": {
        "original_name": "Agent Name",
        "value": "Methazole",
        "links": [],
        "cross_references": [
          {
            "type": "name_match",
            "text": "methazole",
            "confidence": 1.0,
            "uuid": "9ccd6f13-fd56-4d13-8383-0be1974c2ac5",
            "name": "Methazole",
            "url": "https://haz-map.com/Agents/4318",
            "category": "agents"
          }
        ]
      },
      "cas_number": {
        "original_name": "CAS Number",
        "value": "20354-26-1",
        "links": [],
        "cross_references": []
      },
      "formula": {
        "original_name": "Formula",
        "value": "C9-H6-Cl2-N2-O3",
        "links": [],
        "cross_references": []
      },
      "major_category": {
        "original_name": "Major Category",
        "value": "Pesticides",
        "links": [],
        "cross_references": []
      },
      "synonyms": {
        "original_name": "Synonyms",
        "value": "1,2,4-Oxadiazolidine-3,5-dione, 2-(3,4-dichlorophenyl)-4-methyl-; 2-(3,4-Dichlorophenyl)-4-methyl-1,2,4-oxadiazolidine-3,5-dione; Bioxone; Chlormethazole; Chlormethazole [ISO:PROP]; Metazol; Metazole; Methazole; Methazole [ANSI:BSI]; Mezopur; Oxydiazol; Paxilon; Probe; Probe 75; Tunic; VCS 438; [ChemIDplus]",
        "links": [],
        "cross_references": [
          {
            "type": "name_match",
            "text": "dichlorophen",
            "confidence": 1.0,
            "uuid": "43441a9d-e8c4-49f1-8bbf-52d24da33df3",
            "name": "Dichlorophen",
            "url": "https://haz-map.com/Agents/1159",
            "category": "agents"
          },
          {
            "type": "name_match",
            "text": "methazole",
            "confidence": 1.0,
            "uuid": "9ccd6f13-fd56-4d13-8383-0be1974c2ac5",
            "name": "Methazole",
            "url": "https://haz-map.com/Agents/4318",
            "category": "agents"
          }
        ]
      },
      "category": {
        "original_name": "Category",
        "value": "Herbicides, Other",
        "links": [],
        "cross_references": [
          {
            "type": "name_match",
            "text": "herbicides",
            "confidence": 1.0,
            "uuid": "195f29ae-3f15-47c5-836d-0a9791db3fc1",
            "name": "HERBICIDES",
            "url": "https://haz-map.com/Agents/703",
            "category": "agents"
          }
        ]
      },
      "description": {
        "original_name": "Description",
        "value": "White solid; Technical material: Light tan solid; [HSDB]",
        "links": [],
        "cross_references": [
          {
            "type": "name_match",
            "text": "ht",
            "confidence": 1.0,
            "uuid": "764df367-8d53-4a11-81a2-31ccfe122a8d",
            "name": "HT",
            "url": "https://haz-map.com/Agents/2168",
            "category": "agents"
          }
        ]
      },
      "sourcesuses": {
        "original_name": "Sources/Uses",
        "value": "Used as pre- and post-emergence herbicide for control of annual broad-leaved weeds and some grasses in cotton, onions, potatoes, citrus and stone fruit, vines, lucerne, tea, and nuts; [HSDB]",
        "links": [],
        "cross_references": [
          {
            "type": "name_match",
            "text": "tea",
            "confidence": 1.0,
            "uuid": "773409e5-ac1a-4c9e-9470-9667ca82091c",
            "name": "Tea",
            "url": "https://haz-map.com/Agents/878",
            "category": "agents"
          },
          {
            "type": "name_match",
            "text": "onions",
            "confidence": 1.0,
            "uuid": "0cea53cd-ef9b-436d-a6c3-1b3e2b0ffaae",
            "name": "Onions",
            "url": "https://haz-map.com/Agents/990",
            "category": "agents"
          }
        ]
      },
      "comments": {
        "original_name": "Comments",
        "value": "A mild skin and eye irritant; Not a skin sensitizer; Not a mutagen or teratogen at <60 mg/kg daily in rabbits; Cataract formation was only adverse effect in 3 generation study of rats at 100 mg/kg diet; 90-day feeding studies of rats and dogs at 500 mg/kg/bw caused no effects in blood, urine, or histopathological exams; [HSDB] A skin and eye irritant; [eChemPortal: ESIS]",
        "links": [],
        "cross_references": [
          {
            "type": "name_match",
            "text": "cataract",
            "confidence": 1.0,
            "uuid": "3e1b6957-4241-488a-8796-192306a93517",
            "name": "cataract",
            "url": "https://haz-map.com/Findings/131",
            "category": "findings"
          }
        ]
      },
      "restricted": {
        "original_name": "Restricted",
        "value": "Cancelled--no longer registered as a pesticide for use in the US; [HSDB]",
        "links": [],
        "cross_references": []
      },
      "biomedical_references": {
        "original_name": "Biomedical References",
        "value": "Search PubMed",
        "links": [
          {
            "text": "Search PubMed",
            "url": "https://www.ncbi.nlm.nih.gov/pubmed?term=Methazole%20AND%20human%5Bmh%5D%20AND%20%28Occupational%20Diseases%20%5Bmh%5D%20OR%20Occupational%20Exposure%20%5Bmh%5D%29%20%20AND%20%28tox%5Bsb%5D%29&cmd=search"
          }
        ],
        "cross_references": []
      }
    },
    "exposure_assessment": {
      "vapor_pressure": {
        "original_name": "Vapor Pressure",
        "value": "1E-06 mm Hg",
        "links": [],
        "cross_references": []
      }
    },
    "diseases_processes_and_activities_linked_to_this_agent": {
      "processes": {
        "original_name": "Processes",
        "value": "Industrial Processes with risk of exposure: Farming (Pesticides)",
        "links": [
          {
            "text": "Farming (Pesticides)",
            "url": "https://haz-map.com/Processes/218"
          }
        ],
        "cross_references": [
          {
            "type": "url_match",
            "text": "Farming (Pesticides)",
            "url": "https://haz-map.com/Processes/218",
            "confidence": 1.0,
            "uuid": "cf1e5815-c9bb-4917-82a5-391848170b7e",
            "name": "Farming (Pesticides)",
            "category": "processes"
          }
        ]
      }
    }
  },
  "cross_references": [
    {
      "type": "url_match",
      "text": "Farming (Pesticides)",
      "url": "https://haz-map.com/Processes/218",
      "confidence": 1.0,
      "uuid": "cf1e5815-c9bb-4917-82a5-391848170b7e",
      "name": "Farming (Pesticides)",
      "category": "processes"
    },
    {
      "type": "name_match",
      "text": "cataract",
      "confidence": 1.0,
      "uuid": "3e1b6957-4241-488a-8796-192306a93517",
      "name": "cataract",
      "url": "https://haz-map.com/Findings/131",
      "category": "findings"
    },
    {
      "type": "name_match",
      "text": "herbicides",
      "confidence": 1.0,
      "uuid": "195f29ae-3f15-47c5-836d-0a9791db3fc1",
      "name": "HERBICIDES",
      "url": "https://haz-map.com/Agents/703",
      "category": "agents"
    },
    {
      "type": "name_match",
      "text": "tea",
      "confidence": 1.0,
      "uuid": "773409e5-ac1a-4c9e-9470-9667ca82091c",
      "name": "Tea",
      "url": "https://haz-map.com/Agents/878",
      "category": "agents"
    },
    {
      "type": "name_match",
      "text": "onions",
      "confidence": 1.0,
      "uuid": "0cea53cd-ef9b-436d-a6c3-1b3e2b0ffaae",
      "name": "Onions",
      "url": "https://haz-map.com/Agents/990",
      "category": "agents"
    },
    {
      "type": "name_match",
      "text": "dichlorophen",
      "confidence": 1.0,
      "uuid": "43441a9d-e8c4-49f1-8bbf-52d24da33df3",
      "name": "Dichlorophen",
      "url": "https://haz-map.com/Agents/1159",
      "category": "agents"
    },
    {
      "type": "name_match",
      "text": "ht",
      "confidence": 1.0,
      "uuid": "764df367-8d53-4a11-81a2-31ccfe122a8d",
      "name": "HT",
      "url": "https://haz-map.com/Agents/2168",
      "category": "agents"
    },
    {
      "type": "name_match",
      "text": "methazole",
      "confidence": 1.0,
      "uuid": "9ccd6f13-fd56-4d13-8383-0be1974c2ac5",
      "name": "Methazole",
      "url": "https://haz-map.com/Agents/4318",
      "category": "agents"
    }
  ],
  "all_links": [
    {
      "text": "Search PubMed",
      "url": "https://www.ncbi.nlm.nih.gov/pubmed?term=Methazole%20AND%20human%5Bmh%5D%20AND%20%28Occupational%20Diseases%20%5Bmh%5D%20OR%20Occupational%20Exposure%20%5Bmh%5D%29%20%20AND%20%28tox%5Bsb%5D%29&cmd=search"
    },
    {
      "text": "Farming (Pesticides)",
      "url": "https://haz-map.com/Processes/218"
    }
  ]
}