{
  "metadata": {
    "scraped_from": "https://haz-map.com/Agents/20854",
    "entity_name": "N-Hydroxy-N,N-dimethylamine hydrochloride",
    "category": "agents",
    "uuid": "9cd650e4-7285-44e7-9d79-80a0df5ae94c",
    "scraped_at": "2025-07-23T22:33:05.370961"
  },
  "parsed_at": "2025-07-24T00:57:22.907761",
  "title": "N-Hydroxy-N,N-dimethylamine hydrochloride",
  "sections": {
    "general": {
      "agent_name": {
        "original_name": "Agent Name",
        "value": "N-Hydroxy-N,N-dimethylamine hydrochloride",
        "links": [],
        "cross_references": [
          {
            "type": "name_match",
            "text": "methylamine",
            "confidence": 1.0,
            "uuid": "7c3781b5-5294-474a-a015-e59574d00b69",
            "name": "Methylamine",
            "url": "https://haz-map.com/Agents/217",
            "category": "agents"
          },
          {
            "type": "name_match",
            "text": "dimethylamine",
            "confidence": 1.0,
            "uuid": "8b0c8378-7df0-486c-ae0f-b4ea920d8f83",
            "name": "Dimethylamine",
            "url": "https://haz-map.com/Agents/218",
            "category": "agents"
          },
          {
            "type": "name_match",
            "text": "ethylamine",
            "confidence": 1.0,
            "uuid": "41ca4da8-b990-420a-86b2-3d77404fb7f4",
            "name": "Ethylamine",
            "url": "https://haz-map.com/Agents/220",
            "category": "agents"
          },
          {
            "type": "name_match",
            "text": "ethylamine hydrochloride",
            "confidence": 1.0,
            "uuid": "08a09ef2-946e-4ee5-aa9d-a81dc3e85697",
            "name": "Ethylamine hydrochloride",
            "url": "https://haz-map.com/Agents/14218",
            "category": "agents"
          },
          {
            "type": "name_match",
            "text": "methylamine hydrochloride",
            "confidence": 1.0,
            "uuid": "2a643b6b-9fea-42ca-8bea-d5a8439a124f",
            "name": "Methylamine hydrochloride",
            "url": "https://haz-map.com/Agents/15589",
            "category": "agents"
          },
          {
            "type": "name_match",
            "text": "dimethylamine hydrochloride",
            "confidence": 1.0,
            "uuid": "1a25b3f4-a787-40c7-adb1-725bda0f7ebf",
            "name": "Dimethylamine hydrochloride",
            "url": "https://haz-map.com/Agents/20620",
            "category": "agents"
          },
          {
            "type": "name_match",
            "text": "n-hydroxy-n,n-dimethylamine hydrochloride",
            "confidence": 1.0,
            "uuid": "9cd650e4-7285-44e7-9d79-80a0df5ae94c",
            "name": "N-Hydroxy-N,N-dimethylamine hydrochloride",
            "url": "https://haz-map.com/Agents/20854",
            "category": "agents"
          }
        ]
      },
      "cas_number": {
        "original_name": "CAS Number",
        "value": "16645-06-0",
        "links": [],
        "cross_references": []
      },
      "formula": {
        "original_name": "Formula",
        "value": "C2-H7-N-O.Cl-H",
        "links": [],
        "cross_references": []
      },
      "major_category": {
        "original_name": "Major Category",
        "value": "Nitrogen Compounds",
        "links": [],
        "cross_references": [
          {
            "type": "name_match",
            "text": "nitrogen",
            "confidence": 1.0,
            "uuid": "db5e90a9-06d2-45b9-8b81-f345a89b0bc0",
            "name": "Nitrogen",
            "url": "https://haz-map.com/Agents/1072",
            "category": "agents"
          }
        ]
      },
      "synonyms": {
        "original_name": "Synonyms",
        "value": "N,N-Dimethylhydroxylamine hydrochloride; [Sigma-Aldrich MSDS]",
        "links": [],
        "cross_references": [
          {
            "type": "name_match",
            "text": "hydroxylamine",
            "confidence": 1.0,
            "uuid": "2c5bddbe-1859-4f6c-9590-541312386fcb",
            "name": "Hydroxylamine",
            "url": "https://haz-map.com/Agents/1092",
            "category": "agents"
          },
          {
            "type": "name_match",
            "text": "hydroxylamine hydrochloride",
            "confidence": 1.0,
            "uuid": "781dc129-990c-4280-802a-7ac0b63a543c",
            "name": "Hydroxylamine hydrochloride",
            "url": "https://haz-map.com/Agents/2019",
            "category": "agents"
          }
        ]
      },
      "category": {
        "original_name": "Category",
        "value": "Hydroxylamines",
        "links": [],
        "cross_references": [
          {
            "type": "name_match",
            "text": "hydroxylamine",
            "confidence": 1.0,
            "uuid": "2c5bddbe-1859-4f6c-9590-541312386fcb",
            "name": "Hydroxylamine",
            "url": "https://haz-map.com/Agents/1092",
            "category": "agents"
          }
        ]
      },
      "description": {
        "original_name": "Description",
        "value": "Light yellow hygroscopic crystals; [Sigma-Aldrich MSDS]",
        "links": [],
        "cross_references": [
          {
            "type": "name_match",
            "text": "ht",
            "confidence": 1.0,
            "uuid": "764df367-8d53-4a11-81a2-31ccfe122a8d",
            "name": "HT",
            "url": "https://haz-map.com/Agents/2168",
            "category": "agents"
          }
        ]
      },
      "comments": {
        "original_name": "Comments",
        "value": "An irritant; [Sigma-Aldrich MSDS]",
        "links": [],
        "cross_references": []
      },
      "biomedical_references": {
        "original_name": "Biomedical References",
        "value": "Search PubMed",
        "links": [
          {
            "text": "Search PubMed",
            "url": "https://www.ncbi.nlm.nih.gov/pubmed?term=N-Hydroxy-N%2cN-dimethylamine+hydrochloride%20AND%20human%5Bmh%5D%20AND%20%28Occupational%20Diseases%20%5Bmh%5D%20OR%20Occupational%20Exposure%20%5Bmh%5D%29%20%20AND%20%28tox%5Bsb%5D%29&cmd=search"
          }
        ],
        "cross_references": []
      }
    },
    "exposure_assessment": {
      "vapor_pressure": {
        "original_name": "Vapor Pressure",
        "value": "21.2 mm Hg",
        "links": [],
        "cross_references": []
      }
    },
    "diseases_processes_and_activities_linked_to_this_agent": {
      "other_information": {
        "original_name": "Other Information",
        "value": "No other related information on this agent was found.",
        "links": [],
        "cross_references": []
      }
    }
  },
  "cross_references": [
    {
      "type": "name_match",
      "text": "methylamine",
      "confidence": 1.0,
      "uuid": "7c3781b5-5294-474a-a015-e59574d00b69",
      "name": "Methylamine",
      "url": "https://haz-map.com/Agents/217",
      "category": "agents"
    },
    {
      "type": "name_match",
      "text": "dimethylamine",
      "confidence": 1.0,
      "uuid": "8b0c8378-7df0-486c-ae0f-b4ea920d8f83",
      "name": "Dimethylamine",
      "url": "https://haz-map.com/Agents/218",
      "category": "agents"
    },
    {
      "type": "name_match",
      "text": "ethylamine",
      "confidence": 1.0,
      "uuid": "41ca4da8-b990-420a-86b2-3d77404fb7f4",
      "name": "Ethylamine",
      "url": "https://haz-map.com/Agents/220",
      "category": "agents"
    },
    {
      "type": "name_match",
      "text": "nitrogen",
      "confidence": 1.0,
      "uuid": "db5e90a9-06d2-45b9-8b81-f345a89b0bc0",
      "name": "Nitrogen",
      "url": "https://haz-map.com/Agents/1072",
      "category": "agents"
    },
    {
      "type": "name_match",
      "text": "hydroxylamine",
      "confidence": 1.0,
      "uuid": "2c5bddbe-1859-4f6c-9590-541312386fcb",
      "name": "Hydroxylamine",
      "url": "https://haz-map.com/Agents/1092",
      "category": "agents"
    },
    {
      "type": "name_match",
      "text": "hydroxylamine hydrochloride",
      "confidence": 1.0,
      "uuid": "781dc129-990c-4280-802a-7ac0b63a543c",
      "name": "Hydroxylamine hydrochloride",
      "url": "https://haz-map.com/Agents/2019",
      "category": "agents"
    },
    {
      "type": "name_match",
      "text": "ht",
      "confidence": 1.0,
      "uuid": "764df367-8d53-4a11-81a2-31ccfe122a8d",
      "name": "HT",
      "url": "https://haz-map.com/Agents/2168",
      "category": "agents"
    },
    {
      "type": "name_match",
      "text": "ethylamine hydrochloride",
      "confidence": 1.0,
      "uuid": "08a09ef2-946e-4ee5-aa9d-a81dc3e85697",
      "name": "Ethylamine hydrochloride",
      "url": "https://haz-map.com/Agents/14218",
      "category": "agents"
    },
    {
      "type": "name_match",
      "text": "methylamine hydrochloride",
      "confidence": 1.0,
      "uuid": "2a643b6b-9fea-42ca-8bea-d5a8439a124f",
      "name": "Methylamine hydrochloride",
      "url": "https://haz-map.com/Agents/15589",
      "category": "agents"
    },
    {
      "type": "name_match",
      "text": "dimethylamine hydrochloride",
      "confidence": 1.0,
      "uuid": "1a25b3f4-a787-40c7-adb1-725bda0f7ebf",
      "name": "Dimethylamine hydrochloride",
      "url": "https://haz-map.com/Agents/20620",
      "category": "agents"
    },
    {
      "type": "name_match",
      "text": "n-hydroxy-n,n-dimethylamine hydrochloride",
      "confidence": 1.0,
      "uuid": "9cd650e4-7285-44e7-9d79-80a0df5ae94c",
      "name": "N-Hydroxy-N,N-dimethylamine hydrochloride",
      "url": "https://haz-map.com/Agents/20854",
      "category": "agents"
    }
  ],
  "all_links": [
    {
      "text": "Search PubMed",
      "url": "https://www.ncbi.nlm.nih.gov/pubmed?term=N-Hydroxy-N%2cN-dimethylamine+hydrochloride%20AND%20human%5Bmh%5D%20AND%20%28Occupational%20Diseases%20%5Bmh%5D%20OR%20Occupational%20Exposure%20%5Bmh%5D%29%20%20AND%20%28tox%5Bsb%5D%29&cmd=search"
    }
  ]
}