{
  "metadata": {
    "scraped_from": "https://haz-map.com/Agents/20657",
    "entity_name": "Disperse Orange 13",
    "category": "agents",
    "uuid": "9cd7b85f-136b-4a77-a920-ee624dcf8b64",
    "scraped_at": "2025-07-23T22:29:22.536901"
  },
  "parsed_at": "2025-07-24T00:54:02.141939",
  "title": "Disperse Orange 13",
  "sections": {
    "general": {
      "agent_name": {
        "original_name": "Agent Name",
        "value": "Disperse Orange 13",
        "links": [],
        "cross_references": [
          {
            "type": "name_match",
            "text": "disperse orange 13",
            "confidence": 1.0,
            "uuid": "9cd7b85f-136b-4a77-a920-ee624dcf8b64",
            "name": "Disperse Orange 13",
            "url": "https://haz-map.com/Agents/20657",
            "category": "agents"
          }
        ]
      },
      "cas_number": {
        "original_name": "CAS Number",
        "value": "6253-10-7",
        "links": [],
        "cross_references": []
      },
      "formula": {
        "original_name": "Formula",
        "value": "C22-H16-N4-O",
        "links": [],
        "cross_references": []
      },
      "major_category": {
        "original_name": "Major Category",
        "value": "Dyes",
        "links": [],
        "cross_references": []
      },
      "synonyms": {
        "original_name": "Synonyms",
        "value": "C.I. Disperse Orange 13; Orange 13; p-((4-(Phenylazo)-1-naphthyl)azo)phenol; Phenol, 4-((4-(phenylazo)-1-naphthalenyl)azo)-; Phenol, 4-(2-(4-(2-phenyldiazenyl)-1-naphthalenyl)diazenyl)-; [ChemIDplus] 4-[4-(Phenylazo )-1-naphthylazo]phenol; [Sigma-Aldrich MSDS]",
        "links": [],
        "cross_references": [
          {
            "type": "name_match",
            "text": "phenol",
            "confidence": 1.0,
            "uuid": "03141a03-a7df-4f51-9a37-adde1a7c4b31",
            "name": "Phenol",
            "url": "https://haz-map.com/Agents/84",
            "category": "agents"
          },
          {
            "type": "name_match",
            "text": "ht",
            "confidence": 1.0,
            "uuid": "764df367-8d53-4a11-81a2-31ccfe122a8d",
            "name": "HT",
            "url": "https://haz-map.com/Agents/2168",
            "category": "agents"
          },
          {
            "type": "name_match",
            "text": "c.i. disperse orange 1",
            "confidence": 1.0,
            "uuid": "259f3a5e-83c7-4486-8248-12047386a498",
            "name": "C.I. Disperse Orange 1",
            "url": "https://haz-map.com/Agents/4090",
            "category": "agents"
          },
          {
            "type": "name_match",
            "text": "disperse orange 13",
            "confidence": 1.0,
            "uuid": "9cd7b85f-136b-4a77-a920-ee624dcf8b64",
            "name": "Disperse Orange 13",
            "url": "https://haz-map.com/Agents/20657",
            "category": "agents"
          }
        ]
      },
      "category": {
        "original_name": "Category",
        "value": "Azo Dyes",
        "links": [],
        "cross_references": []
      },
      "description": {
        "original_name": "Description",
        "value": "Solid; [Sigma-Aldrich MSDS]",
        "links": [],
        "cross_references": []
      },
      "sourcesuses": {
        "original_name": "Sources/Uses",
        "value": "Mainly used as a textile dye; [ExPub: Government of Canada: Screening Assessment]",
        "links": [],
        "cross_references": []
      },
      "comments": {
        "original_name": "Comments",
        "value": "A skin and strong eye irritant; [Sigma-Aldrich MSDS]",
        "links": [],
        "cross_references": []
      },
      "biomedical_references": {
        "original_name": "Biomedical References",
        "value": "Search PubMed",
        "links": [
          {
            "text": "Search PubMed",
            "url": "https://www.ncbi.nlm.nih.gov/pubmed?term=Disperse+Orange+13%20AND%20human%5Bmh%5D%20AND%20%28Occupational%20Diseases%20%5Bmh%5D%20OR%20Occupational%20Exposure%20%5Bmh%5D%29%20%20AND%20%28tox%5Bsb%5D%29&cmd=search"
          }
        ],
        "cross_references": []
      }
    },
    "exposure_assessment": {
      "vapor_pressure": {
        "original_name": "Vapor Pressure",
        "value": "9.2E-12 mm Hg",
        "links": [],
        "cross_references": []
      }
    },
    "diseases_processes_and_activities_linked_to_this_agent": {
      "processes": {
        "original_name": "Processes",
        "value": "Industrial Processes with risk of exposure: Textiles (Printing, Dyeing, or Finishing)",
        "links": [
          {
            "text": "Textiles (Printing, Dyeing, or Finishing)",
            "url": "https://haz-map.com/Processes/235"
          }
        ],
        "cross_references": []
      }
    }
  },
  "cross_references": [
    {
      "type": "name_match",
      "text": "phenol",
      "confidence": 1.0,
      "uuid": "03141a03-a7df-4f51-9a37-adde1a7c4b31",
      "name": "Phenol",
      "url": "https://haz-map.com/Agents/84",
      "category": "agents"
    },
    {
      "type": "name_match",
      "text": "ht",
      "confidence": 1.0,
      "uuid": "764df367-8d53-4a11-81a2-31ccfe122a8d",
      "name": "HT",
      "url": "https://haz-map.com/Agents/2168",
      "category": "agents"
    },
    {
      "type": "name_match",
      "text": "c.i. disperse orange 1",
      "confidence": 1.0,
      "uuid": "259f3a5e-83c7-4486-8248-12047386a498",
      "name": "C.I. Disperse Orange 1",
      "url": "https://haz-map.com/Agents/4090",
      "category": "agents"
    },
    {
      "type": "name_match",
      "text": "disperse orange 13",
      "confidence": 1.0,
      "uuid": "9cd7b85f-136b-4a77-a920-ee624dcf8b64",
      "name": "Disperse Orange 13",
      "url": "https://haz-map.com/Agents/20657",
      "category": "agents"
    }
  ],
  "all_links": [
    {
      "text": "Search PubMed",
      "url": "https://www.ncbi.nlm.nih.gov/pubmed?term=Disperse+Orange+13%20AND%20human%5Bmh%5D%20AND%20%28Occupational%20Diseases%20%5Bmh%5D%20OR%20Occupational%20Exposure%20%5Bmh%5D%29%20%20AND%20%28tox%5Bsb%5D%29&cmd=search"
    },
    {
      "text": "Textiles (Printing, Dyeing, or Finishing)",
      "url": "https://haz-map.com/Processes/235"
    }
  ]
}