{
  "metadata": {
    "scraped_from": "https://haz-map.com/Agents/20776",
    "entity_name": "Ethyl oxalyl chloride",
    "category": "agents",
    "uuid": "9ceaf429-f4ee-41eb-b956-64d6499b7ea4",
    "scraped_at": "2025-07-23T22:31:37.654143"
  },
  "parsed_at": "2025-07-24T01:17:58.346029",
  "title": "Ethyl oxalyl chloride",
  "sections": {
    "general": {
      "agent_name": {
        "original_name": "Agent Name",
        "value": "Ethyl oxalyl chloride",
        "links": [],
        "cross_references": [
          {
            "type": "name_match",
            "text": "oxalyl chloride",
            "confidence": 1.0,
            "uuid": "cb377aec-9671-451b-a564-bfa5712550c3",
            "name": "Oxalyl chloride",
            "url": "https://haz-map.com/Agents/16304",
            "category": "agents"
          },
          {
            "type": "name_match",
            "text": "ethyl oxalyl chloride",
            "confidence": 1.0,
            "uuid": "9ceaf429-f4ee-41eb-b956-64d6499b7ea4",
            "name": "Ethyl oxalyl chloride",
            "url": "https://haz-map.com/Agents/20776",
            "category": "agents"
          }
        ]
      },
      "cas_number": {
        "original_name": "CAS Number",
        "value": "4755-77-5",
        "links": [],
        "cross_references": []
      },
      "formula": {
        "original_name": "Formula",
        "value": "C4-H5-Cl-O3",
        "links": [],
        "cross_references": []
      },
      "major_category": {
        "original_name": "Major Category",
        "value": "Toxic Gases & Vapors",
        "links": [],
        "cross_references": []
      },
      "synonyms": {
        "original_name": "Synonyms",
        "value": "Ethoxalyl chloride; Ethyl 2-chloro-2-oxoacetate; Ethyl chloroglyoxylate; Ethyl chlorooxoacetate; Glyoxylic acid, chloro-, ethyl ester; Monoethyl oxaloyl chloride; Oxalic acid monoethyl ester chloride; Oxalyl chloride, ethyl ester; Acetic acid, 2-chloro-2-oxo-, ethyl ester; Acetic acid, chlorooxo-, ethyl ester; [ChemIDplus] mono-Ethyl oxalyl chloride; [Sigma-Aldrich MSDS] UN2920",
        "links": [],
        "cross_references": [
          {
            "type": "name_match",
            "text": "acetic acid",
            "confidence": 1.0,
            "uuid": "0905c6e4-df84-4895-a92d-658819239bbd",
            "name": "Acetic acid",
            "url": "https://haz-map.com/Agents/207",
            "category": "agents"
          },
          {
            "type": "name_match",
            "text": "glyoxylic acid",
            "confidence": 1.0,
            "uuid": "9a494de6-a33d-4794-9235-27f27305cf3a",
            "name": "Glyoxylic acid",
            "url": "https://haz-map.com/Agents/5451",
            "category": "agents"
          },
          {
            "type": "name_match",
            "text": "oxalyl chloride",
            "confidence": 1.0,
            "uuid": "cb377aec-9671-451b-a564-bfa5712550c3",
            "name": "Oxalyl chloride",
            "url": "https://haz-map.com/Agents/16304",
            "category": "agents"
          },
          {
            "type": "name_match",
            "text": "ethyl oxalyl chloride",
            "confidence": 1.0,
            "uuid": "9ceaf429-f4ee-41eb-b956-64d6499b7ea4",
            "name": "Ethyl oxalyl chloride",
            "url": "https://haz-map.com/Agents/20776",
            "category": "agents"
          }
        ]
      },
      "category": {
        "original_name": "Category",
        "value": "Acid Halides",
        "links": [],
        "cross_references": []
      },
      "description": {
        "original_name": "Description",
        "value": "Clear light brown liquid; [Sigma-Aldrich MSDS]",
        "links": [],
        "cross_references": [
          {
            "type": "name_match",
            "text": "ht",
            "confidence": 1.0,
            "uuid": "764df367-8d53-4a11-81a2-31ccfe122a8d",
            "name": "HT",
            "url": "https://haz-map.com/Agents/2168",
            "category": "agents"
          }
        ]
      },
      "comments": {
        "original_name": "Comments",
        "value": "Causes burns and lachrymation; Inhalation may cause corrosive injuries to upper respiratory tract; [Sigma-Aldrich MSDS] Reacts violently with water; [Alfa Aesar MSDS]",
        "links": [],
        "cross_references": [
          {
            "type": "name_match",
            "text": "burn",
            "confidence": 1.0,
            "uuid": "63665de5-6376-4918-8dbf-4c10c4d63837",
            "name": "burn",
            "url": "https://haz-map.com/Findings/204",
            "category": "findings"
          },
          {
            "type": "name_match",
            "text": "water",
            "confidence": 1.0,
            "uuid": "6f2a7557-dfd2-49bc-9b4b-a93cd8e225d4",
            "name": "Water",
            "url": "https://haz-map.com/Agents/18668",
            "category": "agents"
          }
        ]
      },
      "biomedical_references": {
        "original_name": "Biomedical References",
        "value": "Search PubMed",
        "links": [
          {
            "text": "Search PubMed",
            "url": "https://www.ncbi.nlm.nih.gov/pubmed?term=Ethyl+oxalyl+chloride%20AND%20human%5Bmh%5D%20AND%20%28Occupational%20Diseases%20%5Bmh%5D%20OR%20Occupational%20Exposure%20%5Bmh%5D%29%20%20AND%20%28tox%5Bsb%5D%29&cmd=search"
          }
        ],
        "cross_references": []
      }
    },
    "exposure_assessment": {
      "vapor_pressure": {
        "original_name": "Vapor Pressure",
        "value": "7.61 mm Hg",
        "links": [],
        "cross_references": []
      },
      "explanatory_notes": {
        "original_name": "Explanatory Notes",
        "value": "The Guide in the Emergency Response Guidebook is for \"Corrosive liquid, flammable, n.o.s.\"",
        "links": [],
        "cross_references": []
      }
    },
    "adverse_effects": {
      "lachrymator": {
        "original_name": "Lachrymator",
        "value": "Yes",
        "links": [],
        "cross_references": []
      },
      "dermatotoxin": {
        "original_name": "Dermatotoxin",
        "value": "Skin burns",
        "links": [],
        "cross_references": [
          {
            "type": "name_match",
            "text": "burn",
            "confidence": 1.0,
            "uuid": "63665de5-6376-4918-8dbf-4c10c4d63837",
            "name": "burn",
            "url": "https://haz-map.com/Findings/204",
            "category": "findings"
          }
        ]
      }
    },
    "diseases_processes_and_activities_linked_to_this_agent": {
      "other_information": {
        "original_name": "Other Information",
        "value": "No other related information on this agent was found.",
        "links": [],
        "cross_references": []
      }
    }
  },
  "cross_references": [
    {
      "type": "name_match",
      "text": "burn",
      "confidence": 1.0,
      "uuid": "63665de5-6376-4918-8dbf-4c10c4d63837",
      "name": "burn",
      "url": "https://haz-map.com/Findings/204",
      "category": "findings"
    },
    {
      "type": "name_match",
      "text": "acetic acid",
      "confidence": 1.0,
      "uuid": "0905c6e4-df84-4895-a92d-658819239bbd",
      "name": "Acetic acid",
      "url": "https://haz-map.com/Agents/207",
      "category": "agents"
    },
    {
      "type": "name_match",
      "text": "ht",
      "confidence": 1.0,
      "uuid": "764df367-8d53-4a11-81a2-31ccfe122a8d",
      "name": "HT",
      "url": "https://haz-map.com/Agents/2168",
      "category": "agents"
    },
    {
      "type": "name_match",
      "text": "glyoxylic acid",
      "confidence": 1.0,
      "uuid": "9a494de6-a33d-4794-9235-27f27305cf3a",
      "name": "Glyoxylic acid",
      "url": "https://haz-map.com/Agents/5451",
      "category": "agents"
    },
    {
      "type": "name_match",
      "text": "oxalyl chloride",
      "confidence": 1.0,
      "uuid": "cb377aec-9671-451b-a564-bfa5712550c3",
      "name": "Oxalyl chloride",
      "url": "https://haz-map.com/Agents/16304",
      "category": "agents"
    },
    {
      "type": "name_match",
      "text": "water",
      "confidence": 1.0,
      "uuid": "6f2a7557-dfd2-49bc-9b4b-a93cd8e225d4",
      "name": "Water",
      "url": "https://haz-map.com/Agents/18668",
      "category": "agents"
    },
    {
      "type": "name_match",
      "text": "ethyl oxalyl chloride",
      "confidence": 1.0,
      "uuid": "9ceaf429-f4ee-41eb-b956-64d6499b7ea4",
      "name": "Ethyl oxalyl chloride",
      "url": "https://haz-map.com/Agents/20776",
      "category": "agents"
    }
  ],
  "all_links": [
    {
      "text": "Search PubMed",
      "url": "https://www.ncbi.nlm.nih.gov/pubmed?term=Ethyl+oxalyl+chloride%20AND%20human%5Bmh%5D%20AND%20%28Occupational%20Diseases%20%5Bmh%5D%20OR%20Occupational%20Exposure%20%5Bmh%5D%29%20%20AND%20%28tox%5Bsb%5D%29&cmd=search"
    }
  ]
}