{
  "metadata": {
    "scraped_from": "https://haz-map.com/Agents/19153",
    "entity_name": "1,1,1,2,2,3,3,3-Octachlorotrisilane",
    "category": "agents",
    "uuid": "9ced710f-4e1c-42c1-abfc-d7cdfedc1e4f",
    "scraped_at": "2025-07-23T22:00:24.743408"
  },
  "parsed_at": "2025-07-24T00:52:23.862740",
  "title": "1,1,1,2,2,3,3,3-Octachlorotrisilane",
  "sections": {
    "general": {
      "agent_name": {
        "original_name": "Agent Name",
        "value": "1,1,1,2,2,3,3,3-Octachlorotrisilane",
        "links": [],
        "cross_references": [
          {
            "type": "name_match",
            "text": "trisilane",
            "confidence": 1.0,
            "uuid": "37e873be-e744-4a05-aa72-1d366a0dd76b",
            "name": "Trisilane",
            "url": "https://haz-map.com/Agents/18436",
            "category": "agents"
          },
          {
            "type": "name_match",
            "text": "1,1,1,2,2,3,3,3-octachlorotrisilane",
            "confidence": 1.0,
            "uuid": "9ced710f-4e1c-42c1-abfc-d7cdfedc1e4f",
            "name": "1,1,1,2,2,3,3,3-Octachlorotrisilane",
            "url": "https://haz-map.com/Agents/19153",
            "category": "agents"
          }
        ]
      },
      "cas_number": {
        "original_name": "CAS Number",
        "value": "13596-23-1",
        "links": [],
        "cross_references": []
      },
      "formula": {
        "original_name": "Formula",
        "value": "Cl8-Si3",
        "links": [],
        "cross_references": []
      },
      "major_category": {
        "original_name": "Major Category",
        "value": "Toxic Gases & Vapors",
        "links": [],
        "cross_references": []
      },
      "synonyms": {
        "original_name": "Synonyms",
        "value": "Octachlorotrisilane; Trisilane, 1,1,1,2,2,3,3,3-octachloro-; Trisilane, octachloro-; [ChemIDplus] Perchlorotrisilane; [Gelest MSDS] UN2987",
        "links": [],
        "cross_references": [
          {
            "type": "name_match",
            "text": "trisilane",
            "confidence": 1.0,
            "uuid": "37e873be-e744-4a05-aa72-1d366a0dd76b",
            "name": "Trisilane",
            "url": "https://haz-map.com/Agents/18436",
            "category": "agents"
          }
        ]
      },
      "category": {
        "original_name": "Category",
        "value": "Chlorosilanes",
        "links": [],
        "cross_references": [
          {
            "type": "name_match",
            "text": "chlorosilanes",
            "confidence": 1.0,
            "uuid": "9067acc8-066c-4a06-8282-d403262ae462",
            "name": "CHLOROSILANES",
            "url": "https://haz-map.com/Agents/1584",
            "category": "agents"
          }
        ]
      },
      "description": {
        "original_name": "Description",
        "value": "Clear to straw-colored liquid with an acrid odor like hydrogen chloride; [Gelest MSDS]",
        "links": [],
        "cross_references": [
          {
            "type": "name_match",
            "text": "hydrogen chloride",
            "confidence": 1.0,
            "uuid": "706dfaa8-58f7-4376-809d-ba14aee8dbd3",
            "name": "Hydrogen chloride",
            "url": "https://haz-map.com/Agents/513",
            "category": "agents"
          },
          {
            "type": "name_match",
            "text": "hydrogen",
            "confidence": 1.0,
            "uuid": "e2d9645f-5559-4d88-b820-fc4710c154f2",
            "name": "Hydrogen",
            "url": "https://haz-map.com/Agents/1070",
            "category": "agents"
          }
        ]
      },
      "comments": {
        "original_name": "Comments",
        "value": "Contains less than 10% hexachlorodisilane (CAS# 13465-77-5); Reacts violently with water evolving hydrogen chloride; Causes burns; Inhalation overexposure may cause severe corrosive injuries; [Gelest MSDS]",
        "links": [],
        "cross_references": [
          {
            "type": "name_match",
            "text": "burn",
            "confidence": 1.0,
            "uuid": "63665de5-6376-4918-8dbf-4c10c4d63837",
            "name": "burn",
            "url": "https://haz-map.com/Findings/204",
            "category": "findings"
          },
          {
            "type": "name_match",
            "text": "hydrogen chloride",
            "confidence": 1.0,
            "uuid": "706dfaa8-58f7-4376-809d-ba14aee8dbd3",
            "name": "Hydrogen chloride",
            "url": "https://haz-map.com/Agents/513",
            "category": "agents"
          },
          {
            "type": "name_match",
            "text": "hydrogen",
            "confidence": 1.0,
            "uuid": "e2d9645f-5559-4d88-b820-fc4710c154f2",
            "name": "Hydrogen",
            "url": "https://haz-map.com/Agents/1070",
            "category": "agents"
          },
          {
            "type": "name_match",
            "text": "disilane",
            "confidence": 1.0,
            "uuid": "a99d85d4-cdc7-4081-baab-32ca2e15eb04",
            "name": "Disilane",
            "url": "https://haz-map.com/Agents/13823",
            "category": "agents"
          },
          {
            "type": "name_match",
            "text": "hexachlorodisilane",
            "confidence": 1.0,
            "uuid": "77411822-668e-4968-979e-63a41e0dd7cb",
            "name": "Hexachlorodisilane",
            "url": "https://haz-map.com/Agents/14572",
            "category": "agents"
          },
          {
            "type": "name_match",
            "text": "water",
            "confidence": 1.0,
            "uuid": "6f2a7557-dfd2-49bc-9b4b-a93cd8e225d4",
            "name": "Water",
            "url": "https://haz-map.com/Agents/18668",
            "category": "agents"
          }
        ]
      },
      "biomedical_references": {
        "original_name": "Biomedical References",
        "value": "Search PubMed",
        "links": [
          {
            "text": "Search PubMed",
            "url": "https://www.ncbi.nlm.nih.gov/pubmed?term=1%2c1%2c1%2c2%2c2%2c3%2c3%2c3-Octachlorotrisilane%20AND%20human%5Bmh%5D%20AND%20%28Occupational%20Diseases%20%5Bmh%5D%20OR%20Occupational%20Exposure%20%5Bmh%5D%29%20%20AND%20%28tox%5Bsb%5D%29&cmd=search"
          }
        ],
        "cross_references": []
      }
    },
    "exposure_assessment": {
      "tih": {
        "original_name": "TIH",
        "value": "Yes",
        "links": [],
        "cross_references": []
      },
      "dangerous_when_wet": {
        "original_name": "Dangerous When Wet",
        "value": "Yes",
        "links": [],
        "cross_references": []
      },
      "explanatory_notes": {
        "original_name": "Explanatory Notes",
        "value": "Vapor pressure = 10 mm Hg at 90 deg C; [Gelest MSDS] The Guide in the Emergency Response Guidebook is for \"Chlorosilanes, n.o.s.\" Not TIH in land-based spills, but TiH substance released when spilled in water; [ERG 2016]",
        "links": [],
        "cross_references": [
          {
            "type": "name_match",
            "text": "chlorosilanes",
            "confidence": 1.0,
            "uuid": "9067acc8-066c-4a06-8282-d403262ae462",
            "name": "CHLOROSILANES",
            "url": "https://haz-map.com/Agents/1584",
            "category": "agents"
          },
          {
            "type": "name_match",
            "text": "water",
            "confidence": 1.0,
            "uuid": "6f2a7557-dfd2-49bc-9b4b-a93cd8e225d4",
            "name": "Water",
            "url": "https://haz-map.com/Agents/18668",
            "category": "agents"
          }
        ]
      }
    },
    "adverse_effects": {
      "toxic_pneumonitis": {
        "original_name": "Toxic Pneumonitis",
        "value": "Yes",
        "links": [],
        "cross_references": []
      },
      "dermatotoxin": {
        "original_name": "Dermatotoxin",
        "value": "Skin burns",
        "links": [],
        "cross_references": [
          {
            "type": "name_match",
            "text": "burn",
            "confidence": 1.0,
            "uuid": "63665de5-6376-4918-8dbf-4c10c4d63837",
            "name": "burn",
            "url": "https://haz-map.com/Findings/204",
            "category": "findings"
          }
        ]
      }
    },
    "diseases_processes_and_activities_linked_to_this_agent": {
      "diseases": {
        "original_name": "Diseases",
        "value": "Occupational diseases associated with exposure to this agent: Pneumonitis, toxic",
        "links": [
          {
            "text": "Pneumonitis, toxic",
            "url": "https://haz-map.com/Diseases/306"
          }
        ],
        "cross_references": [
          {
            "type": "url_match",
            "text": "Pneumonitis, toxic",
            "url": "https://haz-map.com/Diseases/306",
            "confidence": 1.0,
            "uuid": "cd799281-0284-450d-bb82-ed6b675616ac",
            "name": "Pneumonitis, toxic",
            "category": "diseases"
          }
        ]
      }
    }
  },
  "cross_references": [
    {
      "type": "url_match",
      "text": "Pneumonitis, toxic",
      "url": "https://haz-map.com/Diseases/306",
      "confidence": 1.0,
      "uuid": "cd799281-0284-450d-bb82-ed6b675616ac",
      "name": "Pneumonitis, toxic",
      "category": "diseases"
    },
    {
      "type": "name_match",
      "text": "burn",
      "confidence": 1.0,
      "uuid": "63665de5-6376-4918-8dbf-4c10c4d63837",
      "name": "burn",
      "url": "https://haz-map.com/Findings/204",
      "category": "findings"
    },
    {
      "type": "name_match",
      "text": "hydrogen chloride",
      "confidence": 1.0,
      "uuid": "706dfaa8-58f7-4376-809d-ba14aee8dbd3",
      "name": "Hydrogen chloride",
      "url": "https://haz-map.com/Agents/513",
      "category": "agents"
    },
    {
      "type": "name_match",
      "text": "hydrogen",
      "confidence": 1.0,
      "uuid": "e2d9645f-5559-4d88-b820-fc4710c154f2",
      "name": "Hydrogen",
      "url": "https://haz-map.com/Agents/1070",
      "category": "agents"
    },
    {
      "type": "name_match",
      "text": "chlorosilanes",
      "confidence": 1.0,
      "uuid": "9067acc8-066c-4a06-8282-d403262ae462",
      "name": "CHLOROSILANES",
      "url": "https://haz-map.com/Agents/1584",
      "category": "agents"
    },
    {
      "type": "name_match",
      "text": "disilane",
      "confidence": 1.0,
      "uuid": "a99d85d4-cdc7-4081-baab-32ca2e15eb04",
      "name": "Disilane",
      "url": "https://haz-map.com/Agents/13823",
      "category": "agents"
    },
    {
      "type": "name_match",
      "text": "hexachlorodisilane",
      "confidence": 1.0,
      "uuid": "77411822-668e-4968-979e-63a41e0dd7cb",
      "name": "Hexachlorodisilane",
      "url": "https://haz-map.com/Agents/14572",
      "category": "agents"
    },
    {
      "type": "name_match",
      "text": "trisilane",
      "confidence": 1.0,
      "uuid": "37e873be-e744-4a05-aa72-1d366a0dd76b",
      "name": "Trisilane",
      "url": "https://haz-map.com/Agents/18436",
      "category": "agents"
    },
    {
      "type": "name_match",
      "text": "water",
      "confidence": 1.0,
      "uuid": "6f2a7557-dfd2-49bc-9b4b-a93cd8e225d4",
      "name": "Water",
      "url": "https://haz-map.com/Agents/18668",
      "category": "agents"
    },
    {
      "type": "name_match",
      "text": "1,1,1,2,2,3,3,3-octachlorotrisilane",
      "confidence": 1.0,
      "uuid": "9ced710f-4e1c-42c1-abfc-d7cdfedc1e4f",
      "name": "1,1,1,2,2,3,3,3-Octachlorotrisilane",
      "url": "https://haz-map.com/Agents/19153",
      "category": "agents"
    }
  ],
  "all_links": [
    {
      "text": "Search PubMed",
      "url": "https://www.ncbi.nlm.nih.gov/pubmed?term=1%2c1%2c1%2c2%2c2%2c3%2c3%2c3-Octachlorotrisilane%20AND%20human%5Bmh%5D%20AND%20%28Occupational%20Diseases%20%5Bmh%5D%20OR%20Occupational%20Exposure%20%5Bmh%5D%29%20%20AND%20%28tox%5Bsb%5D%29&cmd=search"
    },
    {
      "text": "Pneumonitis, toxic",
      "url": "https://haz-map.com/Diseases/306"
    }
  ]
}