{
  "metadata": {
    "scraped_from": "https://haz-map.com/Agents/5941",
    "entity_name": "Menazon",
    "category": "agents",
    "uuid": "9d16401a-b8d8-4d31-842c-1fa7b6ab46ef",
    "scraped_at": "2025-07-23T19:57:09.817752"
  },
  "parsed_at": "2025-07-24T01:13:08.100097",
  "title": "Menazon",
  "sections": {
    "general": {
      "agent_name": {
        "original_name": "Agent Name",
        "value": "Menazon",
        "links": [],
        "cross_references": [
          {
            "type": "name_match",
            "text": "menazon",
            "confidence": 1.0,
            "uuid": "9d16401a-b8d8-4d31-842c-1fa7b6ab46ef",
            "name": "Menazon",
            "url": "https://haz-map.com/Agents/5941",
            "category": "agents"
          }
        ]
      },
      "cas_number": {
        "original_name": "CAS Number",
        "value": "78-57-9",
        "links": [],
        "cross_references": []
      },
      "formula": {
        "original_name": "Formula",
        "value": "C6-H12-N5-O2-P-S2",
        "links": [],
        "cross_references": []
      },
      "major_category": {
        "original_name": "Major Category",
        "value": "Pesticides",
        "links": [],
        "cross_references": []
      },
      "synonyms": {
        "original_name": "Synonyms",
        "value": "2,4-Diamino-6-dimethoxyphosphinothionylthiomethyl-s-triazine; 2-Dimethoxyphosphinothioylthiomethyl-4,6-diamino-s-triazine; 4,6-Diamino-1,3,5-triazin-2-ylmethyl O,O-dimethyl phosphorodithioate; Azidithion; Dithiophosphate de O,O-dimethyle et de S-((4,6-diamino-1,3,5-triazine-2-yl)-methyle) [French]; ENT 25,760; Menazon [ISO]; O,O-Dimethyl S-(4,6-diamino-1,3,5-triazin-2-yl)methyl phosphorodithioate; O,O-Dimethyl S-(4,6-diamino-1,3,5-triazin-2-yl)methyl phosphorothiolothionate; O,O-Dimethyl S-(4,6-diamino-1,3,5-triazinyl-2-methyl) dithiophosphate; O,O-Dimethyl S-(4,6-diamino-s-triazin-2-ylmethyl)phosphorodithioate; O,O-Dimethyl S-((4,6-diamino-s-triazin-2-yl)methyl) phosphorodithioate; PP175; Phosphorodithioic acid, S-((4,6-diamino-1,3,5-triazin-2-yl)methyl) O,O-dimethyl ester; Phosphorodithioic acid, S-((4,6-diamino-s-triazin-2-yl)methyl) O,O-dimethyl ester; R 15,175; S-((4,6-Diamino-1,3,5-triazin-2-yl)-methyl)-O,O-dimethyl-dithiofosfaat [Dutch]; S-((4,6-Diamino-1,3,5-triazin-2-yl)-methyl)-O,O-dimethyl-dithiophosphat [German]; S-((4,6-Diamino-1,3,5-triazin-2-yl)methyl)phosphorodithioic acid O,O-dimethyl ester; S-((4,6-Diamino-s-triazin-2-yl)methyl) O,O-dimethyl phosphorodithioate; S-((4,6-Diamino-s-triazin-2-yl)methyl) O,O-dimethylphosphorodithioate; S-((4,6-Diamino-s-triazin-2-yl)methyl)-O,O-dimethyl phosphorodithioate; S-(4,6-Diamino-1,3,5-triazin-2-ylmethyl) O,O-dimethyl phosphorodithioate; S-(4,6-Diamino-1,3,5-triazin-2-ylmethyl) dimethyl phosphorothiolothionate; Saiphos; Saphicol; Saphizon; Saphizon-DP; Sayfor; Sayfos; Sayphos; Syphos; s-Triazine-2-methanethiol, 4,6-diamino-, S-ester with O,O-dimethyl phosphorodithioate; s-Triazine-2-methanethiol, 4,6-diamino-, S-ester with O,O-dimethylphosphorodithioate; [ChemIDplus] UN2783",
        "links": [],
        "cross_references": [
          {
            "type": "name_match",
            "text": "ethanethiol",
            "confidence": 1.0,
            "uuid": "cd2a92e4-9222-4db9-8892-a1a469d30082",
            "name": "Ethanethiol",
            "url": "https://haz-map.com/Agents/188",
            "category": "agents"
          },
          {
            "type": "name_match",
            "text": "2,4-d",
            "confidence": 1.0,
            "uuid": "bed35f54-2d93-4ffd-a3ee-723ab365faf1",
            "name": "2,4-D",
            "url": "https://haz-map.com/Agents/389",
            "category": "agents"
          },
          {
            "type": "name_match",
            "text": "methane",
            "confidence": 1.0,
            "uuid": "5018bf73-24be-4353-8643-c351d5f52186",
            "name": "Methane",
            "url": "https://haz-map.com/Agents/1074",
            "category": "agents"
          },
          {
            "type": "name_match",
            "text": "ethane",
            "confidence": 1.0,
            "uuid": "5162cc8c-dfb9-4060-81ac-38a8cec7f9dd",
            "name": "Ethane",
            "url": "https://haz-map.com/Agents/1075",
            "category": "agents"
          },
          {
            "type": "name_match",
            "text": "menazon",
            "confidence": 1.0,
            "uuid": "9d16401a-b8d8-4d31-842c-1fa7b6ab46ef",
            "name": "Menazon",
            "url": "https://haz-map.com/Agents/5941",
            "category": "agents"
          }
        ]
      },
      "category": {
        "original_name": "Category",
        "value": "Organophosphate Insecticides",
        "links": [],
        "cross_references": []
      },
      "description": {
        "original_name": "Description",
        "value": "Off-white solid; [Hawley] Colorless solid; [HSDB]",
        "links": [],
        "cross_references": []
      },
      "sourcesuses": {
        "original_name": "Sources/Uses",
        "value": "Used as acaricide and insecticide; [Hawley] Not commercially registered in the US; Likely discontinued for pesticide use worldwide; [HSDB]",
        "links": [],
        "cross_references": []
      },
      "comments": {
        "original_name": "Comments",
        "value": "Very toxic cholinesterase inhibitor; [Hawley] No significant adverse effects observed in animal studies besides inhibition of cholinesterase activity; [HSDB] “The average of two baseline respective cholinesterase activity determinations three days apart, with no exposures to enzyme inhibiting pesticides for at least 30 days, is recommended for each worker prior to exposure to cholinesterase inhibitors because of large inter-individual differences in published baseline values. To be established at least once a year. Removal from workplace exposures is recommended until the cholinesterase activity returns to within 20% of baseline.” [TLVs and BEIs]",
        "links": [],
        "cross_references": [
          {
            "type": "name_match",
            "text": "choline",
            "confidence": 1.0,
            "uuid": "a21a71e9-9d67-4563-9da2-98c4dcb1b766",
            "name": "Choline",
            "url": "https://haz-map.com/Agents/12978",
            "category": "agents"
          },
          {
            "type": "name_match",
            "text": "bes",
            "confidence": 1.0,
            "uuid": "3074c0ff-c637-46e9-9a00-5b14f02c2d53",
            "name": "BES",
            "url": "https://haz-map.com/Agents/15755",
            "category": "agents"
          }
        ]
      },
      "biomedical_references": {
        "original_name": "Biomedical References",
        "value": "Search PubMed",
        "links": [
          {
            "text": "Search PubMed",
            "url": "https://www.ncbi.nlm.nih.gov/pubmed?term=Menazon%20AND%20human%5Bmh%5D%20AND%20%28Occupational%20Diseases%20%5Bmh%5D%20OR%20Occupational%20Exposure%20%5Bmh%5D%29%20%20AND%20%28tox%5Bsb%5D%29&cmd=search"
          }
        ],
        "cross_references": []
      }
    },
    "exposure_assessment": {
      "bei": {
        "original_name": "BEI",
        "value": "Acetylcholinesterase activity in red blood cells = 70% of individual's baseline; Butylcholinesterase activity in serum or plasma = 60% of individual's baseline; Sample at end of shift; [TLVs and BEIs]",
        "links": [],
        "cross_references": [
          {
            "type": "name_match",
            "text": "choline",
            "confidence": 1.0,
            "uuid": "a21a71e9-9d67-4563-9da2-98c4dcb1b766",
            "name": "Choline",
            "url": "https://haz-map.com/Agents/12978",
            "category": "agents"
          }
        ]
      },
      "vapor_pressure": {
        "original_name": "Vapor Pressure",
        "value": "9.75E-07 mm Hg",
        "links": [],
        "cross_references": []
      },
      "explanatory_notes": {
        "original_name": "Explanatory Notes",
        "value": "The Guide in the Emergency Response Guidebook is for \"Organophosphorus pesticide, solid, toxic.\"",
        "links": [],
        "cross_references": []
      }
    },
    "adverse_effects": {
      "other_poison": {
        "original_name": "Other Poison",
        "value": "Organophosphate",
        "links": [],
        "cross_references": []
      }
    },
    "diseases_processes_and_activities_linked_to_this_agent": {
      "diseases": {
        "original_name": "Diseases",
        "value": "Occupational diseases associated with exposure to this agent: Organophosphates & carbamates, acute poisoning",
        "links": [
          {
            "text": "Organophosphates & carbamates, acute poisoning",
            "url": "https://haz-map.com/Diseases/66"
          }
        ],
        "cross_references": [
          {
            "type": "url_match",
            "text": "Organophosphates & carbamates, acute poisoning",
            "url": "https://haz-map.com/Diseases/66",
            "confidence": 1.0,
            "uuid": "aea2cba9-fb36-463f-84d8-b819551bb327",
            "name": "Organophosphates & carbamates, acute poisoning",
            "category": "diseases"
          },
          {
            "type": "name_match",
            "text": "organophosphates",
            "confidence": 1.0,
            "uuid": "8d2d239c-20f9-4f02-9916-5e7667b9990c",
            "name": "ORGANOPHOSPHATES",
            "url": "https://haz-map.com/Agents/702",
            "category": "agents"
          }
        ]
      },
      "processes": {
        "original_name": "Processes",
        "value": "Industrial Processes with risk of exposure: Farming (Pesticides)",
        "links": [
          {
            "text": "Farming (Pesticides)",
            "url": "https://haz-map.com/Processes/218"
          }
        ],
        "cross_references": [
          {
            "type": "url_match",
            "text": "Farming (Pesticides)",
            "url": "https://haz-map.com/Processes/218",
            "confidence": 1.0,
            "uuid": "cf1e5815-c9bb-4917-82a5-391848170b7e",
            "name": "Farming (Pesticides)",
            "category": "processes"
          }
        ]
      }
    }
  },
  "cross_references": [
    {
      "type": "url_match",
      "text": "Organophosphates & carbamates, acute poisoning",
      "url": "https://haz-map.com/Diseases/66",
      "confidence": 1.0,
      "uuid": "aea2cba9-fb36-463f-84d8-b819551bb327",
      "name": "Organophosphates & carbamates, acute poisoning",
      "category": "diseases"
    },
    {
      "type": "url_match",
      "text": "Farming (Pesticides)",
      "url": "https://haz-map.com/Processes/218",
      "confidence": 1.0,
      "uuid": "cf1e5815-c9bb-4917-82a5-391848170b7e",
      "name": "Farming (Pesticides)",
      "category": "processes"
    },
    {
      "type": "name_match",
      "text": "ethanethiol",
      "confidence": 1.0,
      "uuid": "cd2a92e4-9222-4db9-8892-a1a469d30082",
      "name": "Ethanethiol",
      "url": "https://haz-map.com/Agents/188",
      "category": "agents"
    },
    {
      "type": "name_match",
      "text": "2,4-d",
      "confidence": 1.0,
      "uuid": "bed35f54-2d93-4ffd-a3ee-723ab365faf1",
      "name": "2,4-D",
      "url": "https://haz-map.com/Agents/389",
      "category": "agents"
    },
    {
      "type": "name_match",
      "text": "organophosphates",
      "confidence": 1.0,
      "uuid": "8d2d239c-20f9-4f02-9916-5e7667b9990c",
      "name": "ORGANOPHOSPHATES",
      "url": "https://haz-map.com/Agents/702",
      "category": "agents"
    },
    {
      "type": "name_match",
      "text": "methane",
      "confidence": 1.0,
      "uuid": "5018bf73-24be-4353-8643-c351d5f52186",
      "name": "Methane",
      "url": "https://haz-map.com/Agents/1074",
      "category": "agents"
    },
    {
      "type": "name_match",
      "text": "ethane",
      "confidence": 1.0,
      "uuid": "5162cc8c-dfb9-4060-81ac-38a8cec7f9dd",
      "name": "Ethane",
      "url": "https://haz-map.com/Agents/1075",
      "category": "agents"
    },
    {
      "type": "name_match",
      "text": "menazon",
      "confidence": 1.0,
      "uuid": "9d16401a-b8d8-4d31-842c-1fa7b6ab46ef",
      "name": "Menazon",
      "url": "https://haz-map.com/Agents/5941",
      "category": "agents"
    },
    {
      "type": "name_match",
      "text": "choline",
      "confidence": 1.0,
      "uuid": "a21a71e9-9d67-4563-9da2-98c4dcb1b766",
      "name": "Choline",
      "url": "https://haz-map.com/Agents/12978",
      "category": "agents"
    },
    {
      "type": "name_match",
      "text": "bes",
      "confidence": 1.0,
      "uuid": "3074c0ff-c637-46e9-9a00-5b14f02c2d53",
      "name": "BES",
      "url": "https://haz-map.com/Agents/15755",
      "category": "agents"
    }
  ],
  "all_links": [
    {
      "text": "Search PubMed",
      "url": "https://www.ncbi.nlm.nih.gov/pubmed?term=Menazon%20AND%20human%5Bmh%5D%20AND%20%28Occupational%20Diseases%20%5Bmh%5D%20OR%20Occupational%20Exposure%20%5Bmh%5D%29%20%20AND%20%28tox%5Bsb%5D%29&cmd=search"
    },
    {
      "text": "Organophosphates & carbamates, acute poisoning",
      "url": "https://haz-map.com/Diseases/66"
    },
    {
      "text": "Farming (Pesticides)",
      "url": "https://haz-map.com/Processes/218"
    }
  ]
}