{
  "metadata": {
    "scraped_from": "https://haz-map.com/Agents/6126",
    "entity_name": "Methyl myristate",
    "category": "agents",
    "uuid": "9d433820-4b7e-4af7-93b0-034889949925",
    "scraped_at": "2025-07-23T19:58:47.750640"
  },
  "parsed_at": "2025-07-24T01:02:32.597235",
  "title": "Methyl myristate",
  "sections": {
    "general": {
      "agent_name": {
        "original_name": "Agent Name",
        "value": "Methyl myristate",
        "links": [],
        "cross_references": [
          {
            "type": "name_match",
            "text": "methyl myristate",
            "confidence": 1.0,
            "uuid": "9d433820-4b7e-4af7-93b0-034889949925",
            "name": "Methyl myristate",
            "url": "https://haz-map.com/Agents/6126",
            "category": "agents"
          }
        ]
      },
      "cas_number": {
        "original_name": "CAS Number",
        "value": "124-10-7",
        "links": [],
        "cross_references": []
      },
      "formula": {
        "original_name": "Formula",
        "value": "C15-H30-O2",
        "links": [],
        "cross_references": []
      },
      "major_category": {
        "original_name": "Major Category",
        "value": "Other Uses",
        "links": [],
        "cross_references": []
      },
      "synonyms": {
        "original_name": "Synonyms",
        "value": "Metholeneat 2495; Methyl n-tetradecanoate; Methyl tetradecanoate; Myristic acid, methyl ester; Tetradecanoic acid, methyl ester; Uniphat A50; [ChemIDplus]",
        "links": [],
        "cross_references": [
          {
            "type": "name_match",
            "text": "myristic acid",
            "confidence": 1.0,
            "uuid": "c9b816de-5aed-4ad4-94a7-749de582cdc8",
            "name": "Myristic acid",
            "url": "https://haz-map.com/Agents/6218",
            "category": "agents"
          }
        ]
      },
      "category": {
        "original_name": "Category",
        "value": "Emulsifiers/Surfactants",
        "links": [],
        "cross_references": []
      },
      "description": {
        "original_name": "Description",
        "value": "Colorless liquid; mp = 17.8 deg C; [Hawley] Colorless liquid or white solid; mp = 19 deg C; [HSDB] Colorless liquid; mp = 18 deg C; [MSDSonline]",
        "links": [],
        "cross_references": []
      },
      "sourcesuses": {
        "original_name": "Sources/Uses",
        "value": "Used to make myristic acid detergents, emulsifiers, wetting agents, stabilizers, resins, lubricants, plasticizers, textiles, animal feeds, alkanolamides, and fatty alcohols and acids; Also used as standard for gas chromatography and for flavoring; [HSDB]",
        "links": [],
        "cross_references": [
          {
            "type": "name_match",
            "text": "myristic acid",
            "confidence": 1.0,
            "uuid": "c9b816de-5aed-4ad4-94a7-749de582cdc8",
            "name": "Myristic acid",
            "url": "https://haz-map.com/Agents/6218",
            "category": "agents"
          }
        ]
      },
      "comments": {
        "original_name": "Comments",
        "value": "May cause irritation; [MSDSonline]",
        "links": [],
        "cross_references": []
      },
      "biomedical_references": {
        "original_name": "Biomedical References",
        "value": "Search PubMed",
        "links": [
          {
            "text": "Search PubMed",
            "url": "https://www.ncbi.nlm.nih.gov/pubmed?term=Methyl+myristate%20AND%20human%5Bmh%5D%20AND%20%28Occupational%20Diseases%20%5Bmh%5D%20OR%20Occupational%20Exposure%20%5Bmh%5D%29%20%20AND%20%28tox%5Bsb%5D%29&cmd=search"
          }
        ],
        "cross_references": []
      }
    },
    "exposure_assessment": {
      "vapor_pressure": {
        "original_name": "Vapor Pressure",
        "value": "0.00049 mm Hg",
        "links": [],
        "cross_references": []
      }
    },
    "diseases_processes_and_activities_linked_to_this_agent": {
      "processes": {
        "original_name": "Processes",
        "value": "Industrial Processes with risk of exposure: Farming (Feed Additives) Textiles (Fiber & Fabric Manufacturing)",
        "links": [
          {
            "text": "Farming (Feed Additives)",
            "url": "https://haz-map.com/Processes/262"
          },
          {
            "text": "Textiles (Fiber & Fabric Manufacturing)",
            "url": "https://haz-map.com/Processes/135"
          }
        ],
        "cross_references": [
          {
            "type": "url_match",
            "text": "Textiles (Fiber & Fabric Manufacturing)",
            "url": "https://haz-map.com/Processes/135",
            "confidence": 1.0,
            "uuid": "43ebdcdb-bb09-4402-87b6-ae8cf169dddd",
            "name": "Textiles (Fiber & Fabric Manufacturing)",
            "category": "processes"
          }
        ]
      }
    }
  },
  "cross_references": [
    {
      "type": "url_match",
      "text": "Textiles (Fiber & Fabric Manufacturing)",
      "url": "https://haz-map.com/Processes/135",
      "confidence": 1.0,
      "uuid": "43ebdcdb-bb09-4402-87b6-ae8cf169dddd",
      "name": "Textiles (Fiber & Fabric Manufacturing)",
      "category": "processes"
    },
    {
      "type": "name_match",
      "text": "methyl myristate",
      "confidence": 1.0,
      "uuid": "9d433820-4b7e-4af7-93b0-034889949925",
      "name": "Methyl myristate",
      "url": "https://haz-map.com/Agents/6126",
      "category": "agents"
    },
    {
      "type": "name_match",
      "text": "myristic acid",
      "confidence": 1.0,
      "uuid": "c9b816de-5aed-4ad4-94a7-749de582cdc8",
      "name": "Myristic acid",
      "url": "https://haz-map.com/Agents/6218",
      "category": "agents"
    }
  ],
  "all_links": [
    {
      "text": "Search PubMed",
      "url": "https://www.ncbi.nlm.nih.gov/pubmed?term=Methyl+myristate%20AND%20human%5Bmh%5D%20AND%20%28Occupational%20Diseases%20%5Bmh%5D%20OR%20Occupational%20Exposure%20%5Bmh%5D%29%20%20AND%20%28tox%5Bsb%5D%29&cmd=search"
    },
    {
      "text": "Farming (Feed Additives)",
      "url": "https://haz-map.com/Processes/262"
    },
    {
      "text": "Textiles (Fiber & Fabric Manufacturing)",
      "url": "https://haz-map.com/Processes/135"
    }
  ]
}