{
  "metadata": {
    "scraped_from": "https://haz-map.com/Agents/21238",
    "entity_name": "Piloty's acid",
    "category": "agents",
    "uuid": "9d9fb1cf-7431-4503-ad90-c8a52efbaeda",
    "scraped_at": "2025-07-23T22:40:09.078867"
  },
  "parsed_at": "2025-07-24T01:08:01.040942",
  "title": "Piloty's acid",
  "sections": {
    "general": {
      "agent_name": {
        "original_name": "Agent Name",
        "value": "Piloty's acid",
        "links": [],
        "cross_references": [
          {
            "type": "name_match",
            "text": "piloty's acid",
            "confidence": 1.0,
            "uuid": "9d9fb1cf-7431-4503-ad90-c8a52efbaeda",
            "name": "Piloty's acid",
            "url": "https://haz-map.com/Agents/21238",
            "category": "agents"
          }
        ]
      },
      "alternative_name": {
        "original_name": "Alternative Name",
        "value": "N-Hydroxybenzenesulfonamide",
        "links": [],
        "cross_references": [
          {
            "type": "name_match",
            "text": "benzene",
            "confidence": 1.0,
            "uuid": "b05124de-5f34-4c14-8f04-ccb20c3780d9",
            "name": "Benzene",
            "url": "https://haz-map.com/Agents/5",
            "category": "agents"
          },
          {
            "type": "name_match",
            "text": "benzenesulfonamide",
            "confidence": 1.0,
            "uuid": "66d8b92e-3d51-4461-ac5b-4ff3501d45e5",
            "name": "Benzenesulfonamide",
            "url": "https://haz-map.com/Agents/20287",
            "category": "agents"
          }
        ]
      },
      "cas_number": {
        "original_name": "CAS Number",
        "value": "599-71-3",
        "links": [],
        "cross_references": []
      },
      "formula": {
        "original_name": "Formula",
        "value": "C6-H7-N-O3-S",
        "links": [],
        "cross_references": []
      },
      "major_category": {
        "original_name": "Major Category",
        "value": "Nitrogen Compounds",
        "links": [],
        "cross_references": [
          {
            "type": "name_match",
            "text": "nitrogen",
            "confidence": 1.0,
            "uuid": "db5e90a9-06d2-45b9-8b81-f345a89b0bc0",
            "name": "Nitrogen",
            "url": "https://haz-map.com/Agents/1072",
            "category": "agents"
          }
        ]
      },
      "synonyms": {
        "original_name": "Synonyms",
        "value": "Benzsulfohydroxamic acid; Hydroxamic acid, benzsulfo-; Hydroxylamine, N-(phenylsulfonyl)-; N-(Phenylsulfonyl)hydroxylamine; N-Hydroxybenzenesulfonamide; Benzenesulfonamide, N-hydroxy-; Benzenesulphonohydroxamic acid; [ChemIDplus] Benzenesulfohydroxamic acid; [Merck Index]",
        "links": [],
        "cross_references": [
          {
            "type": "name_match",
            "text": "benzene",
            "confidence": 1.0,
            "uuid": "b05124de-5f34-4c14-8f04-ccb20c3780d9",
            "name": "Benzene",
            "url": "https://haz-map.com/Agents/5",
            "category": "agents"
          },
          {
            "type": "name_match",
            "text": "hydroxylamine",
            "confidence": 1.0,
            "uuid": "2c5bddbe-1859-4f6c-9590-541312386fcb",
            "name": "Hydroxylamine",
            "url": "https://haz-map.com/Agents/1092",
            "category": "agents"
          },
          {
            "type": "name_match",
            "text": "oxamic acid",
            "confidence": 1.0,
            "uuid": "ac54bc00-f6da-46ff-aa8a-0c693dfd2626",
            "name": "Oxamic acid",
            "url": "https://haz-map.com/Agents/16306",
            "category": "agents"
          },
          {
            "type": "name_match",
            "text": "benzenesulfonamide",
            "confidence": 1.0,
            "uuid": "66d8b92e-3d51-4461-ac5b-4ff3501d45e5",
            "name": "Benzenesulfonamide",
            "url": "https://haz-map.com/Agents/20287",
            "category": "agents"
          }
        ]
      },
      "category": {
        "original_name": "Category",
        "value": "Other Aromatics (Nitrogen)",
        "links": [],
        "cross_references": [
          {
            "type": "name_match",
            "text": "nitrogen",
            "confidence": 1.0,
            "uuid": "db5e90a9-06d2-45b9-8b81-f345a89b0bc0",
            "name": "Nitrogen",
            "url": "https://haz-map.com/Agents/1072",
            "category": "agents"
          }
        ]
      },
      "description": {
        "original_name": "Description",
        "value": "Solid; [Merck Index] White crystals; [Acros Organics MSDS]",
        "links": [],
        "cross_references": []
      },
      "sourcesuses": {
        "original_name": "Sources/Uses",
        "value": "Used in biochemical model studies and in the Angeli-Rimimi test for aldehydes; [Merck Index] \"Piloty’s Acid is one of the most commonly used nitroxyl (HNO) donors, decomposing to form HNO and benzenesulfinate anion under basic conditions.\" [Santa Cruz Biotechnology]",
        "links": [],
        "cross_references": [
          {
            "type": "name_match",
            "text": "benzene",
            "confidence": 1.0,
            "uuid": "b05124de-5f34-4c14-8f04-ccb20c3780d9",
            "name": "Benzene",
            "url": "https://haz-map.com/Agents/5",
            "category": "agents"
          },
          {
            "type": "name_match",
            "text": "mica",
            "confidence": 1.0,
            "uuid": "433f26f1-c399-4596-b179-ce3843cfd465",
            "name": "Mica",
            "url": "https://haz-map.com/Agents/621",
            "category": "agents"
          },
          {
            "type": "name_match",
            "text": "aldehydes",
            "confidence": 1.0,
            "uuid": "60ff52e0-7c53-4dd0-99cf-f775cfcfed59",
            "name": "ALDEHYDES",
            "url": "https://haz-map.com/Agents/719",
            "category": "agents"
          }
        ]
      },
      "comments": {
        "original_name": "Comments",
        "value": "Oral lethal-dose (rat) >500 mg/kg; [RTECS] An irritant; [Acros Organics MSDS]",
        "links": [],
        "cross_references": []
      },
      "biomedical_references": {
        "original_name": "Biomedical References",
        "value": "Search PubMed",
        "links": [
          {
            "text": "Search PubMed",
            "url": "https://www.ncbi.nlm.nih.gov/pubmed?term=Piloty%26%2339%3bs+acid%20AND%20human%5Bmh%5D%20AND%20%28Occupational%20Diseases%20%5Bmh%5D%20OR%20Occupational%20Exposure%20%5Bmh%5D%29%20%20AND%20%28tox%5Bsb%5D%29&cmd=search"
          }
        ],
        "cross_references": []
      }
    },
    "exposure_assessment": {
      "vapor_pressure": {
        "original_name": "Vapor Pressure",
        "value": "1.32E-06 mm Hg",
        "links": [],
        "cross_references": []
      }
    },
    "diseases_processes_and_activities_linked_to_this_agent": {
      "other_information": {
        "original_name": "Other Information",
        "value": "No other related information on this agent was found.",
        "links": [],
        "cross_references": []
      }
    }
  },
  "cross_references": [
    {
      "type": "name_match",
      "text": "benzene",
      "confidence": 1.0,
      "uuid": "b05124de-5f34-4c14-8f04-ccb20c3780d9",
      "name": "Benzene",
      "url": "https://haz-map.com/Agents/5",
      "category": "agents"
    },
    {
      "type": "name_match",
      "text": "mica",
      "confidence": 1.0,
      "uuid": "433f26f1-c399-4596-b179-ce3843cfd465",
      "name": "Mica",
      "url": "https://haz-map.com/Agents/621",
      "category": "agents"
    },
    {
      "type": "name_match",
      "text": "aldehydes",
      "confidence": 1.0,
      "uuid": "60ff52e0-7c53-4dd0-99cf-f775cfcfed59",
      "name": "ALDEHYDES",
      "url": "https://haz-map.com/Agents/719",
      "category": "agents"
    },
    {
      "type": "name_match",
      "text": "nitrogen",
      "confidence": 1.0,
      "uuid": "db5e90a9-06d2-45b9-8b81-f345a89b0bc0",
      "name": "Nitrogen",
      "url": "https://haz-map.com/Agents/1072",
      "category": "agents"
    },
    {
      "type": "name_match",
      "text": "hydroxylamine",
      "confidence": 1.0,
      "uuid": "2c5bddbe-1859-4f6c-9590-541312386fcb",
      "name": "Hydroxylamine",
      "url": "https://haz-map.com/Agents/1092",
      "category": "agents"
    },
    {
      "type": "name_match",
      "text": "oxamic acid",
      "confidence": 1.0,
      "uuid": "ac54bc00-f6da-46ff-aa8a-0c693dfd2626",
      "name": "Oxamic acid",
      "url": "https://haz-map.com/Agents/16306",
      "category": "agents"
    },
    {
      "type": "name_match",
      "text": "benzenesulfonamide",
      "confidence": 1.0,
      "uuid": "66d8b92e-3d51-4461-ac5b-4ff3501d45e5",
      "name": "Benzenesulfonamide",
      "url": "https://haz-map.com/Agents/20287",
      "category": "agents"
    },
    {
      "type": "name_match",
      "text": "piloty's acid",
      "confidence": 1.0,
      "uuid": "9d9fb1cf-7431-4503-ad90-c8a52efbaeda",
      "name": "Piloty's acid",
      "url": "https://haz-map.com/Agents/21238",
      "category": "agents"
    }
  ],
  "all_links": [
    {
      "text": "Search PubMed",
      "url": "https://www.ncbi.nlm.nih.gov/pubmed?term=Piloty%26%2339%3bs+acid%20AND%20human%5Bmh%5D%20AND%20%28Occupational%20Diseases%20%5Bmh%5D%20OR%20Occupational%20Exposure%20%5Bmh%5D%29%20%20AND%20%28tox%5Bsb%5D%29&cmd=search"
    }
  ]
}