{
  "metadata": {
    "scraped_from": "https://haz-map.com/Agents/19262",
    "entity_name": "1,3-Pentanediamine",
    "category": "agents",
    "uuid": "9de12dc5-a3bb-4703-8a01-e21ac549f11d",
    "scraped_at": "2025-07-23T22:02:32.617810"
  },
  "parsed_at": "2025-07-24T00:51:55.325101",
  "title": "1,3-Pentanediamine",
  "sections": {
    "general": {
      "agent_name": {
        "original_name": "Agent Name",
        "value": "1,3-Pentanediamine",
        "links": [],
        "cross_references": [
          {
            "type": "name_match",
            "text": "1,3-pentanediamine",
            "confidence": 1.0,
            "uuid": "9de12dc5-a3bb-4703-8a01-e21ac549f11d",
            "name": "1,3-Pentanediamine",
            "url": "https://haz-map.com/Agents/19262",
            "category": "agents"
          }
        ]
      },
      "cas_number": {
        "original_name": "CAS Number",
        "value": "589-37-7",
        "links": [],
        "cross_references": []
      },
      "formula": {
        "original_name": "Formula",
        "value": "C5-H14-N2",
        "links": [],
        "cross_references": []
      },
      "major_category": {
        "original_name": "Major Category",
        "value": "Nitrogen Compounds",
        "links": [],
        "cross_references": [
          {
            "type": "name_match",
            "text": "nitrogen",
            "confidence": 1.0,
            "uuid": "db5e90a9-06d2-45b9-8b81-f345a89b0bc0",
            "name": "Nitrogen",
            "url": "https://haz-map.com/Agents/1072",
            "category": "agents"
          }
        ]
      },
      "synonyms": {
        "original_name": "Synonyms",
        "value": "1,3-Diaminopentane; [ChemIDplus] \"DYTEK\" EP DIAMINE; DAMP; [DuPont MSDS] UN2734",
        "links": [],
        "cross_references": []
      },
      "category": {
        "original_name": "Category",
        "value": "Amines, Aliphatic",
        "links": [],
        "cross_references": []
      },
      "description": {
        "original_name": "Description",
        "value": "Colorless liquid with a slight odor; [DuPont MSDS]",
        "links": [],
        "cross_references": [
          {
            "type": "name_match",
            "text": "ht",
            "confidence": 1.0,
            "uuid": "764df367-8d53-4a11-81a2-31ccfe122a8d",
            "name": "HT",
            "url": "https://haz-map.com/Agents/2168",
            "category": "agents"
          }
        ]
      },
      "comments": {
        "original_name": "Comments",
        "value": "Causes burns; May cause skin sensitization; Causes skin sensitization in experimental animals at 10% concentration, but not at 1%; Approximate oral lethal-dose (rat) 1,000 mg/kg; Approximate lethal-concentration (rat) = 4,300 mg/m3/4hr; [DuPont MSDS] See \"Hexylamine,\" \"Cadaverine,\" \"N-Methylethylenediamine,\" and \"N-Methyl-N-propylamine.\"",
        "links": [],
        "cross_references": [
          {
            "type": "name_match",
            "text": "burn",
            "confidence": 1.0,
            "uuid": "63665de5-6376-4918-8dbf-4c10c4d63837",
            "name": "burn",
            "url": "https://haz-map.com/Findings/204",
            "category": "findings"
          },
          {
            "type": "name_match",
            "text": "ethylenediamine",
            "confidence": 1.0,
            "uuid": "64071736-683c-4d60-a83d-83a0e42c3e75",
            "name": "Ethylenediamine",
            "url": "https://haz-map.com/Agents/480",
            "category": "agents"
          },
          {
            "type": "name_match",
            "text": "ethylene",
            "confidence": 1.0,
            "uuid": "958eacc0-5135-4b62-bb93-6df972bf552f",
            "name": "Ethylene",
            "url": "https://haz-map.com/Agents/1076",
            "category": "agents"
          },
          {
            "type": "name_match",
            "text": "n-methylethylenediamine",
            "confidence": 1.0,
            "uuid": "7f55d552-a8e7-4604-ac46-451a986c4cdc",
            "name": "N-Methylethylenediamine",
            "url": "https://haz-map.com/Agents/16021",
            "category": "agents"
          },
          {
            "type": "name_match",
            "text": "n-methyl-n-propylamine",
            "confidence": 1.0,
            "uuid": "5d39e155-35f9-4b0c-b94b-d72d69897d14",
            "name": "N-Methyl-N-propylamine",
            "url": "https://haz-map.com/Agents/16029",
            "category": "agents"
          },
          {
            "type": "name_match",
            "text": "cadaverine",
            "confidence": 1.0,
            "uuid": "6247512b-adfa-44c4-88eb-35b56612044b",
            "name": "Cadaverine",
            "url": "https://haz-map.com/Agents/19284",
            "category": "agents"
          },
          {
            "type": "name_match",
            "text": "hexylamine",
            "confidence": 1.0,
            "uuid": "d6024dfe-8865-49e0-9086-0d2662bb2ea8",
            "name": "Hexylamine",
            "url": "https://haz-map.com/Agents/19320",
            "category": "agents"
          }
        ]
      },
      "biomedical_references": {
        "original_name": "Biomedical References",
        "value": "Search PubMed",
        "links": [
          {
            "text": "Search PubMed",
            "url": "https://www.ncbi.nlm.nih.gov/pubmed?term=1%2c3-Pentanediamine%20AND%20human%5Bmh%5D%20AND%20%28Occupational%20Diseases%20%5Bmh%5D%20OR%20Occupational%20Exposure%20%5Bmh%5D%29%20%20AND%20%28tox%5Bsb%5D%29&cmd=search"
          }
        ],
        "cross_references": []
      }
    },
    "exposure_assessment": {
      "vapor_pressure": {
        "original_name": "Vapor Pressure",
        "value": "1 mm Hg",
        "links": [],
        "cross_references": []
      },
      "explanatory_notes": {
        "original_name": "Explanatory Notes",
        "value": "The Guide in the Emergency Response Guidebook is for \"Amines, liquid, corrosive, flammable, n.o.s.\"",
        "links": [],
        "cross_references": []
      }
    },
    "adverse_effects": {
      "skin_sensitizer": {
        "original_name": "Skin Sensitizer",
        "value": "Yes",
        "links": [],
        "cross_references": []
      },
      "dermatotoxin": {
        "original_name": "Dermatotoxin",
        "value": "Skin burns",
        "links": [],
        "cross_references": [
          {
            "type": "name_match",
            "text": "burn",
            "confidence": 1.0,
            "uuid": "63665de5-6376-4918-8dbf-4c10c4d63837",
            "name": "burn",
            "url": "https://haz-map.com/Findings/204",
            "category": "findings"
          }
        ]
      }
    },
    "diseases_processes_and_activities_linked_to_this_agent": {
      "diseases": {
        "original_name": "Diseases",
        "value": "Occupational diseases associated with exposure to this agent: Contact dermatitis, allergic",
        "links": [
          {
            "text": "Contact dermatitis, allergic",
            "url": "https://haz-map.com/Diseases/18"
          }
        ],
        "cross_references": [
          {
            "type": "url_match",
            "text": "Contact dermatitis, allergic",
            "url": "https://haz-map.com/Diseases/18",
            "confidence": 1.0,
            "uuid": "c9499de0-9aa1-41bf-8753-cd5b28a63e29",
            "name": "Contact dermatitis, allergic",
            "category": "diseases"
          },
          {
            "type": "name_match",
            "text": "dermatitis",
            "confidence": 1.0,
            "uuid": "fe9c05f2-b19f-4ceb-ac7a-ffb7d7a0cae0",
            "name": "dermatitis",
            "url": "https://haz-map.com/Findings/59",
            "category": "findings"
          }
        ]
      }
    }
  },
  "cross_references": [
    {
      "type": "url_match",
      "text": "Contact dermatitis, allergic",
      "url": "https://haz-map.com/Diseases/18",
      "confidence": 1.0,
      "uuid": "c9499de0-9aa1-41bf-8753-cd5b28a63e29",
      "name": "Contact dermatitis, allergic",
      "category": "diseases"
    },
    {
      "type": "name_match",
      "text": "dermatitis",
      "confidence": 1.0,
      "uuid": "fe9c05f2-b19f-4ceb-ac7a-ffb7d7a0cae0",
      "name": "dermatitis",
      "url": "https://haz-map.com/Findings/59",
      "category": "findings"
    },
    {
      "type": "name_match",
      "text": "burn",
      "confidence": 1.0,
      "uuid": "63665de5-6376-4918-8dbf-4c10c4d63837",
      "name": "burn",
      "url": "https://haz-map.com/Findings/204",
      "category": "findings"
    },
    {
      "type": "name_match",
      "text": "ethylenediamine",
      "confidence": 1.0,
      "uuid": "64071736-683c-4d60-a83d-83a0e42c3e75",
      "name": "Ethylenediamine",
      "url": "https://haz-map.com/Agents/480",
      "category": "agents"
    },
    {
      "type": "name_match",
      "text": "nitrogen",
      "confidence": 1.0,
      "uuid": "db5e90a9-06d2-45b9-8b81-f345a89b0bc0",
      "name": "Nitrogen",
      "url": "https://haz-map.com/Agents/1072",
      "category": "agents"
    },
    {
      "type": "name_match",
      "text": "ethylene",
      "confidence": 1.0,
      "uuid": "958eacc0-5135-4b62-bb93-6df972bf552f",
      "name": "Ethylene",
      "url": "https://haz-map.com/Agents/1076",
      "category": "agents"
    },
    {
      "type": "name_match",
      "text": "ht",
      "confidence": 1.0,
      "uuid": "764df367-8d53-4a11-81a2-31ccfe122a8d",
      "name": "HT",
      "url": "https://haz-map.com/Agents/2168",
      "category": "agents"
    },
    {
      "type": "name_match",
      "text": "n-methylethylenediamine",
      "confidence": 1.0,
      "uuid": "7f55d552-a8e7-4604-ac46-451a986c4cdc",
      "name": "N-Methylethylenediamine",
      "url": "https://haz-map.com/Agents/16021",
      "category": "agents"
    },
    {
      "type": "name_match",
      "text": "n-methyl-n-propylamine",
      "confidence": 1.0,
      "uuid": "5d39e155-35f9-4b0c-b94b-d72d69897d14",
      "name": "N-Methyl-N-propylamine",
      "url": "https://haz-map.com/Agents/16029",
      "category": "agents"
    },
    {
      "type": "name_match",
      "text": "1,3-pentanediamine",
      "confidence": 1.0,
      "uuid": "9de12dc5-a3bb-4703-8a01-e21ac549f11d",
      "name": "1,3-Pentanediamine",
      "url": "https://haz-map.com/Agents/19262",
      "category": "agents"
    },
    {
      "type": "name_match",
      "text": "cadaverine",
      "confidence": 1.0,
      "uuid": "6247512b-adfa-44c4-88eb-35b56612044b",
      "name": "Cadaverine",
      "url": "https://haz-map.com/Agents/19284",
      "category": "agents"
    },
    {
      "type": "name_match",
      "text": "hexylamine",
      "confidence": 1.0,
      "uuid": "d6024dfe-8865-49e0-9086-0d2662bb2ea8",
      "name": "Hexylamine",
      "url": "https://haz-map.com/Agents/19320",
      "category": "agents"
    }
  ],
  "all_links": [
    {
      "text": "Search PubMed",
      "url": "https://www.ncbi.nlm.nih.gov/pubmed?term=1%2c3-Pentanediamine%20AND%20human%5Bmh%5D%20AND%20%28Occupational%20Diseases%20%5Bmh%5D%20OR%20Occupational%20Exposure%20%5Bmh%5D%29%20%20AND%20%28tox%5Bsb%5D%29&cmd=search"
    },
    {
      "text": "Contact dermatitis, allergic",
      "url": "https://haz-map.com/Diseases/18"
    }
  ]
}