{
  "metadata": {
    "scraped_from": "https://haz-map.com/Agents/21032",
    "entity_name": "Indole-3-carboxaldehyde",
    "category": "agents",
    "uuid": "9e435cf8-ae76-403f-9dab-7c66d419e20c",
    "scraped_at": "2025-07-23T22:36:26.401419"
  },
  "parsed_at": "2025-07-24T01:04:31.918557",
  "title": "Indole-3-carboxaldehyde",
  "sections": {
    "general": {
      "agent_name": {
        "original_name": "Agent Name",
        "value": "Indole-3-carboxaldehyde",
        "links": [],
        "cross_references": [
          {
            "type": "name_match",
            "text": "indole",
            "confidence": 1.0,
            "uuid": "9c93731a-de8c-47f7-94f9-bfba35edd847",
            "name": "Indole",
            "url": "https://haz-map.com/Agents/5628",
            "category": "agents"
          },
          {
            "type": "name_match",
            "text": "indole-3-carboxaldehyde",
            "confidence": 1.0,
            "uuid": "9e435cf8-ae76-403f-9dab-7c66d419e20c",
            "name": "Indole-3-carboxaldehyde",
            "url": "https://haz-map.com/Agents/21032",
            "category": "agents"
          }
        ]
      },
      "cas_number": {
        "original_name": "CAS Number",
        "value": "487-89-8",
        "links": [],
        "cross_references": []
      },
      "formula": {
        "original_name": "Formula",
        "value": "C9-H7-N-O",
        "links": [],
        "cross_references": []
      },
      "major_category": {
        "original_name": "Major Category",
        "value": "Nitrogen Compounds",
        "links": [],
        "cross_references": [
          {
            "type": "name_match",
            "text": "nitrogen",
            "confidence": 1.0,
            "uuid": "db5e90a9-06d2-45b9-8b81-f345a89b0bc0",
            "name": "Nitrogen",
            "url": "https://haz-map.com/Agents/1072",
            "category": "agents"
          }
        ]
      },
      "synonyms": {
        "original_name": "Synonyms",
        "value": "3-Formylindole; beta-Indolylaldehyde; Indol-3-carboxaldehyde; Indole-3-aldehyde; Indole-3-carbaldehyde; INDOLE-3-CARBOXYALDEHYDE; 1H-Indole-3-carboxaldehyde; [ChemIDplus]",
        "links": [],
        "cross_references": [
          {
            "type": "name_match",
            "text": "indole",
            "confidence": 1.0,
            "uuid": "9c93731a-de8c-47f7-94f9-bfba35edd847",
            "name": "Indole",
            "url": "https://haz-map.com/Agents/5628",
            "category": "agents"
          },
          {
            "type": "name_match",
            "text": "indole-3-carboxaldehyde",
            "confidence": 1.0,
            "uuid": "9e435cf8-ae76-403f-9dab-7c66d419e20c",
            "name": "Indole-3-carboxaldehyde",
            "url": "https://haz-map.com/Agents/21032",
            "category": "agents"
          }
        ]
      },
      "category": {
        "original_name": "Category",
        "value": "Indoles",
        "links": [],
        "cross_references": [
          {
            "type": "name_match",
            "text": "indole",
            "confidence": 1.0,
            "uuid": "9c93731a-de8c-47f7-94f9-bfba35edd847",
            "name": "Indole",
            "url": "https://haz-map.com/Agents/5628",
            "category": "agents"
          }
        ]
      },
      "description": {
        "original_name": "Description",
        "value": "Tan powder; [Alfa Aesar MSDS]",
        "links": [],
        "cross_references": []
      },
      "comments": {
        "original_name": "Comments",
        "value": "Causes smooth muscle relaxation and changes in motor activity in intraperitoneal lethal-dose studies of mice (LDLo = 600 mg/kg); [RTECS] May cause irritation; [Alfa Aesar MSDS]",
        "links": [],
        "cross_references": []
      },
      "biomedical_references": {
        "original_name": "Biomedical References",
        "value": "Search PubMed",
        "links": [
          {
            "text": "Search PubMed",
            "url": "https://www.ncbi.nlm.nih.gov/pubmed?term=Indole-3-carboxaldehyde%20AND%20human%5Bmh%5D%20AND%20%28Occupational%20Diseases%20%5Bmh%5D%20OR%20Occupational%20Exposure%20%5Bmh%5D%29%20%20AND%20%28tox%5Bsb%5D%29&cmd=search"
          }
        ],
        "cross_references": []
      }
    },
    "exposure_assessment": {
      "vapor_pressure": {
        "original_name": "Vapor Pressure",
        "value": "0.00043 mm Hg",
        "links": [],
        "cross_references": []
      }
    },
    "diseases_processes_and_activities_linked_to_this_agent": {
      "other_information": {
        "original_name": "Other Information",
        "value": "No other related information on this agent was found.",
        "links": [],
        "cross_references": []
      }
    }
  },
  "cross_references": [
    {
      "type": "name_match",
      "text": "nitrogen",
      "confidence": 1.0,
      "uuid": "db5e90a9-06d2-45b9-8b81-f345a89b0bc0",
      "name": "Nitrogen",
      "url": "https://haz-map.com/Agents/1072",
      "category": "agents"
    },
    {
      "type": "name_match",
      "text": "indole",
      "confidence": 1.0,
      "uuid": "9c93731a-de8c-47f7-94f9-bfba35edd847",
      "name": "Indole",
      "url": "https://haz-map.com/Agents/5628",
      "category": "agents"
    },
    {
      "type": "name_match",
      "text": "indole-3-carboxaldehyde",
      "confidence": 1.0,
      "uuid": "9e435cf8-ae76-403f-9dab-7c66d419e20c",
      "name": "Indole-3-carboxaldehyde",
      "url": "https://haz-map.com/Agents/21032",
      "category": "agents"
    }
  ],
  "all_links": [
    {
      "text": "Search PubMed",
      "url": "https://www.ncbi.nlm.nih.gov/pubmed?term=Indole-3-carboxaldehyde%20AND%20human%5Bmh%5D%20AND%20%28Occupational%20Diseases%20%5Bmh%5D%20OR%20Occupational%20Exposure%20%5Bmh%5D%29%20%20AND%20%28tox%5Bsb%5D%29&cmd=search"
    }
  ]
}