{
  "metadata": {
    "scraped_from": "https://haz-map.com/Agents/10593",
    "entity_name": "Isoamyl nitrate",
    "category": "agents",
    "uuid": "9e713c92-00d7-4185-81a1-208764cfaf42",
    "scraped_at": "2025-07-23T20:49:50.950313"
  },
  "parsed_at": "2025-07-24T01:02:21.717051",
  "title": "Isoamyl nitrate",
  "sections": {
    "general": {
      "agent_name": {
        "original_name": "Agent Name",
        "value": "Isoamyl nitrate",
        "links": [],
        "cross_references": [
          {
            "type": "name_match",
            "text": "isoamyl nitrate",
            "confidence": 1.0,
            "uuid": "9e713c92-00d7-4185-81a1-208764cfaf42",
            "name": "Isoamyl nitrate",
            "url": "https://haz-map.com/Agents/10593",
            "category": "agents"
          },
          {
            "type": "name_match",
            "text": "amyl nitrate",
            "confidence": 1.0,
            "uuid": "88eae23d-7e2e-4d03-8e91-76903bcd02b4",
            "name": "Amyl nitrate",
            "url": "https://haz-map.com/Agents/15978",
            "category": "agents"
          }
        ]
      },
      "cas_number": {
        "original_name": "CAS Number",
        "value": "543-87-3",
        "links": [],
        "cross_references": []
      },
      "formula": {
        "original_name": "Formula",
        "value": "C5-H11-N-O3",
        "links": [],
        "cross_references": []
      },
      "major_category": {
        "original_name": "Major Category",
        "value": "Nitrogen Compounds",
        "links": [],
        "cross_references": [
          {
            "type": "name_match",
            "text": "nitrogen",
            "confidence": 1.0,
            "uuid": "db5e90a9-06d2-45b9-8b81-f345a89b0bc0",
            "name": "Nitrogen",
            "url": "https://haz-map.com/Agents/1072",
            "category": "agents"
          }
        ]
      },
      "synonyms": {
        "original_name": "Synonyms",
        "value": "3-Methyl-1-butanol nitrate; 3-Methylbutyl nitrate; Iso-amyl nitrate; Isopentyl nitrate; Nitrito d'amile [Italian]; 1-Butanol, 3-methyl-, 1-nitrate; 1-Butanol, 3-methyl-, nitrate; Isopentyl alcohol, nitrate; [ChemIDplus]",
        "links": [],
        "cross_references": [
          {
            "type": "name_match",
            "text": "tali",
            "confidence": 1.0,
            "uuid": "8c3a0f99-2143-4122-b539-ec5cc49596b0",
            "name": "Tali",
            "url": "https://haz-map.com/Agents/1128",
            "category": "agents"
          },
          {
            "type": "name_match",
            "text": "butyl nitrate",
            "confidence": 1.0,
            "uuid": "8b55aee6-c4c4-476b-aaa1-cd9929c7a85e",
            "name": "Butyl nitrate",
            "url": "https://haz-map.com/Agents/8629",
            "category": "agents"
          },
          {
            "type": "name_match",
            "text": "amyl nitrate",
            "confidence": 1.0,
            "uuid": "88eae23d-7e2e-4d03-8e91-76903bcd02b4",
            "name": "Amyl nitrate",
            "url": "https://haz-map.com/Agents/15978",
            "category": "agents"
          }
        ]
      },
      "category": {
        "original_name": "Category",
        "value": "Nitrates and Nitrites",
        "links": [],
        "cross_references": [
          {
            "type": "name_match",
            "text": "nitrates and nitrites",
            "confidence": 1.0,
            "uuid": "6762c941-4910-4341-a779-ff9c9606e987",
            "name": "NITRATES and NITRITES",
            "url": "https://haz-map.com/Agents/1095",
            "category": "agents"
          }
        ]
      },
      "description": {
        "original_name": "Description",
        "value": "Colorless liquid; [Merck Index]",
        "links": [],
        "cross_references": []
      },
      "comments": {
        "original_name": "Comments",
        "value": "See \"n-Propyl nitrate.\"",
        "links": [],
        "cross_references": [
          {
            "type": "name_match",
            "text": "n-propyl nitrate",
            "confidence": 1.0,
            "uuid": "7d02cb03-8a65-436a-9fb9-bbfff53061fe",
            "name": "n-Propyl nitrate",
            "url": "https://haz-map.com/Agents/612",
            "category": "agents"
          }
        ]
      },
      "biomedical_references": {
        "original_name": "Biomedical References",
        "value": "Search PubMed",
        "links": [
          {
            "text": "Search PubMed",
            "url": "https://www.ncbi.nlm.nih.gov/pubmed?term=Isoamyl+nitrate%20AND%20human%5Bmh%5D%20AND%20%28Occupational%20Diseases%20%5Bmh%5D%20OR%20Occupational%20Exposure%20%5Bmh%5D%29%20%20AND%20%28tox%5Bsb%5D%29&cmd=search"
          }
        ],
        "cross_references": []
      }
    },
    "exposure_assessment": {
      "vapor_pressure": {
        "original_name": "Vapor Pressure",
        "value": "5.44 mm Hg",
        "links": [],
        "cross_references": []
      }
    },
    "adverse_effects": {
      "methemoglobinemia": {
        "original_name": "Methemoglobinemia",
        "value": "MetHgb is secondary toxic effect",
        "links": [],
        "cross_references": []
      }
    },
    "diseases_processes_and_activities_linked_to_this_agent": {
      "other_information": {
        "original_name": "Other Information",
        "value": "No other related information on this agent was found.",
        "links": [],
        "cross_references": []
      }
    }
  },
  "cross_references": [
    {
      "type": "name_match",
      "text": "n-propyl nitrate",
      "confidence": 1.0,
      "uuid": "7d02cb03-8a65-436a-9fb9-bbfff53061fe",
      "name": "n-Propyl nitrate",
      "url": "https://haz-map.com/Agents/612",
      "category": "agents"
    },
    {
      "type": "name_match",
      "text": "nitrogen",
      "confidence": 1.0,
      "uuid": "db5e90a9-06d2-45b9-8b81-f345a89b0bc0",
      "name": "Nitrogen",
      "url": "https://haz-map.com/Agents/1072",
      "category": "agents"
    },
    {
      "type": "name_match",
      "text": "nitrates and nitrites",
      "confidence": 1.0,
      "uuid": "6762c941-4910-4341-a779-ff9c9606e987",
      "name": "NITRATES and NITRITES",
      "url": "https://haz-map.com/Agents/1095",
      "category": "agents"
    },
    {
      "type": "name_match",
      "text": "tali",
      "confidence": 1.0,
      "uuid": "8c3a0f99-2143-4122-b539-ec5cc49596b0",
      "name": "Tali",
      "url": "https://haz-map.com/Agents/1128",
      "category": "agents"
    },
    {
      "type": "name_match",
      "text": "butyl nitrate",
      "confidence": 1.0,
      "uuid": "8b55aee6-c4c4-476b-aaa1-cd9929c7a85e",
      "name": "Butyl nitrate",
      "url": "https://haz-map.com/Agents/8629",
      "category": "agents"
    },
    {
      "type": "name_match",
      "text": "isoamyl nitrate",
      "confidence": 1.0,
      "uuid": "9e713c92-00d7-4185-81a1-208764cfaf42",
      "name": "Isoamyl nitrate",
      "url": "https://haz-map.com/Agents/10593",
      "category": "agents"
    },
    {
      "type": "name_match",
      "text": "amyl nitrate",
      "confidence": 1.0,
      "uuid": "88eae23d-7e2e-4d03-8e91-76903bcd02b4",
      "name": "Amyl nitrate",
      "url": "https://haz-map.com/Agents/15978",
      "category": "agents"
    }
  ],
  "all_links": [
    {
      "text": "Search PubMed",
      "url": "https://www.ncbi.nlm.nih.gov/pubmed?term=Isoamyl+nitrate%20AND%20human%5Bmh%5D%20AND%20%28Occupational%20Diseases%20%5Bmh%5D%20OR%20Occupational%20Exposure%20%5Bmh%5D%29%20%20AND%20%28tox%5Bsb%5D%29&cmd=search"
    }
  ]
}