{
  "metadata": {
    "scraped_from": "https://haz-map.com/Agents/10423",
    "entity_name": "2-Dodecanone",
    "category": "agents",
    "uuid": "9e98ec07-b1c0-440f-8f8d-d1efd71c9287",
    "scraped_at": "2025-07-23T20:47:15.869081"
  },
  "parsed_at": "2025-07-24T01:09:59.679158",
  "title": "2-Dodecanone",
  "sections": {
    "general": {
      "agent_name": {
        "original_name": "Agent Name",
        "value": "2-Dodecanone",
        "links": [],
        "cross_references": [
          {
            "type": "name_match",
            "text": "2-dodecanone",
            "confidence": 1.0,
            "uuid": "9e98ec07-b1c0-440f-8f8d-d1efd71c9287",
            "name": "2-Dodecanone",
            "url": "https://haz-map.com/Agents/10423",
            "category": "agents"
          }
        ]
      },
      "cas_number": {
        "original_name": "CAS Number",
        "value": "6175-49-1",
        "links": [],
        "cross_references": []
      },
      "formula": {
        "original_name": "Formula",
        "value": "C12-H24-O",
        "links": [],
        "cross_references": []
      },
      "major_category": {
        "original_name": "Major Category",
        "value": "Other Classes",
        "links": [],
        "cross_references": []
      },
      "synonyms": {
        "original_name": "Synonyms",
        "value": "Methyl decyl ketone; [ChemIDplus] Dodecan-2-one; [Aldrich MSDS]",
        "links": [],
        "cross_references": []
      },
      "category": {
        "original_name": "Category",
        "value": "Aliphatic Ketones, Other",
        "links": [],
        "cross_references": []
      },
      "description": {
        "original_name": "Description",
        "value": "Melting point = 21 deg C; [ChemIDplus] Clear, light yellow liquid; [Aldrich MSDS]",
        "links": [],
        "cross_references": [
          {
            "type": "name_match",
            "text": "ht",
            "confidence": 1.0,
            "uuid": "764df367-8d53-4a11-81a2-31ccfe122a8d",
            "name": "HT",
            "url": "https://haz-map.com/Agents/2168",
            "category": "agents"
          }
        ]
      },
      "comments": {
        "original_name": "Comments",
        "value": "May cause irritation; [Aldrich MSDS] See \"2-Undecanone.\"",
        "links": [],
        "cross_references": [
          {
            "type": "name_match",
            "text": "2-undecanone",
            "confidence": 1.0,
            "uuid": "412442c1-6883-43d8-a2dd-b782a276af0a",
            "name": "2-Undecanone",
            "url": "https://haz-map.com/Agents/3172",
            "category": "agents"
          }
        ]
      },
      "biomedical_references": {
        "original_name": "Biomedical References",
        "value": "Search PubMed",
        "links": [
          {
            "text": "Search PubMed",
            "url": "https://www.ncbi.nlm.nih.gov/pubmed?term=2-Dodecanone%20AND%20human%5Bmh%5D%20AND%20%28Occupational%20Diseases%20%5Bmh%5D%20OR%20Occupational%20Exposure%20%5Bmh%5D%29%20%20AND%20%28tox%5Bsb%5D%29&cmd=search"
          }
        ],
        "cross_references": []
      }
    },
    "adverse_effects": {
      "neurotoxin": {
        "original_name": "Neurotoxin",
        "value": "Acute solvent syndrome",
        "links": [],
        "cross_references": []
      }
    },
    "diseases_processes_and_activities_linked_to_this_agent": {
      "diseases": {
        "original_name": "Diseases",
        "value": "Occupational diseases associated with exposure to this agent: Solvents, acute toxic effect",
        "links": [
          {
            "text": "Solvents, acute toxic effect",
            "url": "https://haz-map.com/Diseases/326"
          }
        ],
        "cross_references": [
          {
            "type": "url_match",
            "text": "Solvents, acute toxic effect",
            "url": "https://haz-map.com/Diseases/326",
            "confidence": 1.0,
            "uuid": "581e90e3-9d0c-45f0-aa6c-3468c28da129",
            "name": "Solvents, acute toxic effect",
            "category": "diseases"
          }
        ]
      }
    }
  },
  "cross_references": [
    {
      "type": "url_match",
      "text": "Solvents, acute toxic effect",
      "url": "https://haz-map.com/Diseases/326",
      "confidence": 1.0,
      "uuid": "581e90e3-9d0c-45f0-aa6c-3468c28da129",
      "name": "Solvents, acute toxic effect",
      "category": "diseases"
    },
    {
      "type": "name_match",
      "text": "ht",
      "confidence": 1.0,
      "uuid": "764df367-8d53-4a11-81a2-31ccfe122a8d",
      "name": "HT",
      "url": "https://haz-map.com/Agents/2168",
      "category": "agents"
    },
    {
      "type": "name_match",
      "text": "2-undecanone",
      "confidence": 1.0,
      "uuid": "412442c1-6883-43d8-a2dd-b782a276af0a",
      "name": "2-Undecanone",
      "url": "https://haz-map.com/Agents/3172",
      "category": "agents"
    },
    {
      "type": "name_match",
      "text": "2-dodecanone",
      "confidence": 1.0,
      "uuid": "9e98ec07-b1c0-440f-8f8d-d1efd71c9287",
      "name": "2-Dodecanone",
      "url": "https://haz-map.com/Agents/10423",
      "category": "agents"
    }
  ],
  "all_links": [
    {
      "text": "Search PubMed",
      "url": "https://www.ncbi.nlm.nih.gov/pubmed?term=2-Dodecanone%20AND%20human%5Bmh%5D%20AND%20%28Occupational%20Diseases%20%5Bmh%5D%20OR%20Occupational%20Exposure%20%5Bmh%5D%29%20%20AND%20%28tox%5Bsb%5D%29&cmd=search"
    },
    {
      "text": "Solvents, acute toxic effect",
      "url": "https://haz-map.com/Diseases/326"
    }
  ]
}