{
  "metadata": {
    "scraped_from": "https://haz-map.com/Agents/7824",
    "entity_name": "4-tert-Butylcatechol",
    "category": "agents",
    "uuid": "9ea7b46c-3fb4-450e-9da3-080a6321db4e",
    "scraped_at": "2025-07-23T20:17:08.217042"
  },
  "parsed_at": "2025-07-24T01:02:31.199385",
  "title": "4-tert-Butylcatechol",
  "sections": {
    "general": {
      "agent_name": {
        "original_name": "Agent Name",
        "value": "4-tert-Butylcatechol",
        "links": [],
        "cross_references": [
          {
            "type": "name_match",
            "text": "catechol",
            "confidence": 1.0,
            "uuid": "f171132b-f7fb-42b9-ba76-091eb240fa4a",
            "name": "Catechol",
            "url": "https://haz-map.com/Agents/346",
            "category": "agents"
          },
          {
            "type": "name_match",
            "text": "4-tert-butylcatechol",
            "confidence": 1.0,
            "uuid": "9ea7b46c-3fb4-450e-9da3-080a6321db4e",
            "name": "4-tert-Butylcatechol",
            "url": "https://haz-map.com/Agents/7824",
            "category": "agents"
          }
        ]
      },
      "cas_number": {
        "original_name": "CAS Number",
        "value": "98-29-3",
        "links": [],
        "cross_references": []
      },
      "formula": {
        "original_name": "Formula",
        "value": "C10-H14-O2",
        "links": [],
        "cross_references": []
      },
      "major_category": {
        "original_name": "Major Category",
        "value": "Other Classes",
        "links": [],
        "cross_references": []
      },
      "synonyms": {
        "original_name": "Synonyms",
        "value": "1,2-Benzenediol, 4-(1,1-dimethylethyl)-; 1,2-Dihydroxy-4-tert-butylbenzene; 4-TBC; 4-t-Butylcatechol; 4-t-Butylpyrocatechol; 4-tert-Butyl-1,2-benzenediol; 4-tert-Butyl-1,2-dihydroxybenzene; 4-tert-Butylcatechin; 4-tert-Butylcatechol; 4-tert-Butylpyrocatechol; 4-tert-Butylpyrokatechin [Czech]; Synox TBC; p-t-Butylpyrocatechol; p-tert-Butylcatechol; p-tert-Butylpyrocatechol; Pyrocatechol, 4-tert-butyl-; [ChemIDplus] UN2923",
        "links": [],
        "cross_references": [
          {
            "type": "name_match",
            "text": "benzene",
            "confidence": 1.0,
            "uuid": "b05124de-5f34-4c14-8f04-ccb20c3780d9",
            "name": "Benzene",
            "url": "https://haz-map.com/Agents/5",
            "category": "agents"
          },
          {
            "type": "name_match",
            "text": "catechol",
            "confidence": 1.0,
            "uuid": "f171132b-f7fb-42b9-ba76-091eb240fa4a",
            "name": "Catechol",
            "url": "https://haz-map.com/Agents/346",
            "category": "agents"
          },
          {
            "type": "name_match",
            "text": "t-butylbenzene",
            "confidence": 1.0,
            "uuid": "3654a0c2-49c0-4df2-8a45-e7bd5b86752c",
            "name": "t-Butylbenzene",
            "url": "https://haz-map.com/Agents/7287",
            "category": "agents"
          },
          {
            "type": "name_match",
            "text": "4-tert-butylcatechol",
            "confidence": 1.0,
            "uuid": "9ea7b46c-3fb4-450e-9da3-080a6321db4e",
            "name": "4-tert-Butylcatechol",
            "url": "https://haz-map.com/Agents/7824",
            "category": "agents"
          }
        ]
      },
      "category": {
        "original_name": "Category",
        "value": "Phenols",
        "links": [],
        "cross_references": [
          {
            "type": "name_match",
            "text": "phenol",
            "confidence": 1.0,
            "uuid": "03141a03-a7df-4f51-9a37-adde1a7c4b31",
            "name": "Phenol",
            "url": "https://haz-map.com/Agents/84",
            "category": "agents"
          }
        ]
      },
      "description": {
        "original_name": "Description",
        "value": "White solid; [CHEMINFO] White or tan, odorless crystalline solid; [MSDSonline]",
        "links": [],
        "cross_references": [
          {
            "type": "fuzzy_match",
            "text": "crystalline",
            "matched_name": "Silica, crystalline",
            "confidence": 0.7061403508771931,
            "uuid": "f920e8a2-46df-41b7-af8d-0368a777251e",
            "category": "agents",
            "url": "https://haz-map.com/Agents/427"
          }
        ]
      },
      "sourcesuses": {
        "original_name": "Sources/Uses",
        "value": "Used to inhibit polymerization of styrene-butadiene and other olefins; [Hawley]",
        "links": [],
        "cross_references": [
          {
            "type": "name_match",
            "text": "styrene",
            "confidence": 1.0,
            "uuid": "03c5632f-5079-4688-82bd-0dacf3d0d36a",
            "name": "Styrene",
            "url": "https://haz-map.com/Agents/32",
            "category": "agents"
          },
          {
            "type": "name_match",
            "text": "butadiene",
            "confidence": 1.0,
            "uuid": "f4fdb4ce-e062-4db5-8e5d-eba44b8a05be",
            "name": "Butadiene",
            "url": "https://haz-map.com/Agents/12505",
            "category": "agents"
          }
        ]
      },
      "comments": {
        "original_name": "Comments",
        "value": "Has corrosive effects to skin and eyes; [CHEMINFO] Danger of skin sensitization; [MAK] No mortality occurred in animals exposed to saturated concentrations (3-4 ppm); Cases of skin depigmentation have been reported in workers; [AIHA] A corrosive substance that can cause injury to the skin, eyes, and respiratory tract; Inhalation may cause chemical pneumonitis; Can be absorbed through skin; May cause skin sensitization; [MSDSonline]",
        "links": [],
        "cross_references": [
          {
            "type": "name_match",
            "text": "mica",
            "confidence": 1.0,
            "uuid": "433f26f1-c399-4596-b179-ce3843cfd465",
            "name": "Mica",
            "url": "https://haz-map.com/Agents/621",
            "category": "agents"
          },
          {
            "type": "name_match",
            "text": "tali",
            "confidence": 1.0,
            "uuid": "8c3a0f99-2143-4122-b539-ec5cc49596b0",
            "name": "Tali",
            "url": "https://haz-map.com/Agents/1128",
            "category": "agents"
          }
        ]
      },
      "biomedical_references": {
        "original_name": "Biomedical References",
        "value": "Search PubMed",
        "links": [
          {
            "text": "Search PubMed",
            "url": "https://www.ncbi.nlm.nih.gov/pubmed?term=4-tert-Butylcatechol%20AND%20human%5Bmh%5D%20AND%20%28Occupational%20Diseases%20%5Bmh%5D%20OR%20Occupational%20Exposure%20%5Bmh%5D%29%20%20AND%20%28tox%5Bsb%5D%29&cmd=search"
          }
        ],
        "cross_references": []
      }
    },
    "exposure_assessment": {
      "vapor_pressure": {
        "original_name": "Vapor Pressure",
        "value": "0.0028 mm Hg",
        "links": [],
        "cross_references": []
      },
      "explanatory_notes": {
        "original_name": "Explanatory Notes",
        "value": "Odor Threshold = 1.0 mg/l (detection); Flash Point = 130 deg C; [CHEMINFO] The Guide in the Emergency Response Guidebook is for \"Corrosive solid, toxic, n.o.s.\"",
        "links": [],
        "cross_references": [
          {
            "type": "name_match",
            "text": "ash",
            "confidence": 1.0,
            "uuid": "68b360f1-5ad0-4337-bea0-d7adca2961b5",
            "name": "Ash",
            "url": "https://haz-map.com/Agents/965",
            "category": "agents"
          }
        ]
      },
      "nfpa": {
        "original_name": "NFPA",
        "value": "must be preheated",
        "links": [],
        "cross_references": []
      },
      "weel": {
        "original_name": "WEEL",
        "value": "Ceiling = 2 mg/m3",
        "links": [],
        "cross_references": []
      }
    },
    "adverse_effects": {
      "skin_sensitizer": {
        "original_name": "Skin Sensitizer",
        "value": "Yes",
        "links": [],
        "cross_references": []
      },
      "toxic_pneumonitis": {
        "original_name": "Toxic Pneumonitis",
        "value": "Yes",
        "links": [],
        "cross_references": []
      },
      "dermatotoxin": {
        "original_name": "Dermatotoxin",
        "value": "Skin burns",
        "links": [],
        "cross_references": [
          {
            "type": "name_match",
            "text": "burn",
            "confidence": 1.0,
            "uuid": "63665de5-6376-4918-8dbf-4c10c4d63837",
            "name": "burn",
            "url": "https://haz-map.com/Findings/204",
            "category": "findings"
          }
        ]
      }
    },
    "diseases_processes_and_activities_linked_to_this_agent": {
      "diseases": {
        "original_name": "Diseases",
        "value": "Occupational diseases associated with exposure to this agent: Contact dermatitis, allergic",
        "links": [
          {
            "text": "Contact dermatitis, allergic",
            "url": "https://haz-map.com/Diseases/18"
          }
        ],
        "cross_references": [
          {
            "type": "url_match",
            "text": "Contact dermatitis, allergic",
            "url": "https://haz-map.com/Diseases/18",
            "confidence": 1.0,
            "uuid": "c9499de0-9aa1-41bf-8753-cd5b28a63e29",
            "name": "Contact dermatitis, allergic",
            "category": "diseases"
          },
          {
            "type": "name_match",
            "text": "dermatitis",
            "confidence": 1.0,
            "uuid": "fe9c05f2-b19f-4ceb-ac7a-ffb7d7a0cae0",
            "name": "dermatitis",
            "url": "https://haz-map.com/Findings/59",
            "category": "findings"
          }
        ]
      }
    }
  },
  "cross_references": [
    {
      "type": "url_match",
      "text": "Contact dermatitis, allergic",
      "url": "https://haz-map.com/Diseases/18",
      "confidence": 1.0,
      "uuid": "c9499de0-9aa1-41bf-8753-cd5b28a63e29",
      "name": "Contact dermatitis, allergic",
      "category": "diseases"
    },
    {
      "type": "name_match",
      "text": "dermatitis",
      "confidence": 1.0,
      "uuid": "fe9c05f2-b19f-4ceb-ac7a-ffb7d7a0cae0",
      "name": "dermatitis",
      "url": "https://haz-map.com/Findings/59",
      "category": "findings"
    },
    {
      "type": "name_match",
      "text": "burn",
      "confidence": 1.0,
      "uuid": "63665de5-6376-4918-8dbf-4c10c4d63837",
      "name": "burn",
      "url": "https://haz-map.com/Findings/204",
      "category": "findings"
    },
    {
      "type": "name_match",
      "text": "benzene",
      "confidence": 1.0,
      "uuid": "b05124de-5f34-4c14-8f04-ccb20c3780d9",
      "name": "Benzene",
      "url": "https://haz-map.com/Agents/5",
      "category": "agents"
    },
    {
      "type": "name_match",
      "text": "styrene",
      "confidence": 1.0,
      "uuid": "03c5632f-5079-4688-82bd-0dacf3d0d36a",
      "name": "Styrene",
      "url": "https://haz-map.com/Agents/32",
      "category": "agents"
    },
    {
      "type": "name_match",
      "text": "phenol",
      "confidence": 1.0,
      "uuid": "03141a03-a7df-4f51-9a37-adde1a7c4b31",
      "name": "Phenol",
      "url": "https://haz-map.com/Agents/84",
      "category": "agents"
    },
    {
      "type": "name_match",
      "text": "catechol",
      "confidence": 1.0,
      "uuid": "f171132b-f7fb-42b9-ba76-091eb240fa4a",
      "name": "Catechol",
      "url": "https://haz-map.com/Agents/346",
      "category": "agents"
    },
    {
      "type": "name_match",
      "text": "mica",
      "confidence": 1.0,
      "uuid": "433f26f1-c399-4596-b179-ce3843cfd465",
      "name": "Mica",
      "url": "https://haz-map.com/Agents/621",
      "category": "agents"
    },
    {
      "type": "name_match",
      "text": "ash",
      "confidence": 1.0,
      "uuid": "68b360f1-5ad0-4337-bea0-d7adca2961b5",
      "name": "Ash",
      "url": "https://haz-map.com/Agents/965",
      "category": "agents"
    },
    {
      "type": "name_match",
      "text": "tali",
      "confidence": 1.0,
      "uuid": "8c3a0f99-2143-4122-b539-ec5cc49596b0",
      "name": "Tali",
      "url": "https://haz-map.com/Agents/1128",
      "category": "agents"
    },
    {
      "type": "name_match",
      "text": "t-butylbenzene",
      "confidence": 1.0,
      "uuid": "3654a0c2-49c0-4df2-8a45-e7bd5b86752c",
      "name": "t-Butylbenzene",
      "url": "https://haz-map.com/Agents/7287",
      "category": "agents"
    },
    {
      "type": "name_match",
      "text": "4-tert-butylcatechol",
      "confidence": 1.0,
      "uuid": "9ea7b46c-3fb4-450e-9da3-080a6321db4e",
      "name": "4-tert-Butylcatechol",
      "url": "https://haz-map.com/Agents/7824",
      "category": "agents"
    },
    {
      "type": "name_match",
      "text": "butadiene",
      "confidence": 1.0,
      "uuid": "f4fdb4ce-e062-4db5-8e5d-eba44b8a05be",
      "name": "Butadiene",
      "url": "https://haz-map.com/Agents/12505",
      "category": "agents"
    },
    {
      "type": "fuzzy_match",
      "text": "crystalline",
      "matched_name": "Silica, crystalline",
      "confidence": 0.7061403508771931,
      "uuid": "f920e8a2-46df-41b7-af8d-0368a777251e",
      "category": "agents",
      "url": "https://haz-map.com/Agents/427"
    }
  ],
  "all_links": [
    {
      "text": "Search PubMed",
      "url": "https://www.ncbi.nlm.nih.gov/pubmed?term=4-tert-Butylcatechol%20AND%20human%5Bmh%5D%20AND%20%28Occupational%20Diseases%20%5Bmh%5D%20OR%20Occupational%20Exposure%20%5Bmh%5D%29%20%20AND%20%28tox%5Bsb%5D%29&cmd=search"
    },
    {
      "text": "Contact dermatitis, allergic",
      "url": "https://haz-map.com/Diseases/18"
    }
  ]
}