{
  "metadata": {
    "scraped_from": "https://haz-map.com/Agents/21149",
    "entity_name": "Methyl trimethylacetate",
    "category": "agents",
    "uuid": "9eaf9a4c-b8f3-410a-8fe3-9449dfdd1205",
    "scraped_at": "2025-07-23T22:38:24.910448"
  },
  "parsed_at": "2025-07-24T01:08:07.538034",
  "title": "Methyl trimethylacetate",
  "sections": {
    "general": {
      "agent_name": {
        "original_name": "Agent Name",
        "value": "Methyl trimethylacetate",
        "links": [],
        "cross_references": [
          {
            "type": "name_match",
            "text": "methyl trimethylacetate",
            "confidence": 1.0,
            "uuid": "9eaf9a4c-b8f3-410a-8fe3-9449dfdd1205",
            "name": "Methyl trimethylacetate",
            "url": "https://haz-map.com/Agents/21149",
            "category": "agents"
          }
        ]
      },
      "cas_number": {
        "original_name": "CAS Number",
        "value": "598-98-1",
        "links": [],
        "cross_references": []
      },
      "formula": {
        "original_name": "Formula",
        "value": "C6-H12-O2",
        "links": [],
        "cross_references": []
      },
      "major_category": {
        "original_name": "Major Category",
        "value": "Solvents",
        "links": [],
        "cross_references": []
      },
      "synonyms": {
        "original_name": "Synonyms",
        "value": "Methyl pivalate; Propanoic acid, 2,2-dimethyl-, methyl ester; Pivalic acid, methyl ester; [ChemIDplus] 2,2-Dimethylpropanoic acid, methyl ester; [EPA ChAMP: Hazard Characterization] Methyl 2,2-dimethylpropionate; [Sigma-Aldrich MSDS] UN3272",
        "links": [],
        "cross_references": [
          {
            "type": "name_match",
            "text": "2,2-dimethylpropanoic acid",
            "confidence": 1.0,
            "uuid": "0bd71b6f-c664-4297-bf06-318426f459a2",
            "name": "2,2-Dimethylpropanoic acid",
            "url": "https://haz-map.com/Agents/3442",
            "category": "agents"
          }
        ]
      },
      "category": {
        "original_name": "Category",
        "value": "Esters (<C12)",
        "links": [],
        "cross_references": []
      },
      "description": {
        "original_name": "Description",
        "value": "Clear colorless liquid; [Sigma-Aldrich MSDS]",
        "links": [],
        "cross_references": []
      },
      "sourcesuses": {
        "original_name": "Sources/Uses",
        "value": "Used to make vinyl chloride resins, as a chemical intermediate, and in adhesives, lubricants, greases, and fuel additives; [EPA ChAMP: Initial Risk-Based Prioritization]",
        "links": [],
        "cross_references": [
          {
            "type": "name_match",
            "text": "vinyl chloride",
            "confidence": 1.0,
            "uuid": "7b74b11d-1ba5-4dde-8d86-ed88645b5ce1",
            "name": "Vinyl chloride",
            "url": "https://haz-map.com/Agents/15",
            "category": "agents"
          },
          {
            "type": "name_match",
            "text": "mica",
            "confidence": 1.0,
            "uuid": "433f26f1-c399-4596-b179-ce3843cfd465",
            "name": "Mica",
            "url": "https://haz-map.com/Agents/621",
            "category": "agents"
          },
          {
            "type": "name_match",
            "text": "grease",
            "confidence": 1.0,
            "uuid": "bf476c67-9302-4215-a263-a67d337ab9ef",
            "name": "Grease",
            "url": "https://haz-map.com/Agents/21033",
            "category": "agents"
          }
        ]
      },
      "comments": {
        "original_name": "Comments",
        "value": "Metabolized into the parent acid (2,2-dimethylpropanoic acid) and methanol; [EPA ChAMP: Hazard Characterization] See \"2,2-Dimethylpropanoic acid\" and \"Methyl alcohol.\"",
        "links": [],
        "cross_references": [
          {
            "type": "name_match",
            "text": "methyl alcohol",
            "confidence": 1.0,
            "uuid": "6b4db7bf-710a-48ac-9b97-40e0376a68f3",
            "name": "Methyl alcohol",
            "url": "https://haz-map.com/Agents/13",
            "category": "agents"
          },
          {
            "type": "name_match",
            "text": "ethyl alcohol",
            "confidence": 1.0,
            "uuid": "9e039165-5b7c-44a7-afb2-dcf3c15e7a99",
            "name": "Ethyl alcohol",
            "url": "https://haz-map.com/Agents/481",
            "category": "agents"
          },
          {
            "type": "name_match",
            "text": "2,2-dimethylpropanoic acid",
            "confidence": 1.0,
            "uuid": "0bd71b6f-c664-4297-bf06-318426f459a2",
            "name": "2,2-Dimethylpropanoic acid",
            "url": "https://haz-map.com/Agents/3442",
            "category": "agents"
          }
        ]
      },
      "biomedical_references": {
        "original_name": "Biomedical References",
        "value": "Search PubMed",
        "links": [
          {
            "text": "Search PubMed",
            "url": "https://www.ncbi.nlm.nih.gov/pubmed?term=Methyl+trimethylacetate%20AND%20human%5Bmh%5D%20AND%20%28Occupational%20Diseases%20%5Bmh%5D%20OR%20Occupational%20Exposure%20%5Bmh%5D%29%20%20AND%20%28tox%5Bsb%5D%29&cmd=search"
          }
        ],
        "cross_references": []
      }
    },
    "exposure_assessment": {
      "vapor_pressure": {
        "original_name": "Vapor Pressure",
        "value": "33.9 mm Hg",
        "links": [],
        "cross_references": []
      },
      "explanatory_notes": {
        "original_name": "Explanatory Notes",
        "value": "The Guide in the Emergency Response Guidebook is for \"Esters, n.o.s.\"",
        "links": [],
        "cross_references": []
      }
    },
    "adverse_effects": {
      "neurotoxin": {
        "original_name": "Neurotoxin",
        "value": "Acute solvent syndrome",
        "links": [],
        "cross_references": []
      }
    },
    "diseases_processes_and_activities_linked_to_this_agent": {
      "diseases": {
        "original_name": "Diseases",
        "value": "Occupational diseases associated with exposure to this agent: Solvents, acute toxic effect",
        "links": [
          {
            "text": "Solvents, acute toxic effect",
            "url": "https://haz-map.com/Diseases/326"
          }
        ],
        "cross_references": [
          {
            "type": "url_match",
            "text": "Solvents, acute toxic effect",
            "url": "https://haz-map.com/Diseases/326",
            "confidence": 1.0,
            "uuid": "581e90e3-9d0c-45f0-aa6c-3468c28da129",
            "name": "Solvents, acute toxic effect",
            "category": "diseases"
          }
        ]
      },
      "processes": {
        "original_name": "Processes",
        "value": "Industrial Processes with risk of exposure: Working with Glues and Adhesives",
        "links": [
          {
            "text": "Working with Glues and Adhesives",
            "url": "https://haz-map.com/Processes/155"
          }
        ],
        "cross_references": [
          {
            "type": "url_match",
            "text": "Working with Glues and Adhesives",
            "url": "https://haz-map.com/Processes/155",
            "confidence": 1.0,
            "uuid": "acb9084f-52e8-4687-bd6a-bced94bda834",
            "name": "Working with Glues and Adhesives",
            "category": "processes"
          }
        ]
      }
    }
  },
  "cross_references": [
    {
      "type": "url_match",
      "text": "Solvents, acute toxic effect",
      "url": "https://haz-map.com/Diseases/326",
      "confidence": 1.0,
      "uuid": "581e90e3-9d0c-45f0-aa6c-3468c28da129",
      "name": "Solvents, acute toxic effect",
      "category": "diseases"
    },
    {
      "type": "url_match",
      "text": "Working with Glues and Adhesives",
      "url": "https://haz-map.com/Processes/155",
      "confidence": 1.0,
      "uuid": "acb9084f-52e8-4687-bd6a-bced94bda834",
      "name": "Working with Glues and Adhesives",
      "category": "processes"
    },
    {
      "type": "name_match",
      "text": "methyl alcohol",
      "confidence": 1.0,
      "uuid": "6b4db7bf-710a-48ac-9b97-40e0376a68f3",
      "name": "Methyl alcohol",
      "url": "https://haz-map.com/Agents/13",
      "category": "agents"
    },
    {
      "type": "name_match",
      "text": "vinyl chloride",
      "confidence": 1.0,
      "uuid": "7b74b11d-1ba5-4dde-8d86-ed88645b5ce1",
      "name": "Vinyl chloride",
      "url": "https://haz-map.com/Agents/15",
      "category": "agents"
    },
    {
      "type": "name_match",
      "text": "ethyl alcohol",
      "confidence": 1.0,
      "uuid": "9e039165-5b7c-44a7-afb2-dcf3c15e7a99",
      "name": "Ethyl alcohol",
      "url": "https://haz-map.com/Agents/481",
      "category": "agents"
    },
    {
      "type": "name_match",
      "text": "mica",
      "confidence": 1.0,
      "uuid": "433f26f1-c399-4596-b179-ce3843cfd465",
      "name": "Mica",
      "url": "https://haz-map.com/Agents/621",
      "category": "agents"
    },
    {
      "type": "name_match",
      "text": "2,2-dimethylpropanoic acid",
      "confidence": 1.0,
      "uuid": "0bd71b6f-c664-4297-bf06-318426f459a2",
      "name": "2,2-Dimethylpropanoic acid",
      "url": "https://haz-map.com/Agents/3442",
      "category": "agents"
    },
    {
      "type": "name_match",
      "text": "grease",
      "confidence": 1.0,
      "uuid": "bf476c67-9302-4215-a263-a67d337ab9ef",
      "name": "Grease",
      "url": "https://haz-map.com/Agents/21033",
      "category": "agents"
    },
    {
      "type": "name_match",
      "text": "methyl trimethylacetate",
      "confidence": 1.0,
      "uuid": "9eaf9a4c-b8f3-410a-8fe3-9449dfdd1205",
      "name": "Methyl trimethylacetate",
      "url": "https://haz-map.com/Agents/21149",
      "category": "agents"
    }
  ],
  "all_links": [
    {
      "text": "Search PubMed",
      "url": "https://www.ncbi.nlm.nih.gov/pubmed?term=Methyl+trimethylacetate%20AND%20human%5Bmh%5D%20AND%20%28Occupational%20Diseases%20%5Bmh%5D%20OR%20Occupational%20Exposure%20%5Bmh%5D%29%20%20AND%20%28tox%5Bsb%5D%29&cmd=search"
    },
    {
      "text": "Solvents, acute toxic effect",
      "url": "https://haz-map.com/Diseases/326"
    },
    {
      "text": "Working with Glues and Adhesives",
      "url": "https://haz-map.com/Processes/155"
    }
  ]
}