{
  "metadata": {
    "scraped_from": "https://haz-map.com/Agents/3241",
    "entity_name": "3-Methylindole",
    "category": "agents",
    "uuid": "9ef59a50-8de5-42d1-bed3-ffd13c254ab9",
    "scraped_at": "2025-07-23T19:26:14.997429"
  },
  "parsed_at": "2025-07-24T01:10:22.723109",
  "title": "3-Methylindole",
  "sections": {
    "general": {
      "agent_name": {
        "original_name": "Agent Name",
        "value": "3-Methylindole",
        "links": [],
        "cross_references": [
          {
            "type": "name_match",
            "text": "3-methylindole",
            "confidence": 1.0,
            "uuid": "9ef59a50-8de5-42d1-bed3-ffd13c254ab9",
            "name": "3-Methylindole",
            "url": "https://haz-map.com/Agents/3241",
            "category": "agents"
          },
          {
            "type": "name_match",
            "text": "indole",
            "confidence": 1.0,
            "uuid": "9c93731a-de8c-47f7-94f9-bfba35edd847",
            "name": "Indole",
            "url": "https://haz-map.com/Agents/5628",
            "category": "agents"
          }
        ]
      },
      "alternative_name": {
        "original_name": "Alternative Name",
        "value": "Skatole",
        "links": [],
        "cross_references": []
      },
      "cas_number": {
        "original_name": "CAS Number",
        "value": "83-34-1",
        "links": [],
        "cross_references": []
      },
      "formula": {
        "original_name": "Formula",
        "value": "C9-H9-N",
        "links": [],
        "cross_references": []
      },
      "major_category": {
        "original_name": "Major Category",
        "value": "Nitrogen Compounds",
        "links": [],
        "cross_references": [
          {
            "type": "name_match",
            "text": "nitrogen",
            "confidence": 1.0,
            "uuid": "db5e90a9-06d2-45b9-8b81-f345a89b0bc0",
            "name": "Nitrogen",
            "url": "https://haz-map.com/Agents/1072",
            "category": "agents"
          }
        ]
      },
      "synonyms": {
        "original_name": "Synonyms",
        "value": "1H-Indole, 3-methyl-; 3-MI; 3-Methyl-1H-indole; 3-Methyl-4,5-benzopyrrole; Indole, 3-methyl-; Scatole; Skatol; beta-Methylindole; [ChemIDplus]",
        "links": [],
        "cross_references": [
          {
            "type": "name_match",
            "text": "indole",
            "confidence": 1.0,
            "uuid": "9c93731a-de8c-47f7-94f9-bfba35edd847",
            "name": "Indole",
            "url": "https://haz-map.com/Agents/5628",
            "category": "agents"
          },
          {
            "type": "name_match",
            "text": "pyrrole",
            "confidence": 1.0,
            "uuid": "e3583a0a-ba87-4115-ac3a-d30f7f909a30",
            "name": "Pyrrole",
            "url": "https://haz-map.com/Agents/6924",
            "category": "agents"
          }
        ]
      },
      "category": {
        "original_name": "Category",
        "value": "Indoles",
        "links": [],
        "cross_references": [
          {
            "type": "name_match",
            "text": "indole",
            "confidence": 1.0,
            "uuid": "9c93731a-de8c-47f7-94f9-bfba35edd847",
            "name": "Indole",
            "url": "https://haz-map.com/Agents/5628",
            "category": "agents"
          }
        ]
      },
      "description": {
        "original_name": "Description",
        "value": "White to brownish solid with a fecal odor; [Merck Index] Odor becomes pleasant and sweet at very low concentrations; [HSDB] White crystalline flakes with a stench; [MSDSonline]",
        "links": [],
        "cross_references": [
          {
            "type": "fuzzy_match",
            "text": "crystalline",
            "matched_name": "Silica, crystalline",
            "confidence": 0.7061403508771931,
            "uuid": "f920e8a2-46df-41b7-af8d-0368a777251e",
            "category": "agents",
            "url": "https://haz-map.com/Agents/427"
          }
        ]
      },
      "sourcesuses": {
        "original_name": "Sources/Uses",
        "value": "Used in perfume fixatives, artificial civet (musk), food flavoring, and experimental veterinary medications; [HSDB]",
        "links": [],
        "cross_references": []
      },
      "comments": {
        "original_name": "Comments",
        "value": "Caused no irritation in humans following 24 hour closed patch test (2% in petrolatum); [HSDB] Lethal doses by intravenous and oral routes produced pulmonary lesions in cattle; [RTECS] Safe when used as a flavoring agent in food; [JECFA] See \"Indole.\"",
        "links": [],
        "cross_references": [
          {
            "type": "name_match",
            "text": "indole",
            "confidence": 1.0,
            "uuid": "9c93731a-de8c-47f7-94f9-bfba35edd847",
            "name": "Indole",
            "url": "https://haz-map.com/Agents/5628",
            "category": "agents"
          },
          {
            "type": "name_match",
            "text": "petrolatum",
            "confidence": 1.0,
            "uuid": "3aa16d92-e402-405d-86f0-246be9009b2b",
            "name": "Petrolatum",
            "url": "https://haz-map.com/Agents/6605",
            "category": "agents"
          }
        ]
      },
      "biomedical_references": {
        "original_name": "Biomedical References",
        "value": "Search PubMed",
        "links": [
          {
            "text": "Search PubMed",
            "url": "https://www.ncbi.nlm.nih.gov/pubmed?term=3-Methylindole%20AND%20human%5Bmh%5D%20AND%20%28Occupational%20Diseases%20%5Bmh%5D%20OR%20Occupational%20Exposure%20%5Bmh%5D%29%20%20AND%20%28tox%5Bsb%5D%29&cmd=search"
          }
        ],
        "cross_references": []
      }
    },
    "exposure_assessment": {
      "vapor_pressure": {
        "original_name": "Vapor Pressure",
        "value": "0.0055 mm Hg",
        "links": [],
        "cross_references": []
      }
    },
    "diseases_processes_and_activities_linked_to_this_agent": {
      "other_information": {
        "original_name": "Other Information",
        "value": "No other related information on this agent was found.",
        "links": [],
        "cross_references": []
      }
    }
  },
  "cross_references": [
    {
      "type": "name_match",
      "text": "nitrogen",
      "confidence": 1.0,
      "uuid": "db5e90a9-06d2-45b9-8b81-f345a89b0bc0",
      "name": "Nitrogen",
      "url": "https://haz-map.com/Agents/1072",
      "category": "agents"
    },
    {
      "type": "name_match",
      "text": "3-methylindole",
      "confidence": 1.0,
      "uuid": "9ef59a50-8de5-42d1-bed3-ffd13c254ab9",
      "name": "3-Methylindole",
      "url": "https://haz-map.com/Agents/3241",
      "category": "agents"
    },
    {
      "type": "name_match",
      "text": "indole",
      "confidence": 1.0,
      "uuid": "9c93731a-de8c-47f7-94f9-bfba35edd847",
      "name": "Indole",
      "url": "https://haz-map.com/Agents/5628",
      "category": "agents"
    },
    {
      "type": "name_match",
      "text": "petrolatum",
      "confidence": 1.0,
      "uuid": "3aa16d92-e402-405d-86f0-246be9009b2b",
      "name": "Petrolatum",
      "url": "https://haz-map.com/Agents/6605",
      "category": "agents"
    },
    {
      "type": "name_match",
      "text": "pyrrole",
      "confidence": 1.0,
      "uuid": "e3583a0a-ba87-4115-ac3a-d30f7f909a30",
      "name": "Pyrrole",
      "url": "https://haz-map.com/Agents/6924",
      "category": "agents"
    },
    {
      "type": "fuzzy_match",
      "text": "crystalline",
      "matched_name": "Silica, crystalline",
      "confidence": 0.7061403508771931,
      "uuid": "f920e8a2-46df-41b7-af8d-0368a777251e",
      "category": "agents",
      "url": "https://haz-map.com/Agents/427"
    }
  ],
  "all_links": [
    {
      "text": "Search PubMed",
      "url": "https://www.ncbi.nlm.nih.gov/pubmed?term=3-Methylindole%20AND%20human%5Bmh%5D%20AND%20%28Occupational%20Diseases%20%5Bmh%5D%20OR%20Occupational%20Exposure%20%5Bmh%5D%29%20%20AND%20%28tox%5Bsb%5D%29&cmd=search"
    }
  ]
}