{
  "metadata": {
    "scraped_from": "https://haz-map.com/Agents/6450",
    "entity_name": "Oil Pink",
    "category": "agents",
    "uuid": "9f01470b-b6dd-41d3-b1a0-1735a2894ad7",
    "scraped_at": "2025-07-23T20:02:07.960837"
  },
  "parsed_at": "2025-07-24T00:54:03.042660",
  "title": "Oil Pink",
  "sections": {
    "general": {
      "agent_name": {
        "original_name": "Agent Name",
        "value": "Oil Pink",
        "links": [],
        "cross_references": [
          {
            "type": "name_match",
            "text": "oil pink",
            "confidence": 1.0,
            "uuid": "9f01470b-b6dd-41d3-b1a0-1735a2894ad7",
            "name": "Oil Pink",
            "url": "https://haz-map.com/Agents/6450",
            "category": "agents"
          }
        ]
      },
      "cas_number": {
        "original_name": "CAS Number",
        "value": "1229-55-6",
        "links": [],
        "cross_references": []
      },
      "formula": {
        "original_name": "Formula",
        "value": "C17-H14-N2-O2",
        "links": [],
        "cross_references": []
      },
      "major_category": {
        "original_name": "Major Category",
        "value": "Dyes",
        "links": [],
        "cross_references": []
      },
      "synonyms": {
        "original_name": "Synonyms",
        "value": "1-((2-Methoxyphenyl)azo)-2-naphthalenol; 1-(2-Methoxyphenylazo)-2-naphthol; 1-(o-Anisylazo)-2-naphthol; 2-Naphthalenol, 1-((2-methoxyphenyl)azo)-; 2-Naphthol, 1-((o-methoxyphenyl)azo)-; Anisole-2-azo-beta-naphthol; Brilliant Fast Scarlet R; Brilliant Fat Scarlet R; C Red 2; C.I. 12150; C.I. Food Red 16; C.I. Solvent Red I; CI 12150; CI Food Red 16; CI Solvent Red 1; Ceres Red G; Ceres Red G 102; Fat Red BG; Fat Red G; Fat Red RS; Fat Red RS (VAN); Fat Soluble Red S; Fat-Soluble Red S; Food Red 16; Lacquer Red V 2G; Oil Red; Oil Red 113; Oil Red OG; Oil Scarlet 389; Oil Soluble Red S; Oil Vermilion; Oil Vermilion LP; Oleal Red G; Organol Vermilion; Orient Oil Red OG; Plastoresin Red FR; Resinol Red G; Sico Fat Red BG New; Silotras Red TG; Solvent Red 1; Somalia Red PG; Sudan R; Sudan Red 290; Sudan Red G (6CI); [ChemIDplus]",
        "links": [],
        "cross_references": [
          {
            "type": "name_match",
            "text": "ht",
            "confidence": 1.0,
            "uuid": "764df367-8d53-4a11-81a2-31ccfe122a8d",
            "name": "HT",
            "url": "https://haz-map.com/Agents/2168",
            "category": "agents"
          },
          {
            "type": "name_match",
            "text": "2-naphthol",
            "confidence": 1.0,
            "uuid": "152d75dd-ac6f-405f-bd70-2861b7454612",
            "name": "2-Naphthol",
            "url": "https://haz-map.com/Agents/3143",
            "category": "agents"
          },
          {
            "type": "name_match",
            "text": "anisole",
            "confidence": 1.0,
            "uuid": "f122d940-2dba-441c-9dbf-c185355d4cb0",
            "name": "Anisole",
            "url": "https://haz-map.com/Agents/3708",
            "category": "agents"
          }
        ]
      },
      "category": {
        "original_name": "Category",
        "value": "Azo Dyes",
        "links": [],
        "cross_references": []
      },
      "description": {
        "original_name": "Description",
        "value": "Reddish-brown powder; [MSDSonline]",
        "links": [],
        "cross_references": []
      },
      "sourcesuses": {
        "original_name": "Sources/Uses",
        "value": "Used as a dye for plastics and colored smoke; [HSDB]",
        "links": [],
        "cross_references": []
      },
      "comments": {
        "original_name": "Comments",
        "value": "May cause irritation; [MSDSonline]",
        "links": [],
        "cross_references": []
      },
      "biomedical_references": {
        "original_name": "Biomedical References",
        "value": "Search PubMed",
        "links": [
          {
            "text": "Search PubMed",
            "url": "https://www.ncbi.nlm.nih.gov/pubmed?term=Oil+Pink%20AND%20human%5Bmh%5D%20AND%20%28Occupational%20Diseases%20%5Bmh%5D%20OR%20Occupational%20Exposure%20%5Bmh%5D%29%20%20AND%20%28tox%5Bsb%5D%29&cmd=search"
          }
        ],
        "cross_references": []
      }
    },
    "exposure_assessment": {
      "vapor_pressure": {
        "original_name": "Vapor Pressure",
        "value": "6.29E-09 mm Hg",
        "links": [],
        "cross_references": []
      }
    },
    "diseases_processes_and_activities_linked_to_this_agent": {
      "other_information": {
        "original_name": "Other Information",
        "value": "No other related information on this agent was found.",
        "links": [],
        "cross_references": []
      }
    }
  },
  "cross_references": [
    {
      "type": "name_match",
      "text": "ht",
      "confidence": 1.0,
      "uuid": "764df367-8d53-4a11-81a2-31ccfe122a8d",
      "name": "HT",
      "url": "https://haz-map.com/Agents/2168",
      "category": "agents"
    },
    {
      "type": "name_match",
      "text": "2-naphthol",
      "confidence": 1.0,
      "uuid": "152d75dd-ac6f-405f-bd70-2861b7454612",
      "name": "2-Naphthol",
      "url": "https://haz-map.com/Agents/3143",
      "category": "agents"
    },
    {
      "type": "name_match",
      "text": "anisole",
      "confidence": 1.0,
      "uuid": "f122d940-2dba-441c-9dbf-c185355d4cb0",
      "name": "Anisole",
      "url": "https://haz-map.com/Agents/3708",
      "category": "agents"
    },
    {
      "type": "name_match",
      "text": "oil pink",
      "confidence": 1.0,
      "uuid": "9f01470b-b6dd-41d3-b1a0-1735a2894ad7",
      "name": "Oil Pink",
      "url": "https://haz-map.com/Agents/6450",
      "category": "agents"
    }
  ],
  "all_links": [
    {
      "text": "Search PubMed",
      "url": "https://www.ncbi.nlm.nih.gov/pubmed?term=Oil+Pink%20AND%20human%5Bmh%5D%20AND%20%28Occupational%20Diseases%20%5Bmh%5D%20OR%20Occupational%20Exposure%20%5Bmh%5D%29%20%20AND%20%28tox%5Bsb%5D%29&cmd=search"
    }
  ]
}