{
  "metadata": {
    "scraped_from": "https://haz-map.com/Agents/2767",
    "entity_name": "1,2-Epoxy-3-methoxypropane",
    "category": "agents",
    "uuid": "9f68b87e-4966-4151-8ff3-4cae3fedbc8a",
    "scraped_at": "2025-07-23T19:18:39.579204"
  },
  "parsed_at": "2025-07-24T01:01:09.714312",
  "title": "1,2-Epoxy-3-methoxypropane",
  "sections": {
    "general": {
      "agent_name": {
        "original_name": "Agent Name",
        "value": "1,2-Epoxy-3-methoxypropane",
        "links": [],
        "cross_references": [
          {
            "type": "name_match",
            "text": "propane",
            "confidence": 1.0,
            "uuid": "563a611b-46ea-4bdc-b77b-17d8f7646283",
            "name": "Propane",
            "url": "https://haz-map.com/Agents/607",
            "category": "agents"
          },
          {
            "type": "name_match",
            "text": "1,2-epoxy-3-methoxypropane",
            "confidence": 1.0,
            "uuid": "9f68b87e-4966-4151-8ff3-4cae3fedbc8a",
            "name": "1,2-Epoxy-3-methoxypropane",
            "url": "https://haz-map.com/Agents/2767",
            "category": "agents"
          }
        ]
      },
      "cas_number": {
        "original_name": "CAS Number",
        "value": "930-37-0",
        "links": [],
        "cross_references": []
      },
      "formula": {
        "original_name": "Formula",
        "value": "C4-H8-O2",
        "links": [],
        "cross_references": []
      },
      "major_category": {
        "original_name": "Major Category",
        "value": "Plastics & Rubber",
        "links": [],
        "cross_references": []
      },
      "synonyms": {
        "original_name": "Synonyms",
        "value": "Denacol EX-131; (Methoxymethyl)oxirane; 2,3-Epoxypropyl-methyl ether; 3-Methoxy-1,2-epoxypropane; 3-Methoxypropylene oxide; Glycidol methyl ether; Glycidyl methyl ether; Methyl glycidyl ether; Methylglycidyl ether; Oxirane, (methoxymethyl)-; Propane, 1,2-epoxy-3-methoxy-; [ChemIDplus] UN1992",
        "links": [],
        "cross_references": [
          {
            "type": "name_match",
            "text": "propylene oxide",
            "confidence": 1.0,
            "uuid": "ba4ef42b-914d-42fd-b05e-f2b28e97be37",
            "name": "Propylene oxide",
            "url": "https://haz-map.com/Agents/423",
            "category": "agents"
          },
          {
            "type": "name_match",
            "text": "ethyl ether",
            "confidence": 1.0,
            "uuid": "c95edddc-9ad3-44f8-bafa-78e0bd19db3a",
            "name": "Ethyl ether",
            "url": "https://haz-map.com/Agents/455",
            "category": "agents"
          },
          {
            "type": "name_match",
            "text": "glycidol",
            "confidence": 1.0,
            "uuid": "a5e325c3-638e-4045-8d7e-cd79f80efec1",
            "name": "Glycidol",
            "url": "https://haz-map.com/Agents/502",
            "category": "agents"
          },
          {
            "type": "name_match",
            "text": "propane",
            "confidence": 1.0,
            "uuid": "563a611b-46ea-4bdc-b77b-17d8f7646283",
            "name": "Propane",
            "url": "https://haz-map.com/Agents/607",
            "category": "agents"
          },
          {
            "type": "name_match",
            "text": "propylene",
            "confidence": 1.0,
            "uuid": "78ac73a1-0029-4a50-b283-561134c72041",
            "name": "Propylene",
            "url": "https://haz-map.com/Agents/1078",
            "category": "agents"
          },
          {
            "type": "name_match",
            "text": "ethyl glycidyl ether",
            "confidence": 1.0,
            "uuid": "e517c7b4-4c22-4333-a6d9-4d8ed10789ef",
            "name": "Ethyl glycidyl ether",
            "url": "https://haz-map.com/Agents/5233",
            "category": "agents"
          }
        ]
      },
      "category": {
        "original_name": "Category",
        "value": "Glycidyl Ethers",
        "links": [],
        "cross_references": [
          {
            "type": "name_match",
            "text": "glycidyl ethers",
            "confidence": 1.0,
            "uuid": "98e1a57e-699e-42d4-9ba1-63424bb1f3ce",
            "name": "GLYCIDYL ETHERS",
            "url": "https://haz-map.com/Agents/705",
            "category": "agents"
          }
        ]
      },
      "description": {
        "original_name": "Description",
        "value": "Colorless liquid; [CAMEO]",
        "links": [],
        "cross_references": []
      },
      "sourcesuses": {
        "original_name": "Sources/Uses",
        "value": "Used as a research chemical; Not commercially produced in the US; [HSDB]",
        "links": [],
        "cross_references": [
          {
            "type": "name_match",
            "text": "mica",
            "confidence": 1.0,
            "uuid": "433f26f1-c399-4596-b179-ce3843cfd465",
            "name": "Mica",
            "url": "https://haz-map.com/Agents/621",
            "category": "agents"
          }
        ]
      },
      "comments": {
        "original_name": "Comments",
        "value": "A mutagen and primary irritant; Caused lacrimation and somnolence in lethal-dose feeding studies of rats; [RTECS] Emergency treatment: \"irritants\"; [HSDB] An irritant; [MSDSonline]",
        "links": [],
        "cross_references": [
          {
            "type": "name_match",
            "text": "lacrimation",
            "confidence": 1.0,
            "uuid": "392ff8e7-90fa-4d6d-8f67-3e49d053ffac",
            "name": "lacrimation",
            "url": "https://haz-map.com/Findings/199",
            "category": "findings"
          },
          {
            "type": "name_match",
            "text": "irritants",
            "confidence": 1.0,
            "uuid": "9d2b9572-8c3e-48a4-ac68-63d6e2eb6f49",
            "name": "Irritants",
            "url": "https://haz-map.com/Agents/2063",
            "category": "agents"
          }
        ]
      },
      "biomedical_references": {
        "original_name": "Biomedical References",
        "value": "Search PubMed",
        "links": [
          {
            "text": "Search PubMed",
            "url": "https://www.ncbi.nlm.nih.gov/pubmed?term=1%2c2-Epoxy-3-methoxypropane%20AND%20human%5Bmh%5D%20AND%20%28Occupational%20Diseases%20%5Bmh%5D%20OR%20Occupational%20Exposure%20%5Bmh%5D%29%20%20AND%20%28tox%5Bsb%5D%29&cmd=search"
          }
        ],
        "cross_references": []
      }
    },
    "exposure_assessment": {
      "explanatory_notes": {
        "original_name": "Explanatory Notes",
        "value": "Flash point < 21 deg C; [CAMEO] The Guide in the Emergency Response Guidebook is for \"Flammable liquid, toxic, n.o.s.\"",
        "links": [],
        "cross_references": [
          {
            "type": "name_match",
            "text": "ash",
            "confidence": 1.0,
            "uuid": "68b360f1-5ad0-4337-bea0-d7adca2961b5",
            "name": "Ash",
            "url": "https://haz-map.com/Agents/965",
            "category": "agents"
          }
        ]
      }
    },
    "diseases_processes_and_activities_linked_to_this_agent": {
      "other_information": {
        "original_name": "Other Information",
        "value": "No other related information on this agent was found.",
        "links": [],
        "cross_references": []
      }
    }
  },
  "cross_references": [
    {
      "type": "name_match",
      "text": "lacrimation",
      "confidence": 1.0,
      "uuid": "392ff8e7-90fa-4d6d-8f67-3e49d053ffac",
      "name": "lacrimation",
      "url": "https://haz-map.com/Findings/199",
      "category": "findings"
    },
    {
      "type": "name_match",
      "text": "propylene oxide",
      "confidence": 1.0,
      "uuid": "ba4ef42b-914d-42fd-b05e-f2b28e97be37",
      "name": "Propylene oxide",
      "url": "https://haz-map.com/Agents/423",
      "category": "agents"
    },
    {
      "type": "name_match",
      "text": "ethyl ether",
      "confidence": 1.0,
      "uuid": "c95edddc-9ad3-44f8-bafa-78e0bd19db3a",
      "name": "Ethyl ether",
      "url": "https://haz-map.com/Agents/455",
      "category": "agents"
    },
    {
      "type": "name_match",
      "text": "glycidol",
      "confidence": 1.0,
      "uuid": "a5e325c3-638e-4045-8d7e-cd79f80efec1",
      "name": "Glycidol",
      "url": "https://haz-map.com/Agents/502",
      "category": "agents"
    },
    {
      "type": "name_match",
      "text": "propane",
      "confidence": 1.0,
      "uuid": "563a611b-46ea-4bdc-b77b-17d8f7646283",
      "name": "Propane",
      "url": "https://haz-map.com/Agents/607",
      "category": "agents"
    },
    {
      "type": "name_match",
      "text": "mica",
      "confidence": 1.0,
      "uuid": "433f26f1-c399-4596-b179-ce3843cfd465",
      "name": "Mica",
      "url": "https://haz-map.com/Agents/621",
      "category": "agents"
    },
    {
      "type": "name_match",
      "text": "glycidyl ethers",
      "confidence": 1.0,
      "uuid": "98e1a57e-699e-42d4-9ba1-63424bb1f3ce",
      "name": "GLYCIDYL ETHERS",
      "url": "https://haz-map.com/Agents/705",
      "category": "agents"
    },
    {
      "type": "name_match",
      "text": "ash",
      "confidence": 1.0,
      "uuid": "68b360f1-5ad0-4337-bea0-d7adca2961b5",
      "name": "Ash",
      "url": "https://haz-map.com/Agents/965",
      "category": "agents"
    },
    {
      "type": "name_match",
      "text": "propylene",
      "confidence": 1.0,
      "uuid": "78ac73a1-0029-4a50-b283-561134c72041",
      "name": "Propylene",
      "url": "https://haz-map.com/Agents/1078",
      "category": "agents"
    },
    {
      "type": "name_match",
      "text": "irritants",
      "confidence": 1.0,
      "uuid": "9d2b9572-8c3e-48a4-ac68-63d6e2eb6f49",
      "name": "Irritants",
      "url": "https://haz-map.com/Agents/2063",
      "category": "agents"
    },
    {
      "type": "name_match",
      "text": "1,2-epoxy-3-methoxypropane",
      "confidence": 1.0,
      "uuid": "9f68b87e-4966-4151-8ff3-4cae3fedbc8a",
      "name": "1,2-Epoxy-3-methoxypropane",
      "url": "https://haz-map.com/Agents/2767",
      "category": "agents"
    },
    {
      "type": "name_match",
      "text": "ethyl glycidyl ether",
      "confidence": 1.0,
      "uuid": "e517c7b4-4c22-4333-a6d9-4d8ed10789ef",
      "name": "Ethyl glycidyl ether",
      "url": "https://haz-map.com/Agents/5233",
      "category": "agents"
    }
  ],
  "all_links": [
    {
      "text": "Search PubMed",
      "url": "https://www.ncbi.nlm.nih.gov/pubmed?term=1%2c2-Epoxy-3-methoxypropane%20AND%20human%5Bmh%5D%20AND%20%28Occupational%20Diseases%20%5Bmh%5D%20OR%20Occupational%20Exposure%20%5Bmh%5D%29%20%20AND%20%28tox%5Bsb%5D%29&cmd=search"
    }
  ]
}