{
  "metadata": {
    "scraped_from": "https://haz-map.com/Agents/20340",
    "entity_name": "Bis(dimethylamino)dimethylsilane",
    "category": "agents",
    "uuid": "9f884215-260c-4298-8efe-bd28043759c2",
    "scraped_at": "2025-07-23T22:23:26.334145"
  },
  "parsed_at": "2025-07-24T01:16:53.000607",
  "title": "Bis(dimethylamino)dimethylsilane",
  "sections": {
    "general": {
      "agent_name": {
        "original_name": "Agent Name",
        "value": "Bis(dimethylamino)dimethylsilane",
        "links": [],
        "cross_references": [
          {
            "type": "name_match",
            "text": "methylsilane",
            "confidence": 1.0,
            "uuid": "477dc5db-fed0-4dc8-8ece-f7392790a3b0",
            "name": "Methylsilane",
            "url": "https://haz-map.com/Agents/8380",
            "category": "agents"
          },
          {
            "type": "name_match",
            "text": "dimethylsilane",
            "confidence": 1.0,
            "uuid": "74897abd-ecfb-41f7-a881-8b3b57e397cf",
            "name": "Dimethylsilane",
            "url": "https://haz-map.com/Agents/13216",
            "category": "agents"
          },
          {
            "type": "name_match",
            "text": "bis(dimethylamino)dimethylsilane",
            "confidence": 1.0,
            "uuid": "9f884215-260c-4298-8efe-bd28043759c2",
            "name": "Bis(dimethylamino)dimethylsilane",
            "url": "https://haz-map.com/Agents/20340",
            "category": "agents"
          }
        ]
      },
      "cas_number": {
        "original_name": "CAS Number",
        "value": "3768-58-9",
        "links": [],
        "cross_references": []
      },
      "formula": {
        "original_name": "Formula",
        "value": "C6-H18-N2-Si",
        "links": [],
        "cross_references": []
      },
      "major_category": {
        "original_name": "Major Category",
        "value": "Metals",
        "links": [],
        "cross_references": []
      },
      "synonyms": {
        "original_name": "Synonyms",
        "value": "Silanediamine, hexamethyl-; Silanediamine, N,N,N',N',1,1-hexamethyl-; [ChemIDplus] DIMETHYLBIS(DIMETHYLAMINO)SILANE; [Matheson Tri-Gas MSDS] UN2924",
        "links": [],
        "cross_references": []
      },
      "category": {
        "original_name": "Category",
        "value": "Metalloid Compounds (Silicon)",
        "links": [],
        "cross_references": [
          {
            "type": "name_match",
            "text": "silicon",
            "confidence": 1.0,
            "uuid": "443f4405-7a1f-47db-bf43-809557f77483",
            "name": "Silicon",
            "url": "https://haz-map.com/Agents/623",
            "category": "agents"
          }
        ]
      },
      "description": {
        "original_name": "Description",
        "value": "Clear to straw-colored liquid with an acrid amine odor; [Matheson Tri-Gas MSDS]",
        "links": [],
        "cross_references": []
      },
      "sourcesuses": {
        "original_name": "Sources/Uses",
        "value": "Used in electronic film deposition; [Matheson Tri-Gas MSDS]",
        "links": [],
        "cross_references": []
      },
      "comments": {
        "original_name": "Comments",
        "value": "Reacts with water/moisture producing dimethylamine; Causes burns; Inhalation may cause corrosive injuries to upper respiratory tract; [Matheson Tri-Gas MSDS] See \"Bis(dimethylamino)diphenylsilane\" and \"Bis(dimethylamino)methylvinylsilane.\"",
        "links": [],
        "cross_references": [
          {
            "type": "name_match",
            "text": "burn",
            "confidence": 1.0,
            "uuid": "63665de5-6376-4918-8dbf-4c10c4d63837",
            "name": "burn",
            "url": "https://haz-map.com/Findings/204",
            "category": "findings"
          },
          {
            "type": "name_match",
            "text": "methylamine",
            "confidence": 1.0,
            "uuid": "7c3781b5-5294-474a-a015-e59574d00b69",
            "name": "Methylamine",
            "url": "https://haz-map.com/Agents/217",
            "category": "agents"
          },
          {
            "type": "name_match",
            "text": "dimethylamine",
            "confidence": 1.0,
            "uuid": "8b0c8378-7df0-486c-ae0f-b4ea920d8f83",
            "name": "Dimethylamine",
            "url": "https://haz-map.com/Agents/218",
            "category": "agents"
          },
          {
            "type": "name_match",
            "text": "ethylamine",
            "confidence": 1.0,
            "uuid": "41ca4da8-b990-420a-86b2-3d77404fb7f4",
            "name": "Ethylamine",
            "url": "https://haz-map.com/Agents/220",
            "category": "agents"
          },
          {
            "type": "name_match",
            "text": "diphenylsilane",
            "confidence": 1.0,
            "uuid": "23167ed2-ef46-4c1a-adce-94f21c693bf6",
            "name": "Diphenylsilane",
            "url": "https://haz-map.com/Agents/13263",
            "category": "agents"
          },
          {
            "type": "name_match",
            "text": "water",
            "confidence": 1.0,
            "uuid": "6f2a7557-dfd2-49bc-9b4b-a93cd8e225d4",
            "name": "Water",
            "url": "https://haz-map.com/Agents/18668",
            "category": "agents"
          },
          {
            "type": "name_match",
            "text": "bis(dimethylamino)diphenylsilane",
            "confidence": 1.0,
            "uuid": "95ad31b9-b40b-44a0-938e-61f186d07808",
            "name": "Bis(dimethylamino)diphenylsilane",
            "url": "https://haz-map.com/Agents/20341",
            "category": "agents"
          },
          {
            "type": "name_match",
            "text": "bis(dimethylamino)methylvinylsilane",
            "confidence": 1.0,
            "uuid": "42e94149-6b3f-4132-9f1b-c2eb80c886a5",
            "name": "Bis(dimethylamino)methylvinylsilane",
            "url": "https://haz-map.com/Agents/20342",
            "category": "agents"
          }
        ]
      },
      "biomedical_references": {
        "original_name": "Biomedical References",
        "value": "Search PubMed",
        "links": [
          {
            "text": "Search PubMed",
            "url": "https://www.ncbi.nlm.nih.gov/pubmed?term=Bis(dimethylamino)dimethylsilane%20AND%20human%5Bmh%5D%20AND%20%28Occupational%20Diseases%20%5Bmh%5D%20OR%20Occupational%20Exposure%20%5Bmh%5D%29%20%20AND%20%28tox%5Bsb%5D%29&cmd=search"
          }
        ],
        "cross_references": []
      }
    },
    "exposure_assessment": {
      "vapor_pressure": {
        "original_name": "Vapor Pressure",
        "value": "1 mm Hg",
        "links": [],
        "cross_references": []
      },
      "explanatory_notes": {
        "original_name": "Explanatory Notes",
        "value": "The Guide in the Emergency Response Guidebook is for \"Flammable liquid, corrosive, n.o.s.\"",
        "links": [],
        "cross_references": []
      }
    },
    "adverse_effects": {
      "dermatotoxin": {
        "original_name": "Dermatotoxin",
        "value": "Skin burns",
        "links": [],
        "cross_references": [
          {
            "type": "name_match",
            "text": "burn",
            "confidence": 1.0,
            "uuid": "63665de5-6376-4918-8dbf-4c10c4d63837",
            "name": "burn",
            "url": "https://haz-map.com/Findings/204",
            "category": "findings"
          }
        ]
      }
    },
    "diseases_processes_and_activities_linked_to_this_agent": {
      "processes": {
        "original_name": "Processes",
        "value": "Industrial Processes with risk of exposure: Semiconductor Manufacturing",
        "links": [
          {
            "text": "Semiconductor Manufacturing",
            "url": "https://haz-map.com/Processes/97"
          }
        ],
        "cross_references": [
          {
            "type": "url_match",
            "text": "Semiconductor Manufacturing",
            "url": "https://haz-map.com/Processes/97",
            "confidence": 1.0,
            "uuid": "a1adedb7-a724-4539-9aff-c43b42706b89",
            "name": "Semiconductor Manufacturing",
            "category": "processes"
          }
        ]
      }
    }
  },
  "cross_references": [
    {
      "type": "url_match",
      "text": "Semiconductor Manufacturing",
      "url": "https://haz-map.com/Processes/97",
      "confidence": 1.0,
      "uuid": "a1adedb7-a724-4539-9aff-c43b42706b89",
      "name": "Semiconductor Manufacturing",
      "category": "processes"
    },
    {
      "type": "name_match",
      "text": "burn",
      "confidence": 1.0,
      "uuid": "63665de5-6376-4918-8dbf-4c10c4d63837",
      "name": "burn",
      "url": "https://haz-map.com/Findings/204",
      "category": "findings"
    },
    {
      "type": "name_match",
      "text": "methylamine",
      "confidence": 1.0,
      "uuid": "7c3781b5-5294-474a-a015-e59574d00b69",
      "name": "Methylamine",
      "url": "https://haz-map.com/Agents/217",
      "category": "agents"
    },
    {
      "type": "name_match",
      "text": "dimethylamine",
      "confidence": 1.0,
      "uuid": "8b0c8378-7df0-486c-ae0f-b4ea920d8f83",
      "name": "Dimethylamine",
      "url": "https://haz-map.com/Agents/218",
      "category": "agents"
    },
    {
      "type": "name_match",
      "text": "ethylamine",
      "confidence": 1.0,
      "uuid": "41ca4da8-b990-420a-86b2-3d77404fb7f4",
      "name": "Ethylamine",
      "url": "https://haz-map.com/Agents/220",
      "category": "agents"
    },
    {
      "type": "name_match",
      "text": "silicon",
      "confidence": 1.0,
      "uuid": "443f4405-7a1f-47db-bf43-809557f77483",
      "name": "Silicon",
      "url": "https://haz-map.com/Agents/623",
      "category": "agents"
    },
    {
      "type": "name_match",
      "text": "methylsilane",
      "confidence": 1.0,
      "uuid": "477dc5db-fed0-4dc8-8ece-f7392790a3b0",
      "name": "Methylsilane",
      "url": "https://haz-map.com/Agents/8380",
      "category": "agents"
    },
    {
      "type": "name_match",
      "text": "dimethylsilane",
      "confidence": 1.0,
      "uuid": "74897abd-ecfb-41f7-a881-8b3b57e397cf",
      "name": "Dimethylsilane",
      "url": "https://haz-map.com/Agents/13216",
      "category": "agents"
    },
    {
      "type": "name_match",
      "text": "diphenylsilane",
      "confidence": 1.0,
      "uuid": "23167ed2-ef46-4c1a-adce-94f21c693bf6",
      "name": "Diphenylsilane",
      "url": "https://haz-map.com/Agents/13263",
      "category": "agents"
    },
    {
      "type": "name_match",
      "text": "water",
      "confidence": 1.0,
      "uuid": "6f2a7557-dfd2-49bc-9b4b-a93cd8e225d4",
      "name": "Water",
      "url": "https://haz-map.com/Agents/18668",
      "category": "agents"
    },
    {
      "type": "name_match",
      "text": "bis(dimethylamino)dimethylsilane",
      "confidence": 1.0,
      "uuid": "9f884215-260c-4298-8efe-bd28043759c2",
      "name": "Bis(dimethylamino)dimethylsilane",
      "url": "https://haz-map.com/Agents/20340",
      "category": "agents"
    },
    {
      "type": "name_match",
      "text": "bis(dimethylamino)diphenylsilane",
      "confidence": 1.0,
      "uuid": "95ad31b9-b40b-44a0-938e-61f186d07808",
      "name": "Bis(dimethylamino)diphenylsilane",
      "url": "https://haz-map.com/Agents/20341",
      "category": "agents"
    },
    {
      "type": "name_match",
      "text": "bis(dimethylamino)methylvinylsilane",
      "confidence": 1.0,
      "uuid": "42e94149-6b3f-4132-9f1b-c2eb80c886a5",
      "name": "Bis(dimethylamino)methylvinylsilane",
      "url": "https://haz-map.com/Agents/20342",
      "category": "agents"
    }
  ],
  "all_links": [
    {
      "text": "Search PubMed",
      "url": "https://www.ncbi.nlm.nih.gov/pubmed?term=Bis(dimethylamino)dimethylsilane%20AND%20human%5Bmh%5D%20AND%20%28Occupational%20Diseases%20%5Bmh%5D%20OR%20Occupational%20Exposure%20%5Bmh%5D%29%20%20AND%20%28tox%5Bsb%5D%29&cmd=search"
    },
    {
      "text": "Semiconductor Manufacturing",
      "url": "https://haz-map.com/Processes/97"
    }
  ]
}