{
  "metadata": {
    "scraped_from": "https://haz-map.com/Agents/1964",
    "entity_name": "Dimethylglyoxime",
    "category": "agents",
    "uuid": "9fa737ea-4142-4281-a607-4633cf0e31a6",
    "scraped_at": "2025-07-23T19:07:34.620746"
  },
  "parsed_at": "2025-07-24T00:52:27.356403",
  "title": "Dimethylglyoxime",
  "sections": {
    "general": {
      "agent_name": {
        "original_name": "Agent Name",
        "value": "Dimethylglyoxime",
        "links": [],
        "cross_references": [
          {
            "type": "name_match",
            "text": "dimethylglyoxime",
            "confidence": 1.0,
            "uuid": "9fa737ea-4142-4281-a607-4633cf0e31a6",
            "name": "Dimethylglyoxime",
            "url": "https://haz-map.com/Agents/1964",
            "category": "agents"
          }
        ]
      },
      "cas_number": {
        "original_name": "CAS Number",
        "value": "95-45-4",
        "links": [],
        "cross_references": []
      },
      "formula": {
        "original_name": "Formula",
        "value": "C4-H8-N2-O2",
        "links": [],
        "cross_references": []
      },
      "major_category": {
        "original_name": "Major Category",
        "value": "Nitrogen Compounds",
        "links": [],
        "cross_references": [
          {
            "type": "name_match",
            "text": "nitrogen",
            "confidence": 1.0,
            "uuid": "db5e90a9-06d2-45b9-8b81-f345a89b0bc0",
            "name": "Nitrogen",
            "url": "https://haz-map.com/Agents/1072",
            "category": "agents"
          }
        ]
      },
      "synonyms": {
        "original_name": "Synonyms",
        "value": "2,3-Butanedione dioxime; 2,3-Diisonitrosobutane; Biacetyl dioxime; Diacetyldioxime; Dimethylglyoxime; Glyoxime, dimethyl-; [ChemIDplus]",
        "links": [],
        "cross_references": [
          {
            "type": "name_match",
            "text": "diacetyl",
            "confidence": 1.0,
            "uuid": "20088625-7702-4c7d-8a1a-a49f60d24950",
            "name": "Diacetyl",
            "url": "https://haz-map.com/Agents/1853",
            "category": "agents"
          },
          {
            "type": "name_match",
            "text": "dimethylglyoxime",
            "confidence": 1.0,
            "uuid": "9fa737ea-4142-4281-a607-4633cf0e31a6",
            "name": "Dimethylglyoxime",
            "url": "https://haz-map.com/Agents/1964",
            "category": "agents"
          }
        ]
      },
      "category": {
        "original_name": "Category",
        "value": "Oximes",
        "links": [],
        "cross_references": []
      },
      "description": {
        "original_name": "Description",
        "value": "Crystals soluble in ethanol and slightly soluble in water; [Sax] White powder; [MSDSonline]",
        "links": [],
        "cross_references": [
          {
            "type": "name_match",
            "text": "ht",
            "confidence": 1.0,
            "uuid": "764df367-8d53-4a11-81a2-31ccfe122a8d",
            "name": "HT",
            "url": "https://haz-map.com/Agents/2168",
            "category": "agents"
          },
          {
            "type": "name_match",
            "text": "water",
            "confidence": 1.0,
            "uuid": "6f2a7557-dfd2-49bc-9b4b-a93cd8e225d4",
            "name": "Water",
            "url": "https://haz-map.com/Agents/18668",
            "category": "agents"
          }
        ]
      },
      "sourcesuses": {
        "original_name": "Sources/Uses",
        "value": "\"Metal indicators are organic compounds that form specifically colored metal ion complexes in aqueous media. These dye reactions can be employed for detection of the equivalence point in volumetry (complexometry), as well as for concentration determinations in colorimetry or photometry.\" Dimethylglyoxime is used for the photometric determination of Co, Fe, Ni, and Pd. [Ullmann]",
        "links": [],
        "cross_references": [
          {
            "type": "name_match",
            "text": "dimethylglyoxime",
            "confidence": 1.0,
            "uuid": "9fa737ea-4142-4281-a607-4633cf0e31a6",
            "name": "Dimethylglyoxime",
            "url": "https://haz-map.com/Agents/1964",
            "category": "agents"
          },
          {
            "type": "fuzzy_match",
            "text": "organic compounds",
            "matched_name": "Tin, organic compounds",
            "confidence": 0.8196969696969697,
            "uuid": "e027d413-8869-4308-9eb2-27d768b011ea",
            "category": "agents",
            "url": "https://haz-map.com/Agents/656"
          }
        ]
      },
      "comments": {
        "original_name": "Comments",
        "value": "A skin and eye irritant; Skin sensitization not reported; [MSDSonline]",
        "links": [],
        "cross_references": []
      },
      "biomedical_references": {
        "original_name": "Biomedical References",
        "value": "Search PubMed",
        "links": [
          {
            "text": "Search PubMed",
            "url": "https://www.ncbi.nlm.nih.gov/pubmed?term=Dimethylglyoxime%20AND%20human%5Bmh%5D%20AND%20%28Occupational%20Diseases%20%5Bmh%5D%20OR%20Occupational%20Exposure%20%5Bmh%5D%29%20%20AND%20%28tox%5Bsb%5D%29&cmd=search"
          }
        ],
        "cross_references": []
      }
    },
    "exposure_assessment": {
      "vapor_pressure": {
        "original_name": "Vapor Pressure",
        "value": "0.00069 mm Hg",
        "links": [],
        "cross_references": []
      }
    },
    "diseases_processes_and_activities_linked_to_this_agent": {
      "other_information": {
        "original_name": "Other Information",
        "value": "No other related information on this agent was found.",
        "links": [],
        "cross_references": []
      }
    }
  },
  "cross_references": [
    {
      "type": "name_match",
      "text": "nitrogen",
      "confidence": 1.0,
      "uuid": "db5e90a9-06d2-45b9-8b81-f345a89b0bc0",
      "name": "Nitrogen",
      "url": "https://haz-map.com/Agents/1072",
      "category": "agents"
    },
    {
      "type": "name_match",
      "text": "diacetyl",
      "confidence": 1.0,
      "uuid": "20088625-7702-4c7d-8a1a-a49f60d24950",
      "name": "Diacetyl",
      "url": "https://haz-map.com/Agents/1853",
      "category": "agents"
    },
    {
      "type": "name_match",
      "text": "dimethylglyoxime",
      "confidence": 1.0,
      "uuid": "9fa737ea-4142-4281-a607-4633cf0e31a6",
      "name": "Dimethylglyoxime",
      "url": "https://haz-map.com/Agents/1964",
      "category": "agents"
    },
    {
      "type": "name_match",
      "text": "ht",
      "confidence": 1.0,
      "uuid": "764df367-8d53-4a11-81a2-31ccfe122a8d",
      "name": "HT",
      "url": "https://haz-map.com/Agents/2168",
      "category": "agents"
    },
    {
      "type": "name_match",
      "text": "water",
      "confidence": 1.0,
      "uuid": "6f2a7557-dfd2-49bc-9b4b-a93cd8e225d4",
      "name": "Water",
      "url": "https://haz-map.com/Agents/18668",
      "category": "agents"
    },
    {
      "type": "fuzzy_match",
      "text": "organic compounds",
      "matched_name": "Tin, organic compounds",
      "confidence": 0.8196969696969697,
      "uuid": "e027d413-8869-4308-9eb2-27d768b011ea",
      "category": "agents",
      "url": "https://haz-map.com/Agents/656"
    }
  ],
  "all_links": [
    {
      "text": "Search PubMed",
      "url": "https://www.ncbi.nlm.nih.gov/pubmed?term=Dimethylglyoxime%20AND%20human%5Bmh%5D%20AND%20%28Occupational%20Diseases%20%5Bmh%5D%20OR%20Occupational%20Exposure%20%5Bmh%5D%29%20%20AND%20%28tox%5Bsb%5D%29&cmd=search"
    }
  ]
}