{
  "metadata": {
    "scraped_from": "https://haz-map.com/Agents/19653",
    "entity_name": "2-Methylbenzimidazole",
    "category": "agents",
    "uuid": "a00d2eef-eeef-453f-bd44-5d83f53e704d",
    "scraped_at": "2025-07-23T22:10:19.450148"
  },
  "parsed_at": "2025-07-24T01:18:45.429344",
  "title": "2-Methylbenzimidazole",
  "sections": {
    "general": {
      "agent_name": {
        "original_name": "Agent Name",
        "value": "2-Methylbenzimidazole",
        "links": [],
        "cross_references": [
          {
            "type": "name_match",
            "text": "benzimidazole",
            "confidence": 1.0,
            "uuid": "c4af891e-415a-4fdf-bd5d-ad91665b9cca",
            "name": "Benzimidazole",
            "url": "https://haz-map.com/Agents/3848",
            "category": "agents"
          },
          {
            "type": "name_match",
            "text": "imidazole",
            "confidence": 1.0,
            "uuid": "c328c03e-2b26-487b-8c01-799a91dd318e",
            "name": "Imidazole",
            "url": "https://haz-map.com/Agents/18775",
            "category": "agents"
          },
          {
            "type": "name_match",
            "text": "2-methylbenzimidazole",
            "confidence": 1.0,
            "uuid": "a00d2eef-eeef-453f-bd44-5d83f53e704d",
            "name": "2-Methylbenzimidazole",
            "url": "https://haz-map.com/Agents/19653",
            "category": "agents"
          }
        ]
      },
      "cas_number": {
        "original_name": "CAS Number",
        "value": "615-15-6",
        "links": [],
        "cross_references": []
      },
      "formula": {
        "original_name": "Formula",
        "value": "C8-H8-N2",
        "links": [],
        "cross_references": []
      },
      "major_category": {
        "original_name": "Major Category",
        "value": "Nitrogen Compounds",
        "links": [],
        "cross_references": [
          {
            "type": "name_match",
            "text": "nitrogen",
            "confidence": 1.0,
            "uuid": "db5e90a9-06d2-45b9-8b81-f345a89b0bc0",
            "name": "Nitrogen",
            "url": "https://haz-map.com/Agents/1072",
            "category": "agents"
          }
        ]
      },
      "synonyms": {
        "original_name": "Synonyms",
        "value": "Acetamidine, N-N'-o-phenylene-; 1H-Benzimidazole, 2-methyl-; Benzimidazole, 2-methyl-; [ChemIDplus]",
        "links": [],
        "cross_references": [
          {
            "type": "name_match",
            "text": "benzimidazole",
            "confidence": 1.0,
            "uuid": "c4af891e-415a-4fdf-bd5d-ad91665b9cca",
            "name": "Benzimidazole",
            "url": "https://haz-map.com/Agents/3848",
            "category": "agents"
          },
          {
            "type": "name_match",
            "text": "imidazole",
            "confidence": 1.0,
            "uuid": "c328c03e-2b26-487b-8c01-799a91dd318e",
            "name": "Imidazole",
            "url": "https://haz-map.com/Agents/18775",
            "category": "agents"
          }
        ]
      },
      "category": {
        "original_name": "Category",
        "value": "Imidazoles",
        "links": [],
        "cross_references": [
          {
            "type": "name_match",
            "text": "imidazole",
            "confidence": 1.0,
            "uuid": "c328c03e-2b26-487b-8c01-799a91dd318e",
            "name": "Imidazole",
            "url": "https://haz-map.com/Agents/18775",
            "category": "agents"
          }
        ]
      },
      "description": {
        "original_name": "Description",
        "value": "Beige crystalline solid; [Sigma-Aldrich MSDS]",
        "links": [],
        "cross_references": [
          {
            "type": "fuzzy_match",
            "text": "crystalline",
            "matched_name": "Silica, crystalline",
            "confidence": 0.7061403508771931,
            "uuid": "f920e8a2-46df-41b7-af8d-0368a777251e",
            "category": "agents",
            "url": "https://haz-map.com/Agents/427"
          }
        ]
      },
      "comments": {
        "original_name": "Comments",
        "value": "An irritant that may cause serious eye injury; Harmful by ingestion; [Sigma-Aldrich MSDS] See \"Benzimidazole.\"",
        "links": [],
        "cross_references": [
          {
            "type": "name_match",
            "text": "benzimidazole",
            "confidence": 1.0,
            "uuid": "c4af891e-415a-4fdf-bd5d-ad91665b9cca",
            "name": "Benzimidazole",
            "url": "https://haz-map.com/Agents/3848",
            "category": "agents"
          },
          {
            "type": "name_match",
            "text": "imidazole",
            "confidence": 1.0,
            "uuid": "c328c03e-2b26-487b-8c01-799a91dd318e",
            "name": "Imidazole",
            "url": "https://haz-map.com/Agents/18775",
            "category": "agents"
          }
        ]
      },
      "biomedical_references": {
        "original_name": "Biomedical References",
        "value": "Search PubMed",
        "links": [
          {
            "text": "Search PubMed",
            "url": "https://www.ncbi.nlm.nih.gov/pubmed?term=2-Methylbenzimidazole%20AND%20human%5Bmh%5D%20AND%20%28Occupational%20Diseases%20%5Bmh%5D%20OR%20Occupational%20Exposure%20%5Bmh%5D%29%20%20AND%20%28tox%5Bsb%5D%29&cmd=search"
          }
        ],
        "cross_references": []
      }
    },
    "exposure_assessment": {
      "vapor_pressure": {
        "original_name": "Vapor Pressure",
        "value": "2.74E-05 mm Hg",
        "links": [],
        "cross_references": []
      }
    },
    "diseases_processes_and_activities_linked_to_this_agent": {
      "other_information": {
        "original_name": "Other Information",
        "value": "No other related information on this agent was found.",
        "links": [],
        "cross_references": []
      }
    }
  },
  "cross_references": [
    {
      "type": "name_match",
      "text": "nitrogen",
      "confidence": 1.0,
      "uuid": "db5e90a9-06d2-45b9-8b81-f345a89b0bc0",
      "name": "Nitrogen",
      "url": "https://haz-map.com/Agents/1072",
      "category": "agents"
    },
    {
      "type": "name_match",
      "text": "benzimidazole",
      "confidence": 1.0,
      "uuid": "c4af891e-415a-4fdf-bd5d-ad91665b9cca",
      "name": "Benzimidazole",
      "url": "https://haz-map.com/Agents/3848",
      "category": "agents"
    },
    {
      "type": "name_match",
      "text": "imidazole",
      "confidence": 1.0,
      "uuid": "c328c03e-2b26-487b-8c01-799a91dd318e",
      "name": "Imidazole",
      "url": "https://haz-map.com/Agents/18775",
      "category": "agents"
    },
    {
      "type": "name_match",
      "text": "2-methylbenzimidazole",
      "confidence": 1.0,
      "uuid": "a00d2eef-eeef-453f-bd44-5d83f53e704d",
      "name": "2-Methylbenzimidazole",
      "url": "https://haz-map.com/Agents/19653",
      "category": "agents"
    },
    {
      "type": "fuzzy_match",
      "text": "crystalline",
      "matched_name": "Silica, crystalline",
      "confidence": 0.7061403508771931,
      "uuid": "f920e8a2-46df-41b7-af8d-0368a777251e",
      "category": "agents",
      "url": "https://haz-map.com/Agents/427"
    }
  ],
  "all_links": [
    {
      "text": "Search PubMed",
      "url": "https://www.ncbi.nlm.nih.gov/pubmed?term=2-Methylbenzimidazole%20AND%20human%5Bmh%5D%20AND%20%28Occupational%20Diseases%20%5Bmh%5D%20OR%20Occupational%20Exposure%20%5Bmh%5D%29%20%20AND%20%28tox%5Bsb%5D%29&cmd=search"
    }
  ]
}