{
  "metadata": {
    "scraped_from": "https://haz-map.com/Agents/5727",
    "entity_name": "Isopropyl myristate",
    "category": "agents",
    "uuid": "a01e2379-1d91-4513-a307-0d69a35d1bde",
    "scraped_at": "2025-07-23T19:55:33.662344"
  },
  "parsed_at": "2025-07-24T01:17:15.241443",
  "title": "Isopropyl myristate",
  "sections": {
    "general": {
      "agent_name": {
        "original_name": "Agent Name",
        "value": "Isopropyl myristate",
        "links": [],
        "cross_references": [
          {
            "type": "name_match",
            "text": "isopropyl myristate",
            "confidence": 1.0,
            "uuid": "a01e2379-1d91-4513-a307-0d69a35d1bde",
            "name": "Isopropyl myristate",
            "url": "https://haz-map.com/Agents/5727",
            "category": "agents"
          }
        ]
      },
      "cas_number": {
        "original_name": "CAS Number",
        "value": "110-27-0",
        "links": [],
        "cross_references": []
      },
      "formula": {
        "original_name": "Formula",
        "value": "C17-H34-O2",
        "links": [],
        "cross_references": []
      },
      "major_category": {
        "original_name": "Major Category",
        "value": "Other Uses",
        "links": [],
        "cross_references": []
      },
      "synonyms": {
        "original_name": "Synonyms",
        "value": "1-Methylethyl tetradecanoate; 1-Tridecanecarboxylic acid, isopropyl ester; Bisomel; Crodamol I.P.M.; Crodamol IPM; Deltyl Extra; Deltylextra; Emcol-IM; Emerest 2314; Estergel; IPM; Isomyst; Isopropyl tetradecanoate; JA-FA IPM; Kessco IPM; Kessco isopropyl myristate; Kesscomir; Myristic acid, isopropyl ester; Plymoutm IPM; Promyr; Sinnoester MIP; Starfol IPM; Stepan D-50; Tegester; Tetradecanoic acid, 1-methylethyl ester; Tetradecanoic acid, isopropyl; Tetradecanoic acid, isopropyl ester; Unimate IPM; Wickenol 101; [ChemIDplus]",
        "links": [],
        "cross_references": [
          {
            "type": "name_match",
            "text": "tridecane",
            "confidence": 1.0,
            "uuid": "e4ddfb3e-3599-4be4-af97-673f13655f25",
            "name": "Tridecane",
            "url": "https://haz-map.com/Agents/1788",
            "category": "agents"
          },
          {
            "type": "name_match",
            "text": "isopropyl myristate",
            "confidence": 1.0,
            "uuid": "a01e2379-1d91-4513-a307-0d69a35d1bde",
            "name": "Isopropyl myristate",
            "url": "https://haz-map.com/Agents/5727",
            "category": "agents"
          },
          {
            "type": "name_match",
            "text": "myristic acid",
            "confidence": 1.0,
            "uuid": "c9b816de-5aed-4ad4-94a7-749de582cdc8",
            "name": "Myristic acid",
            "url": "https://haz-map.com/Agents/6218",
            "category": "agents"
          }
        ]
      },
      "category": {
        "original_name": "Category",
        "value": "Emulsifiers/Surfactants",
        "links": [],
        "cross_references": []
      },
      "description": {
        "original_name": "Description",
        "value": "Colorless liquid; [Hawley]",
        "links": [],
        "cross_references": []
      },
      "sourcesuses": {
        "original_name": "Sources/Uses",
        "value": "Used as emollient and emulsifier in cosmetics and topical medicines, parenteral solvent (intravenous solutions), and reagent in tests for sterility; [HSDB]",
        "links": [],
        "cross_references": []
      },
      "comments": {
        "original_name": "Comments",
        "value": "A skin irritant; [SAX] An irritant; [MSDSonline]",
        "links": [],
        "cross_references": []
      },
      "biomedical_references": {
        "original_name": "Biomedical References",
        "value": "Search PubMed",
        "links": [
          {
            "text": "Search PubMed",
            "url": "https://www.ncbi.nlm.nih.gov/pubmed?term=Isopropyl+myristate%20AND%20human%5Bmh%5D%20AND%20%28Occupational%20Diseases%20%5Bmh%5D%20OR%20Occupational%20Exposure%20%5Bmh%5D%29%20%20AND%20%28tox%5Bsb%5D%29&cmd=search"
          }
        ],
        "cross_references": []
      }
    },
    "exposure_assessment": {
      "vapor_pressure": {
        "original_name": "Vapor Pressure",
        "value": "9.35E-05 mm Hg",
        "links": [],
        "cross_references": []
      },
      "lethal_concentration": {
        "original_name": "Lethal Concentration",
        "value": "LC (rat) > 41,000 mg/m3/1h",
        "links": [],
        "cross_references": []
      }
    },
    "diseases_processes_and_activities_linked_to_this_agent": {
      "other_information": {
        "original_name": "Other Information",
        "value": "No other related information on this agent was found.",
        "links": [],
        "cross_references": []
      }
    }
  },
  "cross_references": [
    {
      "type": "name_match",
      "text": "tridecane",
      "confidence": 1.0,
      "uuid": "e4ddfb3e-3599-4be4-af97-673f13655f25",
      "name": "Tridecane",
      "url": "https://haz-map.com/Agents/1788",
      "category": "agents"
    },
    {
      "type": "name_match",
      "text": "isopropyl myristate",
      "confidence": 1.0,
      "uuid": "a01e2379-1d91-4513-a307-0d69a35d1bde",
      "name": "Isopropyl myristate",
      "url": "https://haz-map.com/Agents/5727",
      "category": "agents"
    },
    {
      "type": "name_match",
      "text": "myristic acid",
      "confidence": 1.0,
      "uuid": "c9b816de-5aed-4ad4-94a7-749de582cdc8",
      "name": "Myristic acid",
      "url": "https://haz-map.com/Agents/6218",
      "category": "agents"
    }
  ],
  "all_links": [
    {
      "text": "Search PubMed",
      "url": "https://www.ncbi.nlm.nih.gov/pubmed?term=Isopropyl+myristate%20AND%20human%5Bmh%5D%20AND%20%28Occupational%20Diseases%20%5Bmh%5D%20OR%20Occupational%20Exposure%20%5Bmh%5D%29%20%20AND%20%28tox%5Bsb%5D%29&cmd=search"
    }
  ]
}