{
  "metadata": {
    "scraped_from": "https://haz-map.com/Agents/10822",
    "entity_name": "3-Penten-2-ol",
    "category": "agents",
    "uuid": "a0729ad5-fde0-46f1-995f-4e0a21d2aefe",
    "scraped_at": "2025-07-23T20:53:16.200584"
  },
  "parsed_at": "2025-07-24T00:52:13.437798",
  "title": "3-Penten-2-ol",
  "sections": {
    "general": {
      "agent_name": {
        "original_name": "Agent Name",
        "value": "3-Penten-2-ol",
        "links": [],
        "cross_references": [
          {
            "type": "name_match",
            "text": "3-penten-2-ol",
            "confidence": 1.0,
            "uuid": "a0729ad5-fde0-46f1-995f-4e0a21d2aefe",
            "name": "3-Penten-2-ol",
            "url": "https://haz-map.com/Agents/10822",
            "category": "agents"
          }
        ]
      },
      "cas_number": {
        "original_name": "CAS Number",
        "value": "1569-50-2",
        "links": [],
        "cross_references": []
      },
      "formula": {
        "original_name": "Formula",
        "value": "C5-H10-O",
        "links": [],
        "cross_references": []
      },
      "major_category": {
        "original_name": "Major Category",
        "value": "Other Classes",
        "links": [],
        "cross_references": []
      },
      "synonyms": {
        "original_name": "Synonyms",
        "value": "Methyl propenyl carbinol; Pent-3-en-2-ol; [Sigma-Aldrich MSDS] UN1987",
        "links": [],
        "cross_references": []
      },
      "category": {
        "original_name": "Category",
        "value": "Alcohols and Polyols, Other",
        "links": [],
        "cross_references": []
      },
      "description": {
        "original_name": "Description",
        "value": "Clear colorless liquid; [Sigma-Aldrich MSDS]",
        "links": [],
        "cross_references": []
      },
      "comments": {
        "original_name": "Comments",
        "value": "May cause irritation; [Sigma-Aldrich MSDS] See \"3-Buten-2-ol.\"",
        "links": [],
        "cross_references": [
          {
            "type": "name_match",
            "text": "3-buten-2-ol",
            "confidence": 1.0,
            "uuid": "c0aec5b8-3311-42c8-9269-987f35558ddd",
            "name": "3-Buten-2-ol",
            "url": "https://haz-map.com/Agents/11025",
            "category": "agents"
          }
        ]
      },
      "biomedical_references": {
        "original_name": "Biomedical References",
        "value": "Search PubMed",
        "links": [
          {
            "text": "Search PubMed",
            "url": "https://www.ncbi.nlm.nih.gov/pubmed?term=3-Penten-2-ol%20AND%20human%5Bmh%5D%20AND%20%28Occupational%20Diseases%20%5Bmh%5D%20OR%20Occupational%20Exposure%20%5Bmh%5D%29%20%20AND%20%28tox%5Bsb%5D%29&cmd=search"
          }
        ],
        "cross_references": []
      }
    },
    "exposure_assessment": {
      "vapor_pressure": {
        "original_name": "Vapor Pressure",
        "value": "6.01 mm Hg",
        "links": [],
        "cross_references": []
      },
      "explanatory_notes": {
        "original_name": "Explanatory Notes",
        "value": "The Guide in the Emergency Response Guidebook is for \"Alcohols, n.o.s.\" VP from ChemIDplus;",
        "links": [],
        "cross_references": []
      }
    },
    "diseases_processes_and_activities_linked_to_this_agent": {
      "other_information": {
        "original_name": "Other Information",
        "value": "No other related information on this agent was found.",
        "links": [],
        "cross_references": []
      }
    }
  },
  "cross_references": [
    {
      "type": "name_match",
      "text": "3-penten-2-ol",
      "confidence": 1.0,
      "uuid": "a0729ad5-fde0-46f1-995f-4e0a21d2aefe",
      "name": "3-Penten-2-ol",
      "url": "https://haz-map.com/Agents/10822",
      "category": "agents"
    },
    {
      "type": "name_match",
      "text": "3-buten-2-ol",
      "confidence": 1.0,
      "uuid": "c0aec5b8-3311-42c8-9269-987f35558ddd",
      "name": "3-Buten-2-ol",
      "url": "https://haz-map.com/Agents/11025",
      "category": "agents"
    }
  ],
  "all_links": [
    {
      "text": "Search PubMed",
      "url": "https://www.ncbi.nlm.nih.gov/pubmed?term=3-Penten-2-ol%20AND%20human%5Bmh%5D%20AND%20%28Occupational%20Diseases%20%5Bmh%5D%20OR%20Occupational%20Exposure%20%5Bmh%5D%29%20%20AND%20%28tox%5Bsb%5D%29&cmd=search"
    }
  ]
}