{
  "metadata": {
    "scraped_from": "https://haz-map.com/Agents/486",
    "entity_name": "Ethyl silicate",
    "category": "agents",
    "uuid": "a1443c36-39c2-438b-8c33-b1ada85234cd",
    "scraped_at": "2025-07-23T18:42:49.801596"
  },
  "parsed_at": "2025-07-24T01:18:59.765830",
  "title": "Ethyl silicate",
  "sections": {
    "general": {
      "agent_name": {
        "original_name": "Agent Name",
        "value": "Ethyl silicate",
        "links": [],
        "cross_references": [
          {
            "type": "name_match",
            "text": "ethyl silicate",
            "confidence": 1.0,
            "uuid": "a1443c36-39c2-438b-8c33-b1ada85234cd",
            "name": "Ethyl silicate",
            "url": "https://haz-map.com/Agents/486",
            "category": "agents"
          }
        ]
      },
      "alternative_name": {
        "original_name": "Alternative Name",
        "value": "Tetraethylorthosilicate",
        "links": [],
        "cross_references": []
      },
      "cas_number": {
        "original_name": "CAS Number",
        "value": "78-10-4",
        "links": [],
        "cross_references": []
      },
      "formula": {
        "original_name": "Formula",
        "value": "C8-H20-O4-Si",
        "links": [],
        "cross_references": []
      },
      "major_category": {
        "original_name": "Major Category",
        "value": "Metals",
        "links": [],
        "cross_references": []
      },
      "synonyms": {
        "original_name": "Synonyms",
        "value": "Tetraethylorthosilicate; Dynasil A; ES 100; ES 28; ES 28 (ester); Ethyl orthosilicate; Ethyl silicate, ((EtO)4Si); Etylu krzemian [Polish]; Orthosilicic acid, tetraethyl ester; Silane, tetraethoxy-; Silicate d'ethyle [French]; Silicate tetraethylique [French]; Silicic acid, tetraethyl ester; Silicon ethoxide; Silicon tetraethoxide; Silikan L; TEOS; TEOS (VAN); Tetraethoxysilane; Tetraethoxysilicon; Tetraethyl orthosilicate; Tetraethyl silicate; Tetraethyl-O-silicate; Tetraethylsilikat [Czech]; [ChemIDplus] UN1292",
        "links": [],
        "cross_references": [
          {
            "type": "name_match",
            "text": "ethyl silicate",
            "confidence": 1.0,
            "uuid": "a1443c36-39c2-438b-8c33-b1ada85234cd",
            "name": "Ethyl silicate",
            "url": "https://haz-map.com/Agents/486",
            "category": "agents"
          },
          {
            "type": "name_match",
            "text": "silicon",
            "confidence": 1.0,
            "uuid": "443f4405-7a1f-47db-bf43-809557f77483",
            "name": "Silicon",
            "url": "https://haz-map.com/Agents/623",
            "category": "agents"
          },
          {
            "type": "name_match",
            "text": "silicic acid",
            "confidence": 1.0,
            "uuid": "64450f98-0ad1-4b61-a2e9-a4f67cc329f0",
            "name": "Silicic acid",
            "url": "https://haz-map.com/Agents/17270",
            "category": "agents"
          }
        ]
      },
      "category": {
        "original_name": "Category",
        "value": "Metalloid Compounds (Silicon)",
        "links": [],
        "cross_references": [
          {
            "type": "name_match",
            "text": "silicon",
            "confidence": 1.0,
            "uuid": "443f4405-7a1f-47db-bf43-809557f77483",
            "name": "Silicon",
            "url": "https://haz-map.com/Agents/623",
            "category": "agents"
          }
        ]
      },
      "description": {
        "original_name": "Description",
        "value": "Colorless liquid with a sharp, alcohol-like odor; [NIOSH]",
        "links": [],
        "cross_references": []
      },
      "sourcesuses": {
        "original_name": "Sources/Uses",
        "value": "Used in mortar and surface coatings to improve resistance to weather and chemical corrosion; [ACGIH] Used in the semiconductor/electronics industry; [CSH, p. 402] Used in castings for alloys with high melting points, copper alloys, and dental prosthetic devices; Also used as a source of silicon dioxide by vapor deposition and to produce refractory bricks and heat-resistant paints; [HSDB]",
        "links": [],
        "cross_references": [
          {
            "type": "name_match",
            "text": "copper",
            "confidence": 1.0,
            "uuid": "ec3b6867-24a9-4dd4-bb59-cd8ac790c685",
            "name": "Copper",
            "url": "https://haz-map.com/Agents/374",
            "category": "agents"
          },
          {
            "type": "name_match",
            "text": "mica",
            "confidence": 1.0,
            "uuid": "433f26f1-c399-4596-b179-ce3843cfd465",
            "name": "Mica",
            "url": "https://haz-map.com/Agents/621",
            "category": "agents"
          },
          {
            "type": "name_match",
            "text": "silicon",
            "confidence": 1.0,
            "uuid": "443f4405-7a1f-47db-bf43-809557f77483",
            "name": "Silicon",
            "url": "https://haz-map.com/Agents/623",
            "category": "agents"
          },
          {
            "type": "name_match",
            "text": "alloys",
            "confidence": 1.0,
            "uuid": "9666ccee-2fab-426c-b33d-4f9032422585",
            "name": "ALLOYS",
            "url": "https://haz-map.com/Agents/2201",
            "category": "agents"
          }
        ]
      },
      "comments": {
        "original_name": "Comments",
        "value": "Rats that survived concentrations of 400 ppm for 7 hours/day for 30 days show liver, kidney, and lung damage. [ACGIH] Causes eye irritation at 250 ppm and tearing at 1,200 ppm; [CSH, p. 402] A skin and respiratory tract irritant; Liquid defats the skin and vapor may depress consciousness; [ICSC] In high-dose animal experiments, it acts as a general anesthetic; [ChemIDplus] See \"Methyl silicate.\"",
        "links": [],
        "cross_references": [
          {
            "type": "name_match",
            "text": "ethyl silicate",
            "confidence": 1.0,
            "uuid": "a1443c36-39c2-438b-8c33-b1ada85234cd",
            "name": "Ethyl silicate",
            "url": "https://haz-map.com/Agents/486",
            "category": "agents"
          },
          {
            "type": "name_match",
            "text": "methyl silicate",
            "confidence": 1.0,
            "uuid": "dad1085d-da69-4b5f-a22f-83c07c7fd4b7",
            "name": "Methyl silicate",
            "url": "https://haz-map.com/Agents/553",
            "category": "agents"
          },
          {
            "type": "name_match",
            "text": "tea",
            "confidence": 1.0,
            "uuid": "773409e5-ac1a-4c9e-9470-9667ca82091c",
            "name": "Tea",
            "url": "https://haz-map.com/Agents/878",
            "category": "agents"
          }
        ]
      },
      "biomedical_references": {
        "original_name": "Biomedical References",
        "value": "Search PubMed",
        "links": [
          {
            "text": "Search PubMed",
            "url": "https://www.ncbi.nlm.nih.gov/pubmed?term=Ethyl+silicate%20AND%20human%5Bmh%5D%20AND%20%28Occupational%20Diseases%20%5Bmh%5D%20OR%20Occupational%20Exposure%20%5Bmh%5D%29%20%20AND%20%28tox%5Bsb%5D%29&cmd=search"
          }
        ],
        "cross_references": []
      }
    },
    "exposure_assessment": {
      "skin_designation_acgih": {
        "original_name": "Skin Designation (ACGIH)",
        "value": "Insufficient data",
        "links": [],
        "cross_references": []
      },
      "tlv_acgih": {
        "original_name": "TLV (ACGIH)",
        "value": "10 ppm",
        "links": [],
        "cross_references": []
      },
      "pel_osha": {
        "original_name": "PEL (OSHA)",
        "value": "100 ppm",
        "links": [],
        "cross_references": []
      },
      "mak": {
        "original_name": "MAK",
        "value": "10 ppm",
        "links": [],
        "cross_references": []
      },
      "idlh_niosh": {
        "original_name": "IDLH (NIOSH)",
        "value": "700 ppm",
        "links": [],
        "cross_references": []
      },
      "excerpts_from_documentation_for_idlhs": {
        "original_name": "Excerpts from Documentation for IDLHs",
        "value": "Human data: Exposure to a concentration of 1,200 ppm caused lacrimation and 250 ppm caused irritation of the eyes and nose [Smyth and Seaton 1940]. It has been stated that 700 ppm is probably intolerable for more than 30 minutes [Smyth and Seaton 1940].",
        "links": [],
        "cross_references": [
          {
            "type": "name_match",
            "text": "lacrimation",
            "confidence": 1.0,
            "uuid": "392ff8e7-90fa-4d6d-8f67-3e49d053ffac",
            "name": "lacrimation",
            "url": "https://haz-map.com/Findings/199",
            "category": "findings"
          }
        ]
      },
      "vapor_pressure": {
        "original_name": "Vapor Pressure",
        "value": "1.88 mm Hg",
        "links": [],
        "cross_references": []
      },
      "odor_threshold_low": {
        "original_name": "Odor Threshold Low",
        "value": "3.6 ppm",
        "links": [],
        "cross_references": []
      },
      "lethal_concentration": {
        "original_name": "Lethal Concentration",
        "value": "LCLo (rat) = 1,000 ppm/4H",
        "links": [],
        "cross_references": []
      },
      "explanatory_notes": {
        "original_name": "Explanatory Notes",
        "value": "Detection odor threshold from AIHA (mean = 3.6 ppm); Flash point = 99 deg F; VP from HSDB;",
        "links": [],
        "cross_references": [
          {
            "type": "name_match",
            "text": "ash",
            "confidence": 1.0,
            "uuid": "68b360f1-5ad0-4337-bea0-d7adca2961b5",
            "name": "Ash",
            "url": "https://haz-map.com/Agents/965",
            "category": "agents"
          }
        ]
      },
      "nfpa": {
        "original_name": "NFPA",
        "value": "may ignite at ambient temp",
        "links": [],
        "cross_references": []
      },
      "erpg1": {
        "original_name": "ERPG-1",
        "value": "25 ppm",
        "links": [],
        "cross_references": []
      },
      "erpg2": {
        "original_name": "ERPG-2",
        "value": "100 ppm",
        "links": [],
        "cross_references": []
      },
      "erpg3": {
        "original_name": "ERPG-3",
        "value": "300 ppm",
        "links": [],
        "cross_references": []
      }
    },
    "adverse_effects": {
      "neurotoxin": {
        "original_name": "Neurotoxin",
        "value": "Other CNS neurotoxin",
        "links": [],
        "cross_references": []
      },
      "hepatotoxin": {
        "original_name": "Hepatotoxin",
        "value": "Hepatoxic (a) from occupational exposure (secondary effect) or (b) in animal studies or in humans after ingestion",
        "links": [],
        "cross_references": []
      },
      "nephrotoxin": {
        "original_name": "Nephrotoxin",
        "value": "Yes",
        "links": [],
        "cross_references": []
      }
    },
    "diseases_processes_and_activities_linked_to_this_agent": {
      "processes": {
        "original_name": "Processes",
        "value": "Industrial Processes with risk of exposure: Semiconductor Manufacturing",
        "links": [
          {
            "text": "Semiconductor Manufacturing",
            "url": "https://haz-map.com/Processes/97"
          }
        ],
        "cross_references": [
          {
            "type": "url_match",
            "text": "Semiconductor Manufacturing",
            "url": "https://haz-map.com/Processes/97",
            "confidence": 1.0,
            "uuid": "a1adedb7-a724-4539-9aff-c43b42706b89",
            "name": "Semiconductor Manufacturing",
            "category": "processes"
          }
        ]
      }
    }
  },
  "cross_references": [
    {
      "type": "url_match",
      "text": "Semiconductor Manufacturing",
      "url": "https://haz-map.com/Processes/97",
      "confidence": 1.0,
      "uuid": "a1adedb7-a724-4539-9aff-c43b42706b89",
      "name": "Semiconductor Manufacturing",
      "category": "processes"
    },
    {
      "type": "name_match",
      "text": "lacrimation",
      "confidence": 1.0,
      "uuid": "392ff8e7-90fa-4d6d-8f67-3e49d053ffac",
      "name": "lacrimation",
      "url": "https://haz-map.com/Findings/199",
      "category": "findings"
    },
    {
      "type": "name_match",
      "text": "copper",
      "confidence": 1.0,
      "uuid": "ec3b6867-24a9-4dd4-bb59-cd8ac790c685",
      "name": "Copper",
      "url": "https://haz-map.com/Agents/374",
      "category": "agents"
    },
    {
      "type": "name_match",
      "text": "ethyl silicate",
      "confidence": 1.0,
      "uuid": "a1443c36-39c2-438b-8c33-b1ada85234cd",
      "name": "Ethyl silicate",
      "url": "https://haz-map.com/Agents/486",
      "category": "agents"
    },
    {
      "type": "name_match",
      "text": "methyl silicate",
      "confidence": 1.0,
      "uuid": "dad1085d-da69-4b5f-a22f-83c07c7fd4b7",
      "name": "Methyl silicate",
      "url": "https://haz-map.com/Agents/553",
      "category": "agents"
    },
    {
      "type": "name_match",
      "text": "mica",
      "confidence": 1.0,
      "uuid": "433f26f1-c399-4596-b179-ce3843cfd465",
      "name": "Mica",
      "url": "https://haz-map.com/Agents/621",
      "category": "agents"
    },
    {
      "type": "name_match",
      "text": "silicon",
      "confidence": 1.0,
      "uuid": "443f4405-7a1f-47db-bf43-809557f77483",
      "name": "Silicon",
      "url": "https://haz-map.com/Agents/623",
      "category": "agents"
    },
    {
      "type": "name_match",
      "text": "tea",
      "confidence": 1.0,
      "uuid": "773409e5-ac1a-4c9e-9470-9667ca82091c",
      "name": "Tea",
      "url": "https://haz-map.com/Agents/878",
      "category": "agents"
    },
    {
      "type": "name_match",
      "text": "ash",
      "confidence": 1.0,
      "uuid": "68b360f1-5ad0-4337-bea0-d7adca2961b5",
      "name": "Ash",
      "url": "https://haz-map.com/Agents/965",
      "category": "agents"
    },
    {
      "type": "name_match",
      "text": "alloys",
      "confidence": 1.0,
      "uuid": "9666ccee-2fab-426c-b33d-4f9032422585",
      "name": "ALLOYS",
      "url": "https://haz-map.com/Agents/2201",
      "category": "agents"
    },
    {
      "type": "name_match",
      "text": "silicic acid",
      "confidence": 1.0,
      "uuid": "64450f98-0ad1-4b61-a2e9-a4f67cc329f0",
      "name": "Silicic acid",
      "url": "https://haz-map.com/Agents/17270",
      "category": "agents"
    }
  ],
  "all_links": [
    {
      "text": "Search PubMed",
      "url": "https://www.ncbi.nlm.nih.gov/pubmed?term=Ethyl+silicate%20AND%20human%5Bmh%5D%20AND%20%28Occupational%20Diseases%20%5Bmh%5D%20OR%20Occupational%20Exposure%20%5Bmh%5D%29%20%20AND%20%28tox%5Bsb%5D%29&cmd=search"
    },
    {
      "text": "Semiconductor Manufacturing",
      "url": "https://haz-map.com/Processes/97"
    }
  ]
}