{
  "metadata": {
    "scraped_from": "https://haz-map.com/Agents/3956",
    "entity_name": "Bis(4-chlorobenzoyl) peroxide",
    "category": "agents",
    "uuid": "a16d3d13-ac1e-4ab3-a13e-bb39fdcda978",
    "scraped_at": "2025-07-23T19:35:12.628644"
  },
  "parsed_at": "2025-07-24T01:13:56.468327",
  "title": "Bis(4-chlorobenzoyl) peroxide",
  "sections": {
    "general": {
      "agent_name": {
        "original_name": "Agent Name",
        "value": "Bis(4-chlorobenzoyl) peroxide",
        "links": [],
        "cross_references": [
          {
            "type": "name_match",
            "text": "bis(4-chlorobenzoyl) peroxide",
            "confidence": 1.0,
            "uuid": "a16d3d13-ac1e-4ab3-a13e-bb39fdcda978",
            "name": "Bis(4-chlorobenzoyl) peroxide",
            "url": "https://haz-map.com/Agents/3956",
            "category": "agents"
          }
        ]
      },
      "cas_number": {
        "original_name": "CAS Number",
        "value": "94-17-7",
        "links": [],
        "cross_references": []
      },
      "formula": {
        "original_name": "Formula",
        "value": "C14-H8-Cl2-O4",
        "links": [],
        "cross_references": []
      },
      "major_category": {
        "original_name": "Major Category",
        "value": "Other Classes",
        "links": [],
        "cross_references": []
      },
      "synonyms": {
        "original_name": "Synonyms",
        "value": "4-Chlorobenzoyl peroxide; Bis(p-chlorobenzoyl) peroxide; Cadox PS; Di-(p-chlorobenzoyl) peroxide; Luperco BDB; Peroxide, bis(p-chlorobenzoyl)-; p,p'-Dichlorobenzoyl peroxide; p,p'-Dichlorodibenzoyl peroxide; p-Chlorobenzoyl peroxide; [ChemIDplus]",
        "links": [],
        "cross_references": [
          {
            "type": "name_match",
            "text": "benzoyl peroxide",
            "confidence": 1.0,
            "uuid": "5774f34e-3ec3-49c3-9003-8645e0ee4e24",
            "name": "Benzoyl peroxide",
            "url": "https://haz-map.com/Agents/304",
            "category": "agents"
          }
        ]
      },
      "category": {
        "original_name": "Category",
        "value": "Peroxides, Organic",
        "links": [],
        "cross_references": []
      },
      "description": {
        "original_name": "Description",
        "value": "White odorless solid; Insoluble in water; [Hawley] Fine white odorless granules or crystals; [MSDSonline]",
        "links": [],
        "cross_references": [
          {
            "type": "name_match",
            "text": "water",
            "confidence": 1.0,
            "uuid": "6f2a7557-dfd2-49bc-9b4b-a93cd8e225d4",
            "name": "Water",
            "url": "https://haz-map.com/Agents/18668",
            "category": "agents"
          }
        ]
      },
      "sourcesuses": {
        "original_name": "Sources/Uses",
        "value": "Used as a bleaching agent and polymerization catalyst; [Hawley] Used as plasticizer for epoxy resins; [MSDSonline]",
        "links": [],
        "cross_references": [
          {
            "type": "name_match",
            "text": "epoxy resins",
            "confidence": 1.0,
            "uuid": "4724cfe8-e98a-4ee6-a6de-25e8d9534e62",
            "name": "EPOXY RESINS",
            "url": "https://haz-map.com/Agents/30",
            "category": "agents"
          }
        ]
      },
      "comments": {
        "original_name": "Comments",
        "value": "Intraperitoneal LDLo (mouse) = 500 mg/kg; [RTECS] A dangerous fire and explosion hazard; Strong oxidizer; Decomposes violently on heating or contamination; [Hawley] A skin and eye irritant; [HSDB] An irritant; [MSDSonline] See \"Bis(2,4-dichlorobenzoyl) peroxide.\"",
        "links": [],
        "cross_references": [
          {
            "type": "name_match",
            "text": "2,4-d",
            "confidence": 1.0,
            "uuid": "bed35f54-2d93-4ffd-a3ee-723ab365faf1",
            "name": "2,4-D",
            "url": "https://haz-map.com/Agents/389",
            "category": "agents"
          },
          {
            "type": "name_match",
            "text": "bis(2,4-dichlorobenzoyl) peroxide",
            "confidence": 1.0,
            "uuid": "599867f6-cc26-4320-9a69-750582ae0c86",
            "name": "Bis(2,4-dichlorobenzoyl) peroxide",
            "url": "https://haz-map.com/Agents/20333",
            "category": "agents"
          }
        ]
      },
      "biomedical_references": {
        "original_name": "Biomedical References",
        "value": "Search PubMed",
        "links": [
          {
            "text": "Search PubMed",
            "url": "https://www.ncbi.nlm.nih.gov/pubmed?term=Bis(4-chlorobenzoyl)+peroxide%20AND%20human%5Bmh%5D%20AND%20%28Occupational%20Diseases%20%5Bmh%5D%20OR%20Occupational%20Exposure%20%5Bmh%5D%29%20%20AND%20%28tox%5Bsb%5D%29&cmd=search"
          }
        ],
        "cross_references": []
      }
    },
    "exposure_assessment": {
      "vapor_pressure": {
        "original_name": "Vapor Pressure",
        "value": "1.75E-05 mm Hg",
        "links": [],
        "cross_references": []
      }
    },
    "diseases_processes_and_activities_linked_to_this_agent": {
      "other_information": {
        "original_name": "Other Information",
        "value": "No other related information on this agent was found.",
        "links": [],
        "cross_references": []
      }
    }
  },
  "cross_references": [
    {
      "type": "name_match",
      "text": "epoxy resins",
      "confidence": 1.0,
      "uuid": "4724cfe8-e98a-4ee6-a6de-25e8d9534e62",
      "name": "EPOXY RESINS",
      "url": "https://haz-map.com/Agents/30",
      "category": "agents"
    },
    {
      "type": "name_match",
      "text": "benzoyl peroxide",
      "confidence": 1.0,
      "uuid": "5774f34e-3ec3-49c3-9003-8645e0ee4e24",
      "name": "Benzoyl peroxide",
      "url": "https://haz-map.com/Agents/304",
      "category": "agents"
    },
    {
      "type": "name_match",
      "text": "2,4-d",
      "confidence": 1.0,
      "uuid": "bed35f54-2d93-4ffd-a3ee-723ab365faf1",
      "name": "2,4-D",
      "url": "https://haz-map.com/Agents/389",
      "category": "agents"
    },
    {
      "type": "name_match",
      "text": "bis(4-chlorobenzoyl) peroxide",
      "confidence": 1.0,
      "uuid": "a16d3d13-ac1e-4ab3-a13e-bb39fdcda978",
      "name": "Bis(4-chlorobenzoyl) peroxide",
      "url": "https://haz-map.com/Agents/3956",
      "category": "agents"
    },
    {
      "type": "name_match",
      "text": "water",
      "confidence": 1.0,
      "uuid": "6f2a7557-dfd2-49bc-9b4b-a93cd8e225d4",
      "name": "Water",
      "url": "https://haz-map.com/Agents/18668",
      "category": "agents"
    },
    {
      "type": "name_match",
      "text": "bis(2,4-dichlorobenzoyl) peroxide",
      "confidence": 1.0,
      "uuid": "599867f6-cc26-4320-9a69-750582ae0c86",
      "name": "Bis(2,4-dichlorobenzoyl) peroxide",
      "url": "https://haz-map.com/Agents/20333",
      "category": "agents"
    }
  ],
  "all_links": [
    {
      "text": "Search PubMed",
      "url": "https://www.ncbi.nlm.nih.gov/pubmed?term=Bis(4-chlorobenzoyl)+peroxide%20AND%20human%5Bmh%5D%20AND%20%28Occupational%20Diseases%20%5Bmh%5D%20OR%20Occupational%20Exposure%20%5Bmh%5D%29%20%20AND%20%28tox%5Bsb%5D%29&cmd=search"
    }
  ]
}