{
  "metadata": {
    "scraped_from": "https://haz-map.com/Agents/14322",
    "entity_name": "Fumaryl chloride",
    "category": "agents",
    "uuid": "a1d4a2a6-310a-4d75-a7a0-8a4fc69eceaf",
    "scraped_at": "2025-07-23T21:22:03.330751"
  },
  "parsed_at": "2025-07-24T01:18:19.376931",
  "title": "Fumaryl chloride",
  "sections": {
    "general": {
      "agent_name": {
        "original_name": "Agent Name",
        "value": "Fumaryl chloride",
        "links": [],
        "cross_references": [
          {
            "type": "name_match",
            "text": "fumaryl chloride",
            "confidence": 1.0,
            "uuid": "a1d4a2a6-310a-4d75-a7a0-8a4fc69eceaf",
            "name": "Fumaryl chloride",
            "url": "https://haz-map.com/Agents/14322",
            "category": "agents"
          }
        ]
      },
      "cas_number": {
        "original_name": "CAS Number",
        "value": "627-63-4",
        "links": [],
        "cross_references": []
      },
      "formula": {
        "original_name": "Formula",
        "value": "C4-H2-Cl2-O2",
        "links": [],
        "cross_references": []
      },
      "major_category": {
        "original_name": "Major Category",
        "value": "Toxic Gases & Vapors",
        "links": [],
        "cross_references": []
      },
      "synonyms": {
        "original_name": "Synonyms",
        "value": "Chlorure de fumaryle [French]; Dichlorid kyseliny fumarove [Czech]; Fumaroyl chloride; Fumaroyl dichloride; Fumarylchlorid [Czech]; TL 189; 2-Butenedioyl dichloride, (2E)-; 2-Butenedioyl dichloride, (E)-; [ChemIDplus] Fumaric acid chloride; Fumaric acid dichloride; Fumaric dichloride; Fumaryl dichloride; [CAMEO] UN1780",
        "links": [],
        "cross_references": [
          {
            "type": "name_match",
            "text": "fumaric acid",
            "confidence": 1.0,
            "uuid": "b635d88c-9570-4e93-8899-d7a2375b1daa",
            "name": "Fumaric acid",
            "url": "https://haz-map.com/Agents/8358",
            "category": "agents"
          }
        ]
      },
      "category": {
        "original_name": "Category",
        "value": "Acid Halides",
        "links": [],
        "cross_references": []
      },
      "description": {
        "original_name": "Description",
        "value": "Fuming straw-colored liquid with a pungent odor; [CAMEO] Colorless liquid with an acrid odor; [Alfa Aesar MSDS]",
        "links": [],
        "cross_references": []
      },
      "comments": {
        "original_name": "Comments",
        "value": "A severe skin and eye irritant; Causes musculoskeletal changes in inhalation lethal-concentration studies of mice; [RTECS] Corrosive to tissue; Vapor causes eye and mucous membrane irritation; [CAMEO] Reacts with water; Causes burns; Inhalation may cause corrosive injuries to upper respiratory tract and lungs; Harmful by ingestion, inhalation, and skin absorption; [Alfa Aesar MSDS]",
        "links": [],
        "cross_references": [
          {
            "type": "name_match",
            "text": "burn",
            "confidence": 1.0,
            "uuid": "63665de5-6376-4918-8dbf-4c10c4d63837",
            "name": "burn",
            "url": "https://haz-map.com/Findings/204",
            "category": "findings"
          },
          {
            "type": "name_match",
            "text": "water",
            "confidence": 1.0,
            "uuid": "6f2a7557-dfd2-49bc-9b4b-a93cd8e225d4",
            "name": "Water",
            "url": "https://haz-map.com/Agents/18668",
            "category": "agents"
          }
        ]
      },
      "biomedical_references": {
        "original_name": "Biomedical References",
        "value": "Search PubMed",
        "links": [
          {
            "text": "Search PubMed",
            "url": "https://www.ncbi.nlm.nih.gov/pubmed?term=Fumaryl+chloride%20AND%20human%5Bmh%5D%20AND%20%28Occupational%20Diseases%20%5Bmh%5D%20OR%20Occupational%20Exposure%20%5Bmh%5D%29%20%20AND%20%28tox%5Bsb%5D%29&cmd=search"
          }
        ],
        "cross_references": []
      }
    },
    "exposure_assessment": {
      "vapor_pressure": {
        "original_name": "Vapor Pressure",
        "value": "2.07 mm Hg",
        "links": [],
        "cross_references": []
      },
      "lethal_concentration": {
        "original_name": "Lethal Concentration",
        "value": "LCLo (rat) = 500 ppm/4hr",
        "links": [],
        "cross_references": []
      },
      "explanatory_notes": {
        "original_name": "Explanatory Notes",
        "value": "VP from ChemIDplus;",
        "links": [],
        "cross_references": []
      }
    },
    "adverse_effects": {
      "toxic_pneumonitis": {
        "original_name": "Toxic Pneumonitis",
        "value": "Yes",
        "links": [],
        "cross_references": []
      },
      "dermatotoxin": {
        "original_name": "Dermatotoxin",
        "value": "Skin burns",
        "links": [],
        "cross_references": [
          {
            "type": "name_match",
            "text": "burn",
            "confidence": 1.0,
            "uuid": "63665de5-6376-4918-8dbf-4c10c4d63837",
            "name": "burn",
            "url": "https://haz-map.com/Findings/204",
            "category": "findings"
          }
        ]
      }
    },
    "diseases_processes_and_activities_linked_to_this_agent": {
      "other_information": {
        "original_name": "Other Information",
        "value": "No other related information on this agent was found.",
        "links": [],
        "cross_references": []
      }
    }
  },
  "cross_references": [
    {
      "type": "name_match",
      "text": "burn",
      "confidence": 1.0,
      "uuid": "63665de5-6376-4918-8dbf-4c10c4d63837",
      "name": "burn",
      "url": "https://haz-map.com/Findings/204",
      "category": "findings"
    },
    {
      "type": "name_match",
      "text": "fumaric acid",
      "confidence": 1.0,
      "uuid": "b635d88c-9570-4e93-8899-d7a2375b1daa",
      "name": "Fumaric acid",
      "url": "https://haz-map.com/Agents/8358",
      "category": "agents"
    },
    {
      "type": "name_match",
      "text": "fumaryl chloride",
      "confidence": 1.0,
      "uuid": "a1d4a2a6-310a-4d75-a7a0-8a4fc69eceaf",
      "name": "Fumaryl chloride",
      "url": "https://haz-map.com/Agents/14322",
      "category": "agents"
    },
    {
      "type": "name_match",
      "text": "water",
      "confidence": 1.0,
      "uuid": "6f2a7557-dfd2-49bc-9b4b-a93cd8e225d4",
      "name": "Water",
      "url": "https://haz-map.com/Agents/18668",
      "category": "agents"
    }
  ],
  "all_links": [
    {
      "text": "Search PubMed",
      "url": "https://www.ncbi.nlm.nih.gov/pubmed?term=Fumaryl+chloride%20AND%20human%5Bmh%5D%20AND%20%28Occupational%20Diseases%20%5Bmh%5D%20OR%20Occupational%20Exposure%20%5Bmh%5D%29%20%20AND%20%28tox%5Bsb%5D%29&cmd=search"
    }
  ]
}