{
  "metadata": {
    "scraped_from": "https://haz-map.com/Agents/7911",
    "entity_name": "1,3-Dimethylcyclopentane",
    "category": "agents",
    "uuid": "a218f225-08e1-4355-adcc-b1ef31022a6a",
    "scraped_at": "2025-07-23T20:18:47.046243"
  },
  "parsed_at": "2025-07-24T00:57:05.963970",
  "title": "1,3-Dimethylcyclopentane",
  "sections": {
    "general": {
      "agent_name": {
        "original_name": "Agent Name",
        "value": "1,3-Dimethylcyclopentane",
        "links": [],
        "cross_references": [
          {
            "type": "name_match",
            "text": "cyclopentane",
            "confidence": 1.0,
            "uuid": "6480e7e3-674a-4296-afdc-a9ce8b2f2850",
            "name": "Cyclopentane",
            "url": "https://haz-map.com/Agents/387",
            "category": "agents"
          },
          {
            "type": "name_match",
            "text": "1,3-dimethylcyclopentane",
            "confidence": 1.0,
            "uuid": "a218f225-08e1-4355-adcc-b1ef31022a6a",
            "name": "1,3-Dimethylcyclopentane",
            "url": "https://haz-map.com/Agents/7911",
            "category": "agents"
          },
          {
            "type": "name_match",
            "text": "methylcyclopentane",
            "confidence": 1.0,
            "uuid": "5ff95a8e-db75-42d1-b99b-2e187bc2553a",
            "name": "Methylcyclopentane",
            "url": "https://haz-map.com/Agents/8262",
            "category": "agents"
          },
          {
            "type": "name_match",
            "text": "ethylcyclopentane",
            "confidence": 1.0,
            "uuid": "358f9ebf-de12-481a-80a5-9cbc12e2d4d5",
            "name": "Ethylcyclopentane",
            "url": "https://haz-map.com/Agents/13510",
            "category": "agents"
          },
          {
            "type": "fuzzy_match",
            "text": "3-dimethylcyclopentane",
            "matched_name": "cis-1,3-Dimethylcyclopentane",
            "confidence": 0.8095238095238095,
            "uuid": "dddd6b23-a5c9-416b-b5f8-6a990c4274ee",
            "category": "agents",
            "url": "https://haz-map.com/Agents/13497"
          },
          {
            "type": "fuzzy_match",
            "text": "3-dimethylcyclopentane",
            "matched_name": "trans-1,3-Dimethylcyclopentane",
            "confidence": 0.7614035087719297,
            "uuid": "38ed0623-951d-46bc-b3d5-0e4a94b9cb1f",
            "category": "agents",
            "url": "https://haz-map.com/Agents/18087"
          }
        ]
      },
      "cas_number": {
        "original_name": "CAS Number",
        "value": "2453-00-1",
        "links": [],
        "cross_references": []
      },
      "formula": {
        "original_name": "Formula",
        "value": "C7-H14",
        "links": [],
        "cross_references": []
      },
      "major_category": {
        "original_name": "Major Category",
        "value": "Solvents",
        "links": [],
        "cross_references": []
      },
      "synonyms": {
        "original_name": "Synonyms",
        "value": "1,3-Dimethyl cyclopentane; Dimethylcyclopentane; [CHEMINFO]",
        "links": [],
        "cross_references": [
          {
            "type": "name_match",
            "text": "cyclopentane",
            "confidence": 1.0,
            "uuid": "6480e7e3-674a-4296-afdc-a9ce8b2f2850",
            "name": "Cyclopentane",
            "url": "https://haz-map.com/Agents/387",
            "category": "agents"
          },
          {
            "type": "name_match",
            "text": "methylcyclopentane",
            "confidence": 1.0,
            "uuid": "5ff95a8e-db75-42d1-b99b-2e187bc2553a",
            "name": "Methylcyclopentane",
            "url": "https://haz-map.com/Agents/8262",
            "category": "agents"
          },
          {
            "type": "name_match",
            "text": "ethylcyclopentane",
            "confidence": 1.0,
            "uuid": "358f9ebf-de12-481a-80a5-9cbc12e2d4d5",
            "name": "Ethylcyclopentane",
            "url": "https://haz-map.com/Agents/13510",
            "category": "agents"
          }
        ]
      },
      "category": {
        "original_name": "Category",
        "value": "Aliphatics, Saturated (<C12)",
        "links": [],
        "cross_references": []
      },
      "description": {
        "original_name": "Description",
        "value": "Colorless liquid; [CHEMINFO]",
        "links": [],
        "cross_references": []
      },
      "sourcesuses": {
        "original_name": "Sources/Uses",
        "value": "Used as a solvent and in organic synthesis; [CHEMINFO]",
        "links": [],
        "cross_references": []
      },
      "comments": {
        "original_name": "Comments",
        "value": "Inhalation of high concentrations can cause CNS depression; [CHEMINFO]",
        "links": [],
        "cross_references": []
      },
      "biomedical_references": {
        "original_name": "Biomedical References",
        "value": "Search PubMed",
        "links": [
          {
            "text": "Search PubMed",
            "url": "https://www.ncbi.nlm.nih.gov/pubmed?term=1%2c3-Dimethylcyclopentane%20AND%20human%5Bmh%5D%20AND%20%28Occupational%20Diseases%20%5Bmh%5D%20OR%20Occupational%20Exposure%20%5Bmh%5D%29%20%20AND%20%28tox%5Bsb%5D%29&cmd=search"
          }
        ],
        "cross_references": []
      }
    },
    "exposure_assessment": {
      "explanatory_notes": {
        "original_name": "Explanatory Notes",
        "value": "Flash point < 21 deg C; [CHEMINFO] BP = 91 deg C; [MSDSonline]",
        "links": [],
        "cross_references": [
          {
            "type": "name_match",
            "text": "ash",
            "confidence": 1.0,
            "uuid": "68b360f1-5ad0-4337-bea0-d7adca2961b5",
            "name": "Ash",
            "url": "https://haz-map.com/Agents/965",
            "category": "agents"
          }
        ]
      }
    },
    "adverse_effects": {
      "neurotoxin": {
        "original_name": "Neurotoxin",
        "value": "Acute solvent syndrome",
        "links": [],
        "cross_references": []
      }
    },
    "diseases_processes_and_activities_linked_to_this_agent": {
      "diseases": {
        "original_name": "Diseases",
        "value": "Occupational diseases associated with exposure to this agent: Solvents, acute toxic effect",
        "links": [
          {
            "text": "Solvents, acute toxic effect",
            "url": "https://haz-map.com/Diseases/326"
          }
        ],
        "cross_references": [
          {
            "type": "url_match",
            "text": "Solvents, acute toxic effect",
            "url": "https://haz-map.com/Diseases/326",
            "confidence": 1.0,
            "uuid": "581e90e3-9d0c-45f0-aa6c-3468c28da129",
            "name": "Solvents, acute toxic effect",
            "category": "diseases"
          }
        ]
      }
    }
  },
  "cross_references": [
    {
      "type": "url_match",
      "text": "Solvents, acute toxic effect",
      "url": "https://haz-map.com/Diseases/326",
      "confidence": 1.0,
      "uuid": "581e90e3-9d0c-45f0-aa6c-3468c28da129",
      "name": "Solvents, acute toxic effect",
      "category": "diseases"
    },
    {
      "type": "name_match",
      "text": "cyclopentane",
      "confidence": 1.0,
      "uuid": "6480e7e3-674a-4296-afdc-a9ce8b2f2850",
      "name": "Cyclopentane",
      "url": "https://haz-map.com/Agents/387",
      "category": "agents"
    },
    {
      "type": "name_match",
      "text": "ash",
      "confidence": 1.0,
      "uuid": "68b360f1-5ad0-4337-bea0-d7adca2961b5",
      "name": "Ash",
      "url": "https://haz-map.com/Agents/965",
      "category": "agents"
    },
    {
      "type": "name_match",
      "text": "1,3-dimethylcyclopentane",
      "confidence": 1.0,
      "uuid": "a218f225-08e1-4355-adcc-b1ef31022a6a",
      "name": "1,3-Dimethylcyclopentane",
      "url": "https://haz-map.com/Agents/7911",
      "category": "agents"
    },
    {
      "type": "name_match",
      "text": "methylcyclopentane",
      "confidence": 1.0,
      "uuid": "5ff95a8e-db75-42d1-b99b-2e187bc2553a",
      "name": "Methylcyclopentane",
      "url": "https://haz-map.com/Agents/8262",
      "category": "agents"
    },
    {
      "type": "name_match",
      "text": "ethylcyclopentane",
      "confidence": 1.0,
      "uuid": "358f9ebf-de12-481a-80a5-9cbc12e2d4d5",
      "name": "Ethylcyclopentane",
      "url": "https://haz-map.com/Agents/13510",
      "category": "agents"
    },
    {
      "type": "fuzzy_match",
      "text": "3-dimethylcyclopentane",
      "matched_name": "cis-1,3-Dimethylcyclopentane",
      "confidence": 0.8095238095238095,
      "uuid": "dddd6b23-a5c9-416b-b5f8-6a990c4274ee",
      "category": "agents",
      "url": "https://haz-map.com/Agents/13497"
    },
    {
      "type": "fuzzy_match",
      "text": "3-dimethylcyclopentane",
      "matched_name": "trans-1,3-Dimethylcyclopentane",
      "confidence": 0.7614035087719297,
      "uuid": "38ed0623-951d-46bc-b3d5-0e4a94b9cb1f",
      "category": "agents",
      "url": "https://haz-map.com/Agents/18087"
    }
  ],
  "all_links": [
    {
      "text": "Search PubMed",
      "url": "https://www.ncbi.nlm.nih.gov/pubmed?term=1%2c3-Dimethylcyclopentane%20AND%20human%5Bmh%5D%20AND%20%28Occupational%20Diseases%20%5Bmh%5D%20OR%20Occupational%20Exposure%20%5Bmh%5D%29%20%20AND%20%28tox%5Bsb%5D%29&cmd=search"
    },
    {
      "text": "Solvents, acute toxic effect",
      "url": "https://haz-map.com/Diseases/326"
    }
  ]
}