{
  "metadata": {
    "scraped_from": "https://haz-map.com/Agents/15893",
    "entity_name": "Nicotinic acid",
    "category": "agents",
    "uuid": "a2557ad0-66df-43a7-b01e-f9390d8e602f",
    "scraped_at": "2025-07-23T21:33:12.768613"
  },
  "parsed_at": "2025-07-24T00:51:16.492541",
  "title": "Nicotinic acid",
  "sections": {
    "general": {
      "agent_name": {
        "original_name": "Agent Name",
        "value": "Nicotinic acid",
        "links": [],
        "cross_references": [
          {
            "type": "name_match",
            "text": "nicotinic acid",
            "confidence": 1.0,
            "uuid": "a2557ad0-66df-43a7-b01e-f9390d8e602f",
            "name": "Nicotinic acid",
            "url": "https://haz-map.com/Agents/15893",
            "category": "agents"
          }
        ]
      },
      "alternative_name": {
        "original_name": "Alternative Name",
        "value": "Niacin",
        "links": [],
        "cross_references": []
      },
      "cas_number": {
        "original_name": "CAS Number",
        "value": "59-67-6",
        "links": [],
        "cross_references": []
      },
      "formula": {
        "original_name": "Formula",
        "value": "C6-H5-N-O2",
        "links": [],
        "cross_references": []
      },
      "major_category": {
        "original_name": "Major Category",
        "value": "Biological Agents",
        "links": [],
        "cross_references": []
      },
      "synonyms": {
        "original_name": "Synonyms",
        "value": "3-Carboxylpyridine; 3-Carboxypyridine; Acide nicotinique [INN-French]; Acido nicotinico [INN-Spanish]; Acidum nicotinicum [INN-Latin]; Akotin; Apelagrin; Bionic; Daskil; Davitamon PP; Diacin; Direktan; Efacin; Enduracin; Kyselina nikotinova [Czech]; Linic; NAH; NICO; Naotin; Niac; Niacin; Niacor; Niaspan; Niaspan Titration Starter Pack; Nicacid; Nicagin; Nicamin; Nicangin; Nico-400; Nico-Span; Nicobid; Nicocap; Nicocidin; Nicocrisina; Nicodan; Nicodelmine; Nicodon; Nicolar; Niconacid; Niconat; Niconazid; Nicorol; Nicosan 3; Nicoside; Nicosyl; Nicotamin; Nicotene; Nicotil; Nicotine acid; Nicotinipca; Nicotinsaure [German]; Nicovasan; Nicovasen; Nicyl; Nipellen; Nyclin; Pellagramin; Pellagrin; Pelonin; Peviton; Pyridine-3-carboxylic acid; Pyridine-beta-carboxylic acid; Pyridine-carboxylique-3 [French]; S115; SK-Niacin; SR 4390; Slo-niacin; Tega-Span; Tinic; Vitaplex N; Wampocap; 3-Pyridinecarboxylic acid; Pyridinecarboxylic acid, 3-; [ChemIDplus]",
        "links": [],
        "cross_references": [
          {
            "type": "name_match",
            "text": "nicotine",
            "confidence": 1.0,
            "uuid": "07bfdaa7-cb27-4f79-8544-77b3bc05d2e6",
            "name": "Nicotine",
            "url": "https://haz-map.com/Agents/566",
            "category": "agents"
          },
          {
            "type": "name_match",
            "text": "pyridine",
            "confidence": 1.0,
            "uuid": "a2d916a4-844b-4df6-9be5-868b2b364d71",
            "name": "Pyridine",
            "url": "https://haz-map.com/Agents/616",
            "category": "agents"
          },
          {
            "type": "name_match",
            "text": "ramin",
            "confidence": 1.0,
            "uuid": "f0fbb433-5eef-4a70-a208-66cc45df5768",
            "name": "Ramin",
            "url": "https://haz-map.com/Agents/962",
            "category": "agents"
          }
        ]
      },
      "category": {
        "original_name": "Category",
        "value": "Vitamins and Derivatives",
        "links": [],
        "cross_references": []
      },
      "description": {
        "original_name": "Description",
        "value": "White solid; [ICSC] Colorless odorless solid; [HSDB] White powder; [Sigma-Aldrich MSDS]",
        "links": [],
        "cross_references": []
      },
      "sourcesuses": {
        "original_name": "Sources/Uses",
        "value": "Occurs naturally especially in liver, fish, yeast, and cereal grains; Used as a drug (antilipemic and vitamin); [Merck Index] Used in the chemical, agricultural, animal feed, and food industries, in cosmetics, pharmaceuticals, as a food additive, intermediate, and laboratory chemical; [IUCLID] Used as a medication, nutrient, in animal feeds, enriched flours, as a chemical intermediate, and in electroplating bathes; [HSDB] Used as a nutritional supplement; [FDA] Permitted for use as an inert ingredient in non-food pesticide products; [EPA]",
        "links": [],
        "cross_references": [
          {
            "type": "name_match",
            "text": "electroplating",
            "confidence": 1.0,
            "uuid": "ae1bd2c1-37de-4b26-82b6-47ee206af837",
            "name": "Electroplating",
            "url": "https://haz-map.com/Processes/66",
            "category": "processes"
          },
          {
            "type": "name_match",
            "text": "mica",
            "confidence": 1.0,
            "uuid": "433f26f1-c399-4596-b179-ce3843cfd465",
            "name": "Mica",
            "url": "https://haz-map.com/Agents/621",
            "category": "agents"
          },
          {
            "type": "name_match",
            "text": "pharmaceuticals",
            "confidence": 1.0,
            "uuid": "713c3c30-b67e-4a2f-a90f-b32f8a306332",
            "name": "PHARMACEUTICALS",
            "url": "https://haz-map.com/Agents/1000",
            "category": "agents"
          }
        ]
      },
      "comments": {
        "original_name": "Comments",
        "value": "A mild eye irritant; [ICSC] Flushing of the skin accompanied by itching, tingling, and warmness have been observed following occupational exposure; [IUCLID] Ingestion of large amounts, e.g., by drug abusers attempting to mask drugs in the urine, can cause vomiting, abdominal pain, dizziness, and hypoglycemia followed by persistent hyperglycemia, acidosis, hypotension, and coagulopathy; Also, chronic, excessive use may cause hepatitis; [Olson, p. 445-6] May cause mild upper respiratory tract irritation; [NTP] An irritant that may cause severe eye irritation; [Sigma-Aldrich MSDS] See \"Nicotinamide.\"",
        "links": [],
        "cross_references": [
          {
            "type": "name_match",
            "text": "abdominal pain",
            "confidence": 1.0,
            "uuid": "1faabdf2-4731-447b-bb9f-ce87fc677bed",
            "name": "abdominal pain",
            "url": "https://haz-map.com/Findings/9",
            "category": "findings"
          },
          {
            "type": "name_match",
            "text": "dizziness",
            "confidence": 1.0,
            "uuid": "4b0e6043-b228-49de-996c-b42ec8b3780e",
            "name": "dizziness",
            "url": "https://haz-map.com/Findings/16",
            "category": "findings"
          },
          {
            "type": "name_match",
            "text": "nicotinamide",
            "confidence": 1.0,
            "uuid": "eb13c633-8b67-4851-9fbe-b14c4c5564ed",
            "name": "Nicotinamide",
            "url": "https://haz-map.com/Agents/15948",
            "category": "agents"
          }
        ]
      },
      "biomedical_references": {
        "original_name": "Biomedical References",
        "value": "Search PubMed",
        "links": [
          {
            "text": "Search PubMed",
            "url": "https://www.ncbi.nlm.nih.gov/pubmed?term=Nicotinic+acid%20AND%20human%5Bmh%5D%20AND%20%28Occupational%20Diseases%20%5Bmh%5D%20OR%20Occupational%20Exposure%20%5Bmh%5D%29%20%20AND%20%28tox%5Bsb%5D%29&cmd=search"
          }
        ],
        "cross_references": []
      }
    },
    "exposure_assessment": {
      "vapor_pressure": {
        "original_name": "Vapor Pressure",
        "value": "5.7E-06 mm Hg",
        "links": [],
        "cross_references": []
      }
    },
    "adverse_effects": {
      "hepatotoxin": {
        "original_name": "Hepatotoxin",
        "value": "Hepatoxic (a) from occupational exposure (secondary effect) or (b) in animal studies or in humans after ingestion",
        "links": [],
        "cross_references": []
      }
    },
    "diseases_processes_and_activities_linked_to_this_agent": {
      "processes": {
        "original_name": "Processes",
        "value": "Industrial Processes with risk of exposure: Electroplating Farming (Feed Additives)",
        "links": [
          {
            "text": "Electroplating",
            "url": "https://haz-map.com/Processes/66"
          },
          {
            "text": "Farming (Feed Additives)",
            "url": "https://haz-map.com/Processes/262"
          }
        ],
        "cross_references": [
          {
            "type": "url_match",
            "text": "Electroplating",
            "url": "https://haz-map.com/Processes/66",
            "confidence": 1.0,
            "uuid": "ae1bd2c1-37de-4b26-82b6-47ee206af837",
            "name": "Electroplating",
            "category": "processes"
          }
        ]
      }
    }
  },
  "cross_references": [
    {
      "type": "url_match",
      "text": "Electroplating",
      "url": "https://haz-map.com/Processes/66",
      "confidence": 1.0,
      "uuid": "ae1bd2c1-37de-4b26-82b6-47ee206af837",
      "name": "Electroplating",
      "category": "processes"
    },
    {
      "type": "name_match",
      "text": "abdominal pain",
      "confidence": 1.0,
      "uuid": "1faabdf2-4731-447b-bb9f-ce87fc677bed",
      "name": "abdominal pain",
      "url": "https://haz-map.com/Findings/9",
      "category": "findings"
    },
    {
      "type": "name_match",
      "text": "dizziness",
      "confidence": 1.0,
      "uuid": "4b0e6043-b228-49de-996c-b42ec8b3780e",
      "name": "dizziness",
      "url": "https://haz-map.com/Findings/16",
      "category": "findings"
    },
    {
      "type": "name_match",
      "text": "nicotine",
      "confidence": 1.0,
      "uuid": "07bfdaa7-cb27-4f79-8544-77b3bc05d2e6",
      "name": "Nicotine",
      "url": "https://haz-map.com/Agents/566",
      "category": "agents"
    },
    {
      "type": "name_match",
      "text": "pyridine",
      "confidence": 1.0,
      "uuid": "a2d916a4-844b-4df6-9be5-868b2b364d71",
      "name": "Pyridine",
      "url": "https://haz-map.com/Agents/616",
      "category": "agents"
    },
    {
      "type": "name_match",
      "text": "mica",
      "confidence": 1.0,
      "uuid": "433f26f1-c399-4596-b179-ce3843cfd465",
      "name": "Mica",
      "url": "https://haz-map.com/Agents/621",
      "category": "agents"
    },
    {
      "type": "name_match",
      "text": "ramin",
      "confidence": 1.0,
      "uuid": "f0fbb433-5eef-4a70-a208-66cc45df5768",
      "name": "Ramin",
      "url": "https://haz-map.com/Agents/962",
      "category": "agents"
    },
    {
      "type": "name_match",
      "text": "pharmaceuticals",
      "confidence": 1.0,
      "uuid": "713c3c30-b67e-4a2f-a90f-b32f8a306332",
      "name": "PHARMACEUTICALS",
      "url": "https://haz-map.com/Agents/1000",
      "category": "agents"
    },
    {
      "type": "name_match",
      "text": "nicotinic acid",
      "confidence": 1.0,
      "uuid": "a2557ad0-66df-43a7-b01e-f9390d8e602f",
      "name": "Nicotinic acid",
      "url": "https://haz-map.com/Agents/15893",
      "category": "agents"
    },
    {
      "type": "name_match",
      "text": "nicotinamide",
      "confidence": 1.0,
      "uuid": "eb13c633-8b67-4851-9fbe-b14c4c5564ed",
      "name": "Nicotinamide",
      "url": "https://haz-map.com/Agents/15948",
      "category": "agents"
    }
  ],
  "all_links": [
    {
      "text": "Search PubMed",
      "url": "https://www.ncbi.nlm.nih.gov/pubmed?term=Nicotinic+acid%20AND%20human%5Bmh%5D%20AND%20%28Occupational%20Diseases%20%5Bmh%5D%20OR%20Occupational%20Exposure%20%5Bmh%5D%29%20%20AND%20%28tox%5Bsb%5D%29&cmd=search"
    },
    {
      "text": "Electroplating",
      "url": "https://haz-map.com/Processes/66"
    },
    {
      "text": "Farming (Feed Additives)",
      "url": "https://haz-map.com/Processes/262"
    }
  ]
}