{
  "metadata": {
    "scraped_from": "https://haz-map.com/Agents/21348",
    "entity_name": "N-Nitrosophenylbenzylamine",
    "category": "agents",
    "uuid": "a261c4d4-5c8a-48ee-9dd1-9768cc544c12",
    "scraped_at": "2025-07-23T22:42:18.862908"
  },
  "parsed_at": "2025-07-24T01:13:46.891137",
  "title": "N-Nitrosophenylbenzylamine",
  "sections": {
    "general": {
      "agent_name": {
        "original_name": "Agent Name",
        "value": "N-Nitrosophenylbenzylamine",
        "links": [],
        "cross_references": [
          {
            "type": "name_match",
            "text": "benzylamine",
            "confidence": 1.0,
            "uuid": "e3ff102c-c372-46ae-ab9f-a1fd3d630249",
            "name": "Benzylamine",
            "url": "https://haz-map.com/Agents/1380",
            "category": "agents"
          },
          {
            "type": "name_match",
            "text": "n-nitrosophenylbenzylamine",
            "confidence": 1.0,
            "uuid": "a261c4d4-5c8a-48ee-9dd1-9768cc544c12",
            "name": "N-Nitrosophenylbenzylamine",
            "url": "https://haz-map.com/Agents/21348",
            "category": "agents"
          }
        ]
      },
      "cas_number": {
        "original_name": "CAS Number",
        "value": "612-98-6",
        "links": [],
        "cross_references": []
      },
      "formula": {
        "original_name": "Formula",
        "value": "C13-H12-N2-O",
        "links": [],
        "cross_references": []
      },
      "major_category": {
        "original_name": "Major Category",
        "value": "Nitrogen Compounds",
        "links": [],
        "cross_references": [
          {
            "type": "name_match",
            "text": "nitrogen",
            "confidence": 1.0,
            "uuid": "db5e90a9-06d2-45b9-8b81-f345a89b0bc0",
            "name": "Nitrogen",
            "url": "https://haz-map.com/Agents/1072",
            "category": "agents"
          }
        ]
      },
      "synonyms": {
        "original_name": "Synonyms",
        "value": "Benzylphenylnitrosamine; N-Benzyl-N-nitrosoaniline; N-Nitroso-N-phenylbenzenemethanamine; N-Phenyl-N-nitrosobenzylamine; Benzenemethanamine, N-nitroso-N-phenyl-; Benzylamine, N-nitroso-N-phenyl-; [ChemIDplus]",
        "links": [],
        "cross_references": [
          {
            "type": "name_match",
            "text": "benzene",
            "confidence": 1.0,
            "uuid": "b05124de-5f34-4c14-8f04-ccb20c3780d9",
            "name": "Benzene",
            "url": "https://haz-map.com/Agents/5",
            "category": "agents"
          },
          {
            "type": "name_match",
            "text": "aniline",
            "confidence": 1.0,
            "uuid": "e4932692-8d9c-4a98-8c5c-81e55b12aedf",
            "name": "Aniline",
            "url": "https://haz-map.com/Agents/296",
            "category": "agents"
          },
          {
            "type": "name_match",
            "text": "benzylamine",
            "confidence": 1.0,
            "uuid": "e3ff102c-c372-46ae-ab9f-a1fd3d630249",
            "name": "Benzylamine",
            "url": "https://haz-map.com/Agents/1380",
            "category": "agents"
          }
        ]
      },
      "category": {
        "original_name": "Category",
        "value": "Nitrosamines",
        "links": [],
        "cross_references": [
          {
            "type": "name_match",
            "text": "nitrosamines",
            "confidence": 1.0,
            "uuid": "71647706-f82f-4f7a-a1ad-2500c04c2ac0",
            "name": "NITROSAMINES",
            "url": "https://haz-map.com/Agents/767",
            "category": "agents"
          }
        ]
      },
      "comments": {
        "original_name": "Comments",
        "value": "See \"NITROSAMINES.\"",
        "links": [],
        "cross_references": [
          {
            "type": "name_match",
            "text": "nitrosamines",
            "confidence": 1.0,
            "uuid": "71647706-f82f-4f7a-a1ad-2500c04c2ac0",
            "name": "NITROSAMINES",
            "url": "https://haz-map.com/Agents/767",
            "category": "agents"
          }
        ]
      },
      "biomedical_references": {
        "original_name": "Biomedical References",
        "value": "Search PubMed",
        "links": [
          {
            "text": "Search PubMed",
            "url": "https://www.ncbi.nlm.nih.gov/pubmed?term=N-Nitrosophenylbenzylamine%20AND%20human%5Bmh%5D%20AND%20%28Occupational%20Diseases%20%5Bmh%5D%20OR%20Occupational%20Exposure%20%5Bmh%5D%29%20%20AND%20%28tox%5Bsb%5D%29&cmd=search"
          }
        ],
        "cross_references": []
      }
    },
    "exposure_assessment": {
      "vapor_pressure": {
        "original_name": "Vapor Pressure",
        "value": "1.3E-05 mm Hg",
        "links": [],
        "cross_references": []
      }
    },
    "diseases_processes_and_activities_linked_to_this_agent": {
      "other_information": {
        "original_name": "Other Information",
        "value": "No other related information on this agent was found.",
        "links": [],
        "cross_references": []
      }
    }
  },
  "cross_references": [
    {
      "type": "name_match",
      "text": "benzene",
      "confidence": 1.0,
      "uuid": "b05124de-5f34-4c14-8f04-ccb20c3780d9",
      "name": "Benzene",
      "url": "https://haz-map.com/Agents/5",
      "category": "agents"
    },
    {
      "type": "name_match",
      "text": "aniline",
      "confidence": 1.0,
      "uuid": "e4932692-8d9c-4a98-8c5c-81e55b12aedf",
      "name": "Aniline",
      "url": "https://haz-map.com/Agents/296",
      "category": "agents"
    },
    {
      "type": "name_match",
      "text": "nitrosamines",
      "confidence": 1.0,
      "uuid": "71647706-f82f-4f7a-a1ad-2500c04c2ac0",
      "name": "NITROSAMINES",
      "url": "https://haz-map.com/Agents/767",
      "category": "agents"
    },
    {
      "type": "name_match",
      "text": "nitrogen",
      "confidence": 1.0,
      "uuid": "db5e90a9-06d2-45b9-8b81-f345a89b0bc0",
      "name": "Nitrogen",
      "url": "https://haz-map.com/Agents/1072",
      "category": "agents"
    },
    {
      "type": "name_match",
      "text": "benzylamine",
      "confidence": 1.0,
      "uuid": "e3ff102c-c372-46ae-ab9f-a1fd3d630249",
      "name": "Benzylamine",
      "url": "https://haz-map.com/Agents/1380",
      "category": "agents"
    },
    {
      "type": "name_match",
      "text": "n-nitrosophenylbenzylamine",
      "confidence": 1.0,
      "uuid": "a261c4d4-5c8a-48ee-9dd1-9768cc544c12",
      "name": "N-Nitrosophenylbenzylamine",
      "url": "https://haz-map.com/Agents/21348",
      "category": "agents"
    }
  ],
  "all_links": [
    {
      "text": "Search PubMed",
      "url": "https://www.ncbi.nlm.nih.gov/pubmed?term=N-Nitrosophenylbenzylamine%20AND%20human%5Bmh%5D%20AND%20%28Occupational%20Diseases%20%5Bmh%5D%20OR%20Occupational%20Exposure%20%5Bmh%5D%29%20%20AND%20%28tox%5Bsb%5D%29&cmd=search"
    }
  ]
}