{
  "metadata": {
    "scraped_from": "https://haz-map.com/Agents/19478",
    "entity_name": "2,4-Hexadiyne",
    "category": "agents",
    "uuid": "a27cec75-cda0-4249-b4fc-8b67a3285d7d",
    "scraped_at": "2025-07-23T22:06:56.805360"
  },
  "parsed_at": "2025-07-24T00:57:40.991120",
  "title": "2,4-Hexadiyne",
  "sections": {
    "general": {
      "agent_name": {
        "original_name": "Agent Name",
        "value": "2,4-Hexadiyne",
        "links": [],
        "cross_references": [
          {
            "type": "name_match",
            "text": "2,4-hexadiyne",
            "confidence": 1.0,
            "uuid": "a27cec75-cda0-4249-b4fc-8b67a3285d7d",
            "name": "2,4-Hexadiyne",
            "url": "https://haz-map.com/Agents/19478",
            "category": "agents"
          }
        ]
      },
      "cas_number": {
        "original_name": "CAS Number",
        "value": "2809-69-0",
        "links": [],
        "cross_references": []
      },
      "formula": {
        "original_name": "Formula",
        "value": "C6-H6",
        "links": [],
        "cross_references": []
      },
      "major_category": {
        "original_name": "Major Category",
        "value": "Other Classes",
        "links": [],
        "cross_references": []
      },
      "synonyms": {
        "original_name": "Synonyms",
        "value": "UN1325",
        "links": [],
        "cross_references": []
      },
      "category": {
        "original_name": "Category",
        "value": "Aliphatics, Unsaturated",
        "links": [],
        "cross_references": []
      },
      "description": {
        "original_name": "Description",
        "value": "Yellow-brown crystalline solid; [Alfa Aesar MSDS]",
        "links": [],
        "cross_references": [
          {
            "type": "fuzzy_match",
            "text": "crystalline",
            "matched_name": "Silica, crystalline",
            "confidence": 0.7061403508771931,
            "uuid": "f920e8a2-46df-41b7-af8d-0368a777251e",
            "category": "agents",
            "url": "https://haz-map.com/Agents/427"
          }
        ]
      },
      "comments": {
        "original_name": "Comments",
        "value": "An irritant; [Alfa Aesar MSDS] See \"Methylacetylene.\"",
        "links": [],
        "cross_references": [
          {
            "type": "name_match",
            "text": "acetylene",
            "confidence": 1.0,
            "uuid": "97b59022-d2fe-4fa2-a06d-8bb8f566165b",
            "name": "Acetylene",
            "url": "https://haz-map.com/Agents/19",
            "category": "agents"
          },
          {
            "type": "name_match",
            "text": "methylacetylene",
            "confidence": 1.0,
            "uuid": "bc08c161-20d4-4444-880e-d8ccf882ed24",
            "name": "Methylacetylene",
            "url": "https://haz-map.com/Agents/547",
            "category": "agents"
          }
        ]
      },
      "biomedical_references": {
        "original_name": "Biomedical References",
        "value": "Search PubMed",
        "links": [
          {
            "text": "Search PubMed",
            "url": "https://www.ncbi.nlm.nih.gov/pubmed?term=2%2c4-Hexadiyne%20AND%20human%5Bmh%5D%20AND%20%28Occupational%20Diseases%20%5Bmh%5D%20OR%20Occupational%20Exposure%20%5Bmh%5D%29%20%20AND%20%28tox%5Bsb%5D%29&cmd=search"
          }
        ],
        "cross_references": []
      }
    },
    "exposure_assessment": {
      "vapor_pressure": {
        "original_name": "Vapor Pressure",
        "value": "32.5 mm Hg",
        "links": [],
        "cross_references": []
      },
      "explanatory_notes": {
        "original_name": "Explanatory Notes",
        "value": "The Guide in the Emergency Response Guidebook is for \"Flammable solid, organic, n.o.s.\"",
        "links": [],
        "cross_references": []
      }
    },
    "diseases_processes_and_activities_linked_to_this_agent": {
      "other_information": {
        "original_name": "Other Information",
        "value": "No other related information on this agent was found.",
        "links": [],
        "cross_references": []
      }
    }
  },
  "cross_references": [
    {
      "type": "name_match",
      "text": "acetylene",
      "confidence": 1.0,
      "uuid": "97b59022-d2fe-4fa2-a06d-8bb8f566165b",
      "name": "Acetylene",
      "url": "https://haz-map.com/Agents/19",
      "category": "agents"
    },
    {
      "type": "name_match",
      "text": "methylacetylene",
      "confidence": 1.0,
      "uuid": "bc08c161-20d4-4444-880e-d8ccf882ed24",
      "name": "Methylacetylene",
      "url": "https://haz-map.com/Agents/547",
      "category": "agents"
    },
    {
      "type": "name_match",
      "text": "2,4-hexadiyne",
      "confidence": 1.0,
      "uuid": "a27cec75-cda0-4249-b4fc-8b67a3285d7d",
      "name": "2,4-Hexadiyne",
      "url": "https://haz-map.com/Agents/19478",
      "category": "agents"
    },
    {
      "type": "fuzzy_match",
      "text": "crystalline",
      "matched_name": "Silica, crystalline",
      "confidence": 0.7061403508771931,
      "uuid": "f920e8a2-46df-41b7-af8d-0368a777251e",
      "category": "agents",
      "url": "https://haz-map.com/Agents/427"
    }
  ],
  "all_links": [
    {
      "text": "Search PubMed",
      "url": "https://www.ncbi.nlm.nih.gov/pubmed?term=2%2c4-Hexadiyne%20AND%20human%5Bmh%5D%20AND%20%28Occupational%20Diseases%20%5Bmh%5D%20OR%20Occupational%20Exposure%20%5Bmh%5D%29%20%20AND%20%28tox%5Bsb%5D%29&cmd=search"
    }
  ]
}