{
  "metadata": {
    "scraped_from": "https://haz-map.com/Agents/6557",
    "entity_name": "Dienochlor",
    "category": "agents",
    "uuid": "a2cc648d-c1c0-409a-a73d-bedc56af3513",
    "scraped_at": "2025-07-23T20:03:02.899036"
  },
  "parsed_at": "2025-07-24T01:10:11.125570",
  "title": "Dienochlor",
  "sections": {
    "general": {
      "agent_name": {
        "original_name": "Agent Name",
        "value": "Dienochlor",
        "links": [],
        "cross_references": [
          {
            "type": "name_match",
            "text": "dienochlor",
            "confidence": 1.0,
            "uuid": "a2cc648d-c1c0-409a-a73d-bedc56af3513",
            "name": "Dienochlor",
            "url": "https://haz-map.com/Agents/6557",
            "category": "agents"
          }
        ]
      },
      "alternative_name": {
        "original_name": "Alternative Name",
        "value": "Pentac",
        "links": [],
        "cross_references": []
      },
      "cas_number": {
        "original_name": "CAS Number",
        "value": "2227-17-0",
        "links": [],
        "cross_references": []
      },
      "formula": {
        "original_name": "Formula",
        "value": "C10-Cl10",
        "links": [],
        "cross_references": []
      },
      "major_category": {
        "original_name": "Major Category",
        "value": "Pesticides",
        "links": [],
        "cross_references": []
      },
      "synonyms": {
        "original_name": "Synonyms",
        "value": "Pentac; 1,1',2,2',3,3',4,4',5,5'-Decachlorobi-2,4-cyclopentadien-1-yl; Bi-2,4-cyclopentadien-1-yl, 1,1',2,2',3,3',4,4',5,5'-decachloro-; Bi-2,4-cyclopentadien-1-yl, decachloro-; Bis(pentachlor-2,4-cyclopentadien-1-yl); Bis(pentachloro-2,4-cyclopentadien-1-yl); Bis(pentachlorocyclopentadienyl); Decachlor; Decachlorobi-2,4-cyclopentadien-1-yl; Decachlorobi-2,4-cyclopentadiene-1-yl; Decachlorobis(2,4-cyclopentadien-1-yl); Decachlorobis(2,4-cyclopentadiene-1-yl); Dienochlore [ISO-French]; ENT 25,718; HRS 1654; HRS 16A; HRS-16; Hooker HRS 1654; Hooker HRS-16; Pentac (50WP); Pentac SP; Pentac WP; Perchloro-1,1'-bicyclopenta-2,4-diene; Perchloro-1,1'-bicyclopenta-2,4-dienyl; [ChemIDplus]",
        "links": [],
        "cross_references": [
          {
            "type": "name_match",
            "text": "cyclopentadiene",
            "confidence": 1.0,
            "uuid": "3fb97872-2d6d-487b-ad8d-7fd5aa57fef5",
            "name": "Cyclopentadiene",
            "url": "https://haz-map.com/Agents/386",
            "category": "agents"
          },
          {
            "type": "name_match",
            "text": "2,4-d",
            "confidence": 1.0,
            "uuid": "bed35f54-2d93-4ffd-a3ee-723ab365faf1",
            "name": "2,4-D",
            "url": "https://haz-map.com/Agents/389",
            "category": "agents"
          },
          {
            "type": "name_match",
            "text": "dienochlor",
            "confidence": 1.0,
            "uuid": "a2cc648d-c1c0-409a-a73d-bedc56af3513",
            "name": "Dienochlor",
            "url": "https://haz-map.com/Agents/6557",
            "category": "agents"
          }
        ]
      },
      "category": {
        "original_name": "Category",
        "value": "Organochlorine Pesticides",
        "links": [],
        "cross_references": [
          {
            "type": "name_match",
            "text": "chlorine",
            "confidence": 1.0,
            "uuid": "8a67a545-61fb-4d71-865e-ff2725a0b999",
            "name": "Chlorine",
            "url": "https://haz-map.com/Agents/89",
            "category": "agents"
          },
          {
            "type": "name_match",
            "text": "chlorin",
            "confidence": 1.0,
            "uuid": "4a566fec-ec7e-42b0-9f14-ec586335e694",
            "name": "Chlorin",
            "url": "https://haz-map.com/Agents/20422",
            "category": "agents"
          }
        ]
      },
      "description": {
        "original_name": "Description",
        "value": "Tan or yellow solid; [HSDB] Tan crystalline solid; [MSDSonline]",
        "links": [],
        "cross_references": [
          {
            "type": "fuzzy_match",
            "text": "crystalline",
            "matched_name": "Silica, crystalline",
            "confidence": 0.7061403508771931,
            "uuid": "f920e8a2-46df-41b7-af8d-0368a777251e",
            "category": "agents",
            "url": "https://haz-map.com/Agents/427"
          }
        ]
      },
      "sourcesuses": {
        "original_name": "Sources/Uses",
        "value": "Used as acaricide for greenhouses and ornamentals; [HSDB]",
        "links": [],
        "cross_references": []
      },
      "comments": {
        "original_name": "Comments",
        "value": "A mild eye irritant; [HSDB] An irritant; [MSDSonline]",
        "links": [],
        "cross_references": []
      },
      "restricted": {
        "original_name": "Restricted",
        "value": "No longer registered as a pesticide for use in the US; [HSDB]",
        "links": [],
        "cross_references": []
      },
      "biomedical_references": {
        "original_name": "Biomedical References",
        "value": "Search PubMed",
        "links": [
          {
            "text": "Search PubMed",
            "url": "https://www.ncbi.nlm.nih.gov/pubmed?term=Dienochlor%20AND%20human%5Bmh%5D%20AND%20%28Occupational%20Diseases%20%5Bmh%5D%20OR%20Occupational%20Exposure%20%5Bmh%5D%29%20%20AND%20%28tox%5Bsb%5D%29&cmd=search"
          }
        ],
        "cross_references": []
      }
    },
    "exposure_assessment": {
      "vapor_pressure": {
        "original_name": "Vapor Pressure",
        "value": "2.18E-06 mm Hg",
        "links": [],
        "cross_references": []
      },
      "lethal_concentration": {
        "original_name": "Lethal Concentration",
        "value": "LCLo (rat) = 425 mg/m3/4h",
        "links": [],
        "cross_references": []
      }
    },
    "adverse_effects": {
      "other_poison": {
        "original_name": "Other Poison",
        "value": "Organochlorine",
        "links": [],
        "cross_references": [
          {
            "type": "name_match",
            "text": "chlorine",
            "confidence": 1.0,
            "uuid": "8a67a545-61fb-4d71-865e-ff2725a0b999",
            "name": "Chlorine",
            "url": "https://haz-map.com/Agents/89",
            "category": "agents"
          },
          {
            "type": "name_match",
            "text": "chlorin",
            "confidence": 1.0,
            "uuid": "4a566fec-ec7e-42b0-9f14-ec586335e694",
            "name": "Chlorin",
            "url": "https://haz-map.com/Agents/20422",
            "category": "agents"
          }
        ]
      }
    },
    "diseases_processes_and_activities_linked_to_this_agent": {
      "diseases": {
        "original_name": "Diseases",
        "value": "Occupational diseases associated with exposure to this agent: Organochlorine insecticides, acute poisoning",
        "links": [
          {
            "text": "Organochlorine insecticides, acute poisoning",
            "url": "https://haz-map.com/Diseases/165"
          }
        ],
        "cross_references": [
          {
            "type": "url_match",
            "text": "Organochlorine insecticides, acute poisoning",
            "url": "https://haz-map.com/Diseases/165",
            "confidence": 1.0,
            "uuid": "45193447-c4e4-4c0d-9be3-1adb006864c3",
            "name": "Organochlorine insecticides, acute poisoning",
            "category": "diseases"
          },
          {
            "type": "name_match",
            "text": "chlorine",
            "confidence": 1.0,
            "uuid": "8a67a545-61fb-4d71-865e-ff2725a0b999",
            "name": "Chlorine",
            "url": "https://haz-map.com/Agents/89",
            "category": "agents"
          },
          {
            "type": "name_match",
            "text": "chlorin",
            "confidence": 1.0,
            "uuid": "4a566fec-ec7e-42b0-9f14-ec586335e694",
            "name": "Chlorin",
            "url": "https://haz-map.com/Agents/20422",
            "category": "agents"
          }
        ]
      },
      "processes": {
        "original_name": "Processes",
        "value": "Industrial Processes with risk of exposure: Farming (Pesticides)",
        "links": [
          {
            "text": "Farming (Pesticides)",
            "url": "https://haz-map.com/Processes/218"
          }
        ],
        "cross_references": [
          {
            "type": "url_match",
            "text": "Farming (Pesticides)",
            "url": "https://haz-map.com/Processes/218",
            "confidence": 1.0,
            "uuid": "cf1e5815-c9bb-4917-82a5-391848170b7e",
            "name": "Farming (Pesticides)",
            "category": "processes"
          }
        ]
      }
    }
  },
  "cross_references": [
    {
      "type": "url_match",
      "text": "Organochlorine insecticides, acute poisoning",
      "url": "https://haz-map.com/Diseases/165",
      "confidence": 1.0,
      "uuid": "45193447-c4e4-4c0d-9be3-1adb006864c3",
      "name": "Organochlorine insecticides, acute poisoning",
      "category": "diseases"
    },
    {
      "type": "url_match",
      "text": "Farming (Pesticides)",
      "url": "https://haz-map.com/Processes/218",
      "confidence": 1.0,
      "uuid": "cf1e5815-c9bb-4917-82a5-391848170b7e",
      "name": "Farming (Pesticides)",
      "category": "processes"
    },
    {
      "type": "name_match",
      "text": "chlorine",
      "confidence": 1.0,
      "uuid": "8a67a545-61fb-4d71-865e-ff2725a0b999",
      "name": "Chlorine",
      "url": "https://haz-map.com/Agents/89",
      "category": "agents"
    },
    {
      "type": "name_match",
      "text": "cyclopentadiene",
      "confidence": 1.0,
      "uuid": "3fb97872-2d6d-487b-ad8d-7fd5aa57fef5",
      "name": "Cyclopentadiene",
      "url": "https://haz-map.com/Agents/386",
      "category": "agents"
    },
    {
      "type": "name_match",
      "text": "2,4-d",
      "confidence": 1.0,
      "uuid": "bed35f54-2d93-4ffd-a3ee-723ab365faf1",
      "name": "2,4-D",
      "url": "https://haz-map.com/Agents/389",
      "category": "agents"
    },
    {
      "type": "name_match",
      "text": "dienochlor",
      "confidence": 1.0,
      "uuid": "a2cc648d-c1c0-409a-a73d-bedc56af3513",
      "name": "Dienochlor",
      "url": "https://haz-map.com/Agents/6557",
      "category": "agents"
    },
    {
      "type": "name_match",
      "text": "chlorin",
      "confidence": 1.0,
      "uuid": "4a566fec-ec7e-42b0-9f14-ec586335e694",
      "name": "Chlorin",
      "url": "https://haz-map.com/Agents/20422",
      "category": "agents"
    },
    {
      "type": "fuzzy_match",
      "text": "crystalline",
      "matched_name": "Silica, crystalline",
      "confidence": 0.7061403508771931,
      "uuid": "f920e8a2-46df-41b7-af8d-0368a777251e",
      "category": "agents",
      "url": "https://haz-map.com/Agents/427"
    }
  ],
  "all_links": [
    {
      "text": "Search PubMed",
      "url": "https://www.ncbi.nlm.nih.gov/pubmed?term=Dienochlor%20AND%20human%5Bmh%5D%20AND%20%28Occupational%20Diseases%20%5Bmh%5D%20OR%20Occupational%20Exposure%20%5Bmh%5D%29%20%20AND%20%28tox%5Bsb%5D%29&cmd=search"
    },
    {
      "text": "Organochlorine insecticides, acute poisoning",
      "url": "https://haz-map.com/Diseases/165"
    },
    {
      "text": "Farming (Pesticides)",
      "url": "https://haz-map.com/Processes/218"
    }
  ]
}