{
  "metadata": {
    "scraped_from": "https://haz-map.com/Agents/16357",
    "entity_name": "p-Aminoacetanilide",
    "category": "agents",
    "uuid": "a2f52729-e946-4c85-a053-b7510e43d2fc",
    "scraped_at": "2025-07-23T21:36:46.081243"
  },
  "parsed_at": "2025-07-24T01:00:26.565710",
  "title": "p-Aminoacetanilide",
  "sections": {
    "general": {
      "agent_name": {
        "original_name": "Agent Name",
        "value": "p-Aminoacetanilide",
        "links": [],
        "cross_references": [
          {
            "type": "name_match",
            "text": "acetanilide",
            "confidence": 1.0,
            "uuid": "73a5c68d-8466-44fa-a773-12d44f7b1458",
            "name": "Acetanilide",
            "url": "https://haz-map.com/Agents/3390",
            "category": "agents"
          },
          {
            "type": "name_match",
            "text": "p-aminoacetanilide",
            "confidence": 1.0,
            "uuid": "a2f52729-e946-4c85-a053-b7510e43d2fc",
            "name": "p-Aminoacetanilide",
            "url": "https://haz-map.com/Agents/16357",
            "category": "agents"
          }
        ]
      },
      "cas_number": {
        "original_name": "CAS Number",
        "value": "122-80-5",
        "links": [],
        "cross_references": []
      },
      "formula": {
        "original_name": "Formula",
        "value": "C8-H10-N2-O",
        "links": [],
        "cross_references": []
      },
      "major_category": {
        "original_name": "Major Category",
        "value": "Nitrogen Compounds",
        "links": [],
        "cross_references": [
          {
            "type": "name_match",
            "text": "nitrogen",
            "confidence": 1.0,
            "uuid": "db5e90a9-06d2-45b9-8b81-f345a89b0bc0",
            "name": "Nitrogen",
            "url": "https://haz-map.com/Agents/1072",
            "category": "agents"
          }
        ]
      },
      "synonyms": {
        "original_name": "Synonyms",
        "value": "1-Amino-4-(acetylamino)benzene; 4'-Aminoacetanilid [Czech]; 4'-Aminoacetanilide; 4-(Acetylamino)aniline; 4-Acetamidoaniline; 4-Aminoacetanilide; Acetparamin; Acetyl-p-phenylenediamine; C.I. 76005; C.I. Oxidation Base 19; Fourrine 88; Fourrine A; N-(4-Aminophenyl)acetamide; N-(p-Aminophenyl)acetamide; N-Acetyl-p-fenylendiamin [Czech]; N-Acetyl-p-phenylenediamine; p-(Acetylamino)aniline; p-Acetamidoaniline; p-Acetoaminoaniline; p-Aminoacetanilide; Acetamide, N-(4-aminophenyl)-; Acetanilide, 4'-amino-; [ChemIDplus] 4-Acetoamidoaniline; N-Acetyl-1,4-benzenediamine; N-Acetyl-1,4-diaminobenzene; N-Acetyl-1,4-phenylenediamine; Paracetamin; [CAMEO]",
        "links": [],
        "cross_references": [
          {
            "type": "name_match",
            "text": "benzene",
            "confidence": 1.0,
            "uuid": "b05124de-5f34-4c14-8f04-ccb20c3780d9",
            "name": "Benzene",
            "url": "https://haz-map.com/Agents/5",
            "category": "agents"
          },
          {
            "type": "name_match",
            "text": "p-phenylenediamine",
            "confidence": 1.0,
            "uuid": "6eea604e-32b5-4d94-9c0d-591b37a6c204",
            "name": "p-Phenylenediamine",
            "url": "https://haz-map.com/Agents/229",
            "category": "agents"
          },
          {
            "type": "name_match",
            "text": "aniline",
            "confidence": 1.0,
            "uuid": "e4932692-8d9c-4a98-8c5c-81e55b12aedf",
            "name": "Aniline",
            "url": "https://haz-map.com/Agents/296",
            "category": "agents"
          },
          {
            "type": "name_match",
            "text": "ramin",
            "confidence": 1.0,
            "uuid": "f0fbb433-5eef-4a70-a208-66cc45df5768",
            "name": "Ramin",
            "url": "https://haz-map.com/Agents/962",
            "category": "agents"
          },
          {
            "type": "name_match",
            "text": "acetamide",
            "confidence": 1.0,
            "uuid": "dd8ffc77-2f5f-4c87-8995-3206d6c9affc",
            "name": "Acetamide",
            "url": "https://haz-map.com/Agents/3385",
            "category": "agents"
          },
          {
            "type": "name_match",
            "text": "acetanilide",
            "confidence": 1.0,
            "uuid": "73a5c68d-8466-44fa-a773-12d44f7b1458",
            "name": "Acetanilide",
            "url": "https://haz-map.com/Agents/3390",
            "category": "agents"
          },
          {
            "type": "name_match",
            "text": "p-aminoacetanilide",
            "confidence": 1.0,
            "uuid": "a2f52729-e946-4c85-a053-b7510e43d2fc",
            "name": "p-Aminoacetanilide",
            "url": "https://haz-map.com/Agents/16357",
            "category": "agents"
          }
        ]
      },
      "category": {
        "original_name": "Category",
        "value": "Other Aromatics (Nitrogen)",
        "links": [],
        "cross_references": [
          {
            "type": "name_match",
            "text": "nitrogen",
            "confidence": 1.0,
            "uuid": "db5e90a9-06d2-45b9-8b81-f345a89b0bc0",
            "name": "Nitrogen",
            "url": "https://haz-map.com/Agents/1072",
            "category": "agents"
          }
        ]
      },
      "description": {
        "original_name": "Description",
        "value": "White or slightly reddish solid; Darkened by air; [Merck Index] Brown solid; [Acros Organics MSDS]",
        "links": [],
        "cross_references": [
          {
            "type": "name_match",
            "text": "ht",
            "confidence": 1.0,
            "uuid": "764df367-8d53-4a11-81a2-31ccfe122a8d",
            "name": "HT",
            "url": "https://haz-map.com/Agents/2168",
            "category": "agents"
          }
        ]
      },
      "sourcesuses": {
        "original_name": "Sources/Uses",
        "value": "Used to make azo dyes and pharmaceuticals; [Merck Index]",
        "links": [],
        "cross_references": [
          {
            "type": "name_match",
            "text": "pharmaceuticals",
            "confidence": 1.0,
            "uuid": "713c3c30-b67e-4a2f-a90f-b32f8a306332",
            "name": "PHARMACEUTICALS",
            "url": "https://haz-map.com/Agents/1000",
            "category": "agents"
          }
        ]
      },
      "comments": {
        "original_name": "Comments",
        "value": "A moderate eye irritant; [RTECS] May cause skin, eye, and mucous membrane irritation; [NTP] An eye irritant; [Acros Organics MSDS] See \"p-Chloroacetanilide.\"",
        "links": [],
        "cross_references": [
          {
            "type": "name_match",
            "text": "acetanilide",
            "confidence": 1.0,
            "uuid": "73a5c68d-8466-44fa-a773-12d44f7b1458",
            "name": "Acetanilide",
            "url": "https://haz-map.com/Agents/3390",
            "category": "agents"
          },
          {
            "type": "name_match",
            "text": "p-chloroacetanilide",
            "confidence": 1.0,
            "uuid": "6b152cdb-a077-467d-a9d9-404d8e02fef9",
            "name": "p-Chloroacetanilide",
            "url": "https://haz-map.com/Agents/6502",
            "category": "agents"
          }
        ]
      },
      "biomedical_references": {
        "original_name": "Biomedical References",
        "value": "Search PubMed",
        "links": [
          {
            "text": "Search PubMed",
            "url": "https://www.ncbi.nlm.nih.gov/pubmed?term=p-Aminoacetanilide%20AND%20human%5Bmh%5D%20AND%20%28Occupational%20Diseases%20%5Bmh%5D%20OR%20Occupational%20Exposure%20%5Bmh%5D%29%20%20AND%20%28tox%5Bsb%5D%29&cmd=search"
          }
        ],
        "cross_references": []
      }
    },
    "exposure_assessment": {
      "vapor_pressure": {
        "original_name": "Vapor Pressure",
        "value": "1.34E-05 mm Hg",
        "links": [],
        "cross_references": []
      }
    },
    "diseases_processes_and_activities_linked_to_this_agent": {
      "other_information": {
        "original_name": "Other Information",
        "value": "No other related information on this agent was found.",
        "links": [],
        "cross_references": []
      }
    }
  },
  "cross_references": [
    {
      "type": "name_match",
      "text": "benzene",
      "confidence": 1.0,
      "uuid": "b05124de-5f34-4c14-8f04-ccb20c3780d9",
      "name": "Benzene",
      "url": "https://haz-map.com/Agents/5",
      "category": "agents"
    },
    {
      "type": "name_match",
      "text": "p-phenylenediamine",
      "confidence": 1.0,
      "uuid": "6eea604e-32b5-4d94-9c0d-591b37a6c204",
      "name": "p-Phenylenediamine",
      "url": "https://haz-map.com/Agents/229",
      "category": "agents"
    },
    {
      "type": "name_match",
      "text": "aniline",
      "confidence": 1.0,
      "uuid": "e4932692-8d9c-4a98-8c5c-81e55b12aedf",
      "name": "Aniline",
      "url": "https://haz-map.com/Agents/296",
      "category": "agents"
    },
    {
      "type": "name_match",
      "text": "ramin",
      "confidence": 1.0,
      "uuid": "f0fbb433-5eef-4a70-a208-66cc45df5768",
      "name": "Ramin",
      "url": "https://haz-map.com/Agents/962",
      "category": "agents"
    },
    {
      "type": "name_match",
      "text": "pharmaceuticals",
      "confidence": 1.0,
      "uuid": "713c3c30-b67e-4a2f-a90f-b32f8a306332",
      "name": "PHARMACEUTICALS",
      "url": "https://haz-map.com/Agents/1000",
      "category": "agents"
    },
    {
      "type": "name_match",
      "text": "nitrogen",
      "confidence": 1.0,
      "uuid": "db5e90a9-06d2-45b9-8b81-f345a89b0bc0",
      "name": "Nitrogen",
      "url": "https://haz-map.com/Agents/1072",
      "category": "agents"
    },
    {
      "type": "name_match",
      "text": "ht",
      "confidence": 1.0,
      "uuid": "764df367-8d53-4a11-81a2-31ccfe122a8d",
      "name": "HT",
      "url": "https://haz-map.com/Agents/2168",
      "category": "agents"
    },
    {
      "type": "name_match",
      "text": "acetamide",
      "confidence": 1.0,
      "uuid": "dd8ffc77-2f5f-4c87-8995-3206d6c9affc",
      "name": "Acetamide",
      "url": "https://haz-map.com/Agents/3385",
      "category": "agents"
    },
    {
      "type": "name_match",
      "text": "acetanilide",
      "confidence": 1.0,
      "uuid": "73a5c68d-8466-44fa-a773-12d44f7b1458",
      "name": "Acetanilide",
      "url": "https://haz-map.com/Agents/3390",
      "category": "agents"
    },
    {
      "type": "name_match",
      "text": "p-chloroacetanilide",
      "confidence": 1.0,
      "uuid": "6b152cdb-a077-467d-a9d9-404d8e02fef9",
      "name": "p-Chloroacetanilide",
      "url": "https://haz-map.com/Agents/6502",
      "category": "agents"
    },
    {
      "type": "name_match",
      "text": "p-aminoacetanilide",
      "confidence": 1.0,
      "uuid": "a2f52729-e946-4c85-a053-b7510e43d2fc",
      "name": "p-Aminoacetanilide",
      "url": "https://haz-map.com/Agents/16357",
      "category": "agents"
    }
  ],
  "all_links": [
    {
      "text": "Search PubMed",
      "url": "https://www.ncbi.nlm.nih.gov/pubmed?term=p-Aminoacetanilide%20AND%20human%5Bmh%5D%20AND%20%28Occupational%20Diseases%20%5Bmh%5D%20OR%20Occupational%20Exposure%20%5Bmh%5D%29%20%20AND%20%28tox%5Bsb%5D%29&cmd=search"
    }
  ]
}