{
  "metadata": {
    "scraped_from": "https://haz-map.com/Agents/7734",
    "entity_name": "2-Chloroethyl vinyl ether",
    "category": "agents",
    "uuid": "a314d0be-0d41-46b5-b58e-da6c383628b8",
    "scraped_at": "2025-07-23T20:16:08.068731"
  },
  "parsed_at": "2025-07-24T01:07:02.269735",
  "title": "2-Chloroethyl vinyl ether",
  "sections": {
    "general": {
      "agent_name": {
        "original_name": "Agent Name",
        "value": "2-Chloroethyl vinyl ether",
        "links": [],
        "cross_references": [
          {
            "type": "name_match",
            "text": "2-chloroethyl vinyl ether",
            "confidence": 1.0,
            "uuid": "a314d0be-0d41-46b5-b58e-da6c383628b8",
            "name": "2-Chloroethyl vinyl ether",
            "url": "https://haz-map.com/Agents/7734",
            "category": "agents"
          },
          {
            "type": "name_match",
            "text": "ethyl vinyl ether",
            "confidence": 1.0,
            "uuid": "d7eab654-c0bd-41c4-ade7-7fb1ef137bbb",
            "name": "Ethyl vinyl ether",
            "url": "https://haz-map.com/Agents/20878",
            "category": "agents"
          }
        ]
      },
      "cas_number": {
        "original_name": "CAS Number",
        "value": "110-75-8",
        "links": [],
        "cross_references": []
      },
      "formula": {
        "original_name": "Formula",
        "value": "C4-H7-Cl-O",
        "links": [],
        "cross_references": []
      },
      "major_category": {
        "original_name": "Major Category",
        "value": "Other Classes",
        "links": [],
        "cross_references": []
      },
      "synonyms": {
        "original_name": "Synonyms",
        "value": "(2-Chloroethoxy)ethene; 2-Chlorethyl vinyl ether; 2-Vinyloxyethyl chloride; Ethene, 2-chloroethoxy-; Ether, 2-chlorethyl vinyl; Vinyl 2-chloroethyl ether; Vinyl beta-chloroethyl ether; beta-Chloroethyl vinyl ether; Ethene, (2-chloroethoxy)-; [ChemIDplus] UN1992",
        "links": [],
        "cross_references": [
          {
            "type": "name_match",
            "text": "ethyl chloride",
            "confidence": 1.0,
            "uuid": "5beffaec-7903-4a06-87c6-d5a754bd0575",
            "name": "Ethyl chloride",
            "url": "https://haz-map.com/Agents/59",
            "category": "agents"
          },
          {
            "type": "name_match",
            "text": "ethyl ether",
            "confidence": 1.0,
            "uuid": "c95edddc-9ad3-44f8-bafa-78e0bd19db3a",
            "name": "Ethyl ether",
            "url": "https://haz-map.com/Agents/455",
            "category": "agents"
          },
          {
            "type": "name_match",
            "text": "ethyl vinyl ether",
            "confidence": 1.0,
            "uuid": "d7eab654-c0bd-41c4-ade7-7fb1ef137bbb",
            "name": "Ethyl vinyl ether",
            "url": "https://haz-map.com/Agents/20878",
            "category": "agents"
          }
        ]
      },
      "category": {
        "original_name": "Category",
        "value": "Halogenated Ethers",
        "links": [],
        "cross_references": []
      },
      "description": {
        "original_name": "Description",
        "value": "Colorless liquid; [HSDB] Clear yellow liquid; [MSDSonline]",
        "links": [],
        "cross_references": []
      },
      "sourcesuses": {
        "original_name": "Sources/Uses",
        "value": "Used to make anesthetics, sedatives, cellulose ethers and esters, polymers, copolymers, and acrylic elastomers; Also used as a plant regulator; [HSDB]",
        "links": [],
        "cross_references": [
          {
            "type": "name_match",
            "text": "cellulose",
            "confidence": 1.0,
            "uuid": "b9b1b190-806c-4622-8201-8f09b0a87eca",
            "name": "Cellulose",
            "url": "https://haz-map.com/Agents/347",
            "category": "agents"
          }
        ]
      },
      "comments": {
        "original_name": "Comments",
        "value": "May cause eye irritation; [HSDB] May polymerize; Readily forms unstable peroxides in air that may be pyrophoric; [CAMEO] An irritant; Targets kidneys and eyes; [MSDSonline]",
        "links": [],
        "cross_references": []
      },
      "biomedical_references": {
        "original_name": "Biomedical References",
        "value": "Search PubMed",
        "links": [
          {
            "text": "Search PubMed",
            "url": "https://www.ncbi.nlm.nih.gov/pubmed?term=2-Chloroethyl+vinyl+ether%20AND%20human%5Bmh%5D%20AND%20%28Occupational%20Diseases%20%5Bmh%5D%20OR%20Occupational%20Exposure%20%5Bmh%5D%29%20%20AND%20%28tox%5Bsb%5D%29&cmd=search"
          }
        ],
        "cross_references": []
      }
    },
    "exposure_assessment": {
      "vapor_pressure": {
        "original_name": "Vapor Pressure",
        "value": "26.8 mm Hg",
        "links": [],
        "cross_references": []
      },
      "lethal_concentration": {
        "original_name": "Lethal Concentration",
        "value": "LCLo (rat) = 250 ppm/4h",
        "links": [],
        "cross_references": []
      },
      "explanatory_notes": {
        "original_name": "Explanatory Notes",
        "value": "The Guide in the Emergency Response Guidebook is for \"Flammable liquid, toxic, n.o.s.\" VP from ChemIDplus;",
        "links": [],
        "cross_references": []
      },
      "nfpa": {
        "original_name": "NFPA",
        "value": "may ignite at ambient temp",
        "links": [],
        "cross_references": []
      }
    },
    "diseases_processes_and_activities_linked_to_this_agent": {
      "other_information": {
        "original_name": "Other Information",
        "value": "No other related information on this agent was found.",
        "links": [],
        "cross_references": []
      }
    }
  },
  "cross_references": [
    {
      "type": "name_match",
      "text": "ethyl chloride",
      "confidence": 1.0,
      "uuid": "5beffaec-7903-4a06-87c6-d5a754bd0575",
      "name": "Ethyl chloride",
      "url": "https://haz-map.com/Agents/59",
      "category": "agents"
    },
    {
      "type": "name_match",
      "text": "cellulose",
      "confidence": 1.0,
      "uuid": "b9b1b190-806c-4622-8201-8f09b0a87eca",
      "name": "Cellulose",
      "url": "https://haz-map.com/Agents/347",
      "category": "agents"
    },
    {
      "type": "name_match",
      "text": "ethyl ether",
      "confidence": 1.0,
      "uuid": "c95edddc-9ad3-44f8-bafa-78e0bd19db3a",
      "name": "Ethyl ether",
      "url": "https://haz-map.com/Agents/455",
      "category": "agents"
    },
    {
      "type": "name_match",
      "text": "2-chloroethyl vinyl ether",
      "confidence": 1.0,
      "uuid": "a314d0be-0d41-46b5-b58e-da6c383628b8",
      "name": "2-Chloroethyl vinyl ether",
      "url": "https://haz-map.com/Agents/7734",
      "category": "agents"
    },
    {
      "type": "name_match",
      "text": "ethyl vinyl ether",
      "confidence": 1.0,
      "uuid": "d7eab654-c0bd-41c4-ade7-7fb1ef137bbb",
      "name": "Ethyl vinyl ether",
      "url": "https://haz-map.com/Agents/20878",
      "category": "agents"
    }
  ],
  "all_links": [
    {
      "text": "Search PubMed",
      "url": "https://www.ncbi.nlm.nih.gov/pubmed?term=2-Chloroethyl+vinyl+ether%20AND%20human%5Bmh%5D%20AND%20%28Occupational%20Diseases%20%5Bmh%5D%20OR%20Occupational%20Exposure%20%5Bmh%5D%29%20%20AND%20%28tox%5Bsb%5D%29&cmd=search"
    }
  ]
}