{
  "metadata": {
    "scraped_from": "https://haz-map.com/Agents/17449",
    "entity_name": "Tetramethylammonium chloride",
    "category": "agents",
    "uuid": "a3264710-150a-4021-844c-2c6400e54214",
    "scraped_at": "2025-07-23T21:46:43.232068"
  },
  "parsed_at": "2025-07-24T01:07:20.968041",
  "title": "Tetramethylammonium chloride",
  "sections": {
    "general": {
      "agent_name": {
        "original_name": "Agent Name",
        "value": "Tetramethylammonium chloride",
        "links": [],
        "cross_references": [
          {
            "type": "name_match",
            "text": "tetramethylammonium chloride",
            "confidence": 1.0,
            "uuid": "a3264710-150a-4021-844c-2c6400e54214",
            "name": "Tetramethylammonium chloride",
            "url": "https://haz-map.com/Agents/17449",
            "category": "agents"
          },
          {
            "type": "name_match",
            "text": "tetramethylammonium",
            "confidence": 1.0,
            "uuid": "560baf62-5deb-44bb-958b-08c8e2d04191",
            "name": "Tetramethylammonium",
            "url": "https://haz-map.com/Agents/19854",
            "category": "agents"
          }
        ]
      },
      "cas_number": {
        "original_name": "CAS Number",
        "value": "75-57-0",
        "links": [],
        "cross_references": []
      },
      "formula": {
        "original_name": "Formula",
        "value": "C4-H12-N.Cl",
        "links": [],
        "cross_references": []
      },
      "major_category": {
        "original_name": "Major Category",
        "value": "Nitrogen Compounds",
        "links": [],
        "cross_references": [
          {
            "type": "name_match",
            "text": "nitrogen",
            "confidence": 1.0,
            "uuid": "db5e90a9-06d2-45b9-8b81-f345a89b0bc0",
            "name": "Nitrogen",
            "url": "https://haz-map.com/Agents/1072",
            "category": "agents"
          }
        ]
      },
      "synonyms": {
        "original_name": "Synonyms",
        "value": "Ammonium, tetramethyl-, chloride; Methanaminium, N,N,N-trimethyl-, chloride; N,N,N-Trimethylmethanaminium chloride; Tetramine chloride; [ChemIDplus] N,N,N-Trimethylmethanamium chloride; [ICSC] TMAC; [EPA - TSCATS] UN2811",
        "links": [],
        "cross_references": [
          {
            "type": "name_match",
            "text": "ramin",
            "confidence": 1.0,
            "uuid": "f0fbb433-5eef-4a70-a208-66cc45df5768",
            "name": "Ramin",
            "url": "https://haz-map.com/Agents/962",
            "category": "agents"
          }
        ]
      },
      "category": {
        "original_name": "Category",
        "value": "Quaternary Amines",
        "links": [],
        "cross_references": []
      },
      "description": {
        "original_name": "Description",
        "value": "White hygroscopic solid; [ICSC] White odorless powder; Hygroscopic; [Alfa Aesar MSDS]",
        "links": [],
        "cross_references": []
      },
      "sourcesuses": {
        "original_name": "Sources/Uses",
        "value": "Used as a clay stabilizer in hydraulic fracturing fluids, as a chemical intermediate, catalyst, and inhibitor; [HSDB]",
        "links": [],
        "cross_references": [
          {
            "type": "name_match",
            "text": "mica",
            "confidence": 1.0,
            "uuid": "433f26f1-c399-4596-b179-ce3843cfd465",
            "name": "Mica",
            "url": "https://haz-map.com/Agents/621",
            "category": "agents"
          }
        ]
      },
      "comments": {
        "original_name": "Comments",
        "value": "Causes somnolence and convulsions in oral lethal-dose studies of rats; [RTECS] A skin, eye, and respiratory tract irritant; May cause CNS effects; [ICSC] A skin and strong eye irritant; Toxic by ingestion; Harmful by skin absorption; [Alfa Aesar MSDS]",
        "links": [],
        "cross_references": [
          {
            "type": "name_match",
            "text": "convulsion",
            "confidence": 1.0,
            "uuid": "af2c36f8-707a-48e3-a62b-1aa07adc9b72",
            "name": "convulsion",
            "url": "https://haz-map.com/Findings/14",
            "category": "findings"
          }
        ]
      },
      "biomedical_references": {
        "original_name": "Biomedical References",
        "value": "Search PubMed",
        "links": [
          {
            "text": "Search PubMed",
            "url": "https://www.ncbi.nlm.nih.gov/pubmed?term=Tetramethylammonium+chloride%20AND%20human%5Bmh%5D%20AND%20%28Occupational%20Diseases%20%5Bmh%5D%20OR%20Occupational%20Exposure%20%5Bmh%5D%29%20%20AND%20%28tox%5Bsb%5D%29&cmd=search"
          }
        ],
        "cross_references": []
      }
    },
    "exposure_assessment": {
      "vapor_pressure": {
        "original_name": "Vapor Pressure",
        "value": "1.2E-08 mm Hg",
        "links": [],
        "cross_references": []
      },
      "explanatory_notes": {
        "original_name": "Explanatory Notes",
        "value": "The Guide in the Emergency Response Guidebook is for \"Toxic solid, organic, n.o.s.\"",
        "links": [],
        "cross_references": []
      }
    },
    "adverse_effects": {
      "neurotoxin": {
        "original_name": "Neurotoxin",
        "value": "Other CNS neurotoxin",
        "links": [],
        "cross_references": []
      }
    },
    "diseases_processes_and_activities_linked_to_this_agent": {
      "processes": {
        "original_name": "Processes",
        "value": "Industrial Processes with risk of exposure: Petroleum Production and Refining",
        "links": [
          {
            "text": "Petroleum Production and Refining",
            "url": "https://haz-map.com/Processes/75"
          }
        ],
        "cross_references": [
          {
            "type": "url_match",
            "text": "Petroleum Production and Refining",
            "url": "https://haz-map.com/Processes/75",
            "confidence": 1.0,
            "uuid": "e2003948-ad28-44a5-85f6-2e3391da8917",
            "name": "Petroleum Production and Refining",
            "category": "processes"
          },
          {
            "type": "name_match",
            "text": "oleum",
            "confidence": 1.0,
            "uuid": "12af84ee-bcf0-416d-9220-7c4c6dc330f1",
            "name": "Oleum",
            "url": "https://haz-map.com/Agents/2227",
            "category": "agents"
          }
        ]
      }
    }
  },
  "cross_references": [
    {
      "type": "url_match",
      "text": "Petroleum Production and Refining",
      "url": "https://haz-map.com/Processes/75",
      "confidence": 1.0,
      "uuid": "e2003948-ad28-44a5-85f6-2e3391da8917",
      "name": "Petroleum Production and Refining",
      "category": "processes"
    },
    {
      "type": "name_match",
      "text": "convulsion",
      "confidence": 1.0,
      "uuid": "af2c36f8-707a-48e3-a62b-1aa07adc9b72",
      "name": "convulsion",
      "url": "https://haz-map.com/Findings/14",
      "category": "findings"
    },
    {
      "type": "name_match",
      "text": "mica",
      "confidence": 1.0,
      "uuid": "433f26f1-c399-4596-b179-ce3843cfd465",
      "name": "Mica",
      "url": "https://haz-map.com/Agents/621",
      "category": "agents"
    },
    {
      "type": "name_match",
      "text": "ramin",
      "confidence": 1.0,
      "uuid": "f0fbb433-5eef-4a70-a208-66cc45df5768",
      "name": "Ramin",
      "url": "https://haz-map.com/Agents/962",
      "category": "agents"
    },
    {
      "type": "name_match",
      "text": "nitrogen",
      "confidence": 1.0,
      "uuid": "db5e90a9-06d2-45b9-8b81-f345a89b0bc0",
      "name": "Nitrogen",
      "url": "https://haz-map.com/Agents/1072",
      "category": "agents"
    },
    {
      "type": "name_match",
      "text": "oleum",
      "confidence": 1.0,
      "uuid": "12af84ee-bcf0-416d-9220-7c4c6dc330f1",
      "name": "Oleum",
      "url": "https://haz-map.com/Agents/2227",
      "category": "agents"
    },
    {
      "type": "name_match",
      "text": "tetramethylammonium chloride",
      "confidence": 1.0,
      "uuid": "a3264710-150a-4021-844c-2c6400e54214",
      "name": "Tetramethylammonium chloride",
      "url": "https://haz-map.com/Agents/17449",
      "category": "agents"
    },
    {
      "type": "name_match",
      "text": "tetramethylammonium",
      "confidence": 1.0,
      "uuid": "560baf62-5deb-44bb-958b-08c8e2d04191",
      "name": "Tetramethylammonium",
      "url": "https://haz-map.com/Agents/19854",
      "category": "agents"
    }
  ],
  "all_links": [
    {
      "text": "Search PubMed",
      "url": "https://www.ncbi.nlm.nih.gov/pubmed?term=Tetramethylammonium+chloride%20AND%20human%5Bmh%5D%20AND%20%28Occupational%20Diseases%20%5Bmh%5D%20OR%20Occupational%20Exposure%20%5Bmh%5D%29%20%20AND%20%28tox%5Bsb%5D%29&cmd=search"
    },
    {
      "text": "Petroleum Production and Refining",
      "url": "https://haz-map.com/Processes/75"
    }
  ]
}