{
  "metadata": {
    "scraped_from": "https://haz-map.com/Agents/2666",
    "entity_name": "o-Xylyl bromide",
    "category": "agents",
    "uuid": "a3432577-37f0-4ce2-9df7-c71824b2c89e",
    "scraped_at": "2025-07-23T19:17:20.408760"
  },
  "parsed_at": "2025-07-24T01:15:13.742176",
  "title": "o-Xylyl bromide",
  "sections": {
    "general": {
      "agent_name": {
        "original_name": "Agent Name",
        "value": "o-Xylyl bromide",
        "links": [],
        "cross_references": [
          {
            "type": "name_match",
            "text": "o-xylyl bromide",
            "confidence": 1.0,
            "uuid": "a3432577-37f0-4ce2-9df7-c71824b2c89e",
            "name": "o-Xylyl bromide",
            "url": "https://haz-map.com/Agents/2666",
            "category": "agents"
          },
          {
            "type": "name_match",
            "text": "xylyl bromide",
            "confidence": 1.0,
            "uuid": "6c0752e3-7699-4627-80de-c65552473d73",
            "name": "Xylyl bromide",
            "url": "https://haz-map.com/Agents/2674",
            "category": "agents"
          }
        ]
      },
      "cas_number": {
        "original_name": "CAS Number",
        "value": "89-92-9",
        "links": [],
        "cross_references": []
      },
      "formula": {
        "original_name": "Formula",
        "value": "C8-H9-Br",
        "links": [],
        "cross_references": []
      },
      "major_category": {
        "original_name": "Major Category",
        "value": "Other Classes",
        "links": [],
        "cross_references": []
      },
      "synonyms": {
        "original_name": "Synonyms",
        "value": "1-(Bromomethyl)-2-methylbenzene; 2-(Bromomethyl)toluene; 2-Methylbenzyl bromide; 2-Xylyl bromide; Benzene, 1-(bromomethyl)-2-methyl-; alpha-Bromo-o-xylene; alpha-Bromo-ortho-xylene; o-Methylbenzyl bromide; o-Xylene, alpha-bromo-; [ChemIDplus]",
        "links": [],
        "cross_references": [
          {
            "type": "name_match",
            "text": "benzene",
            "confidence": 1.0,
            "uuid": "b05124de-5f34-4c14-8f04-ccb20c3780d9",
            "name": "Benzene",
            "url": "https://haz-map.com/Agents/5",
            "category": "agents"
          },
          {
            "type": "name_match",
            "text": "toluene",
            "confidence": 1.0,
            "uuid": "0a34d5de-e924-4c47-aff5-7ae8e48c6772",
            "name": "Toluene",
            "url": "https://haz-map.com/Agents/83",
            "category": "agents"
          },
          {
            "type": "name_match",
            "text": "benzyl bromide",
            "confidence": 1.0,
            "uuid": "23b5eb4a-392f-4063-b325-5a6b411fcd4e",
            "name": "Benzyl bromide",
            "url": "https://haz-map.com/Agents/2646",
            "category": "agents"
          },
          {
            "type": "name_match",
            "text": "xylyl bromide",
            "confidence": 1.0,
            "uuid": "6c0752e3-7699-4627-80de-c65552473d73",
            "name": "Xylyl bromide",
            "url": "https://haz-map.com/Agents/2674",
            "category": "agents"
          }
        ]
      },
      "category": {
        "original_name": "Category",
        "value": "Halogenated Monoaromatics",
        "links": [],
        "cross_references": []
      },
      "description": {
        "original_name": "Description",
        "value": "Prisms; [Merck Index] Colorless liquid with melting point of 18-20 deg C; [MSDSonline]",
        "links": [],
        "cross_references": []
      },
      "sourcesuses": {
        "original_name": "Sources/Uses",
        "value": "Used in organic synthesis and as a military tear gas; [Merck Index]",
        "links": [],
        "cross_references": [
          {
            "type": "name_match",
            "text": "tea",
            "confidence": 1.0,
            "uuid": "773409e5-ac1a-4c9e-9470-9667ca82091c",
            "name": "Tea",
            "url": "https://haz-map.com/Agents/878",
            "category": "agents"
          }
        ]
      },
      "comments": {
        "original_name": "Comments",
        "value": "Powerful lachrymator; [Merck Index] Toxic by inhalation and ingestion; A strong irritant; [Hawley] Toxic by inhalation; Causes burns; May cause pneumonitis and pulmonary edema after inhalation of high concentrations; [MSDSonline]",
        "links": [],
        "cross_references": [
          {
            "type": "name_match",
            "text": "pulmonary edema",
            "confidence": 1.0,
            "uuid": "ee39114e-c922-40fd-9588-a532de404962",
            "name": "pulmonary edema",
            "url": "https://haz-map.com/Findings/186",
            "category": "findings"
          },
          {
            "type": "name_match",
            "text": "burn",
            "confidence": 1.0,
            "uuid": "63665de5-6376-4918-8dbf-4c10c4d63837",
            "name": "burn",
            "url": "https://haz-map.com/Findings/204",
            "category": "findings"
          }
        ]
      },
      "biomedical_references": {
        "original_name": "Biomedical References",
        "value": "Search PubMed",
        "links": [
          {
            "text": "Search PubMed",
            "url": "https://www.ncbi.nlm.nih.gov/pubmed?term=o-Xylyl+bromide%20AND%20human%5Bmh%5D%20AND%20%28Occupational%20Diseases%20%5Bmh%5D%20OR%20Occupational%20Exposure%20%5Bmh%5D%29%20%20AND%20%28tox%5Bsb%5D%29&cmd=search"
          }
        ],
        "cross_references": []
      }
    },
    "exposure_assessment": {
      "vapor_pressure": {
        "original_name": "Vapor Pressure",
        "value": "0.153 mm Hg",
        "links": [],
        "cross_references": []
      },
      "explanatory_notes": {
        "original_name": "Explanatory Notes",
        "value": "VP from ChemIDplus;",
        "links": [],
        "cross_references": []
      }
    },
    "adverse_effects": {
      "lachrymator": {
        "original_name": "Lachrymator",
        "value": "Yes",
        "links": [],
        "cross_references": []
      },
      "toxic_pneumonitis": {
        "original_name": "Toxic Pneumonitis",
        "value": "Yes",
        "links": [],
        "cross_references": []
      },
      "dermatotoxin": {
        "original_name": "Dermatotoxin",
        "value": "Skin burns",
        "links": [],
        "cross_references": [
          {
            "type": "name_match",
            "text": "burn",
            "confidence": 1.0,
            "uuid": "63665de5-6376-4918-8dbf-4c10c4d63837",
            "name": "burn",
            "url": "https://haz-map.com/Findings/204",
            "category": "findings"
          }
        ]
      }
    },
    "diseases_processes_and_activities_linked_to_this_agent": {
      "other_information": {
        "original_name": "Other Information",
        "value": "No other related information on this agent was found.",
        "links": [],
        "cross_references": []
      }
    }
  },
  "cross_references": [
    {
      "type": "name_match",
      "text": "pulmonary edema",
      "confidence": 1.0,
      "uuid": "ee39114e-c922-40fd-9588-a532de404962",
      "name": "pulmonary edema",
      "url": "https://haz-map.com/Findings/186",
      "category": "findings"
    },
    {
      "type": "name_match",
      "text": "burn",
      "confidence": 1.0,
      "uuid": "63665de5-6376-4918-8dbf-4c10c4d63837",
      "name": "burn",
      "url": "https://haz-map.com/Findings/204",
      "category": "findings"
    },
    {
      "type": "name_match",
      "text": "benzene",
      "confidence": 1.0,
      "uuid": "b05124de-5f34-4c14-8f04-ccb20c3780d9",
      "name": "Benzene",
      "url": "https://haz-map.com/Agents/5",
      "category": "agents"
    },
    {
      "type": "name_match",
      "text": "toluene",
      "confidence": 1.0,
      "uuid": "0a34d5de-e924-4c47-aff5-7ae8e48c6772",
      "name": "Toluene",
      "url": "https://haz-map.com/Agents/83",
      "category": "agents"
    },
    {
      "type": "name_match",
      "text": "tea",
      "confidence": 1.0,
      "uuid": "773409e5-ac1a-4c9e-9470-9667ca82091c",
      "name": "Tea",
      "url": "https://haz-map.com/Agents/878",
      "category": "agents"
    },
    {
      "type": "name_match",
      "text": "benzyl bromide",
      "confidence": 1.0,
      "uuid": "23b5eb4a-392f-4063-b325-5a6b411fcd4e",
      "name": "Benzyl bromide",
      "url": "https://haz-map.com/Agents/2646",
      "category": "agents"
    },
    {
      "type": "name_match",
      "text": "o-xylyl bromide",
      "confidence": 1.0,
      "uuid": "a3432577-37f0-4ce2-9df7-c71824b2c89e",
      "name": "o-Xylyl bromide",
      "url": "https://haz-map.com/Agents/2666",
      "category": "agents"
    },
    {
      "type": "name_match",
      "text": "xylyl bromide",
      "confidence": 1.0,
      "uuid": "6c0752e3-7699-4627-80de-c65552473d73",
      "name": "Xylyl bromide",
      "url": "https://haz-map.com/Agents/2674",
      "category": "agents"
    }
  ],
  "all_links": [
    {
      "text": "Search PubMed",
      "url": "https://www.ncbi.nlm.nih.gov/pubmed?term=o-Xylyl+bromide%20AND%20human%5Bmh%5D%20AND%20%28Occupational%20Diseases%20%5Bmh%5D%20OR%20Occupational%20Exposure%20%5Bmh%5D%29%20%20AND%20%28tox%5Bsb%5D%29&cmd=search"
    }
  ]
}