{
  "metadata": {
    "scraped_from": "https://haz-map.com/Agents/3701",
    "entity_name": "3,4,5,6-Tetrabromophthalic anhydride",
    "category": "agents",
    "uuid": "a44329a9-8cdf-4b2a-aab2-b59aad648747",
    "scraped_at": "2025-07-23T19:32:13.014459"
  },
  "parsed_at": "2025-07-24T01:17:00.415427",
  "title": "3,4,5,6-Tetrabromophthalic anhydride",
  "sections": {
    "general": {
      "agent_name": {
        "original_name": "Agent Name",
        "value": "3,4,5,6-Tetrabromophthalic anhydride",
        "links": [],
        "cross_references": [
          {
            "type": "name_match",
            "text": "phthalic anhydride",
            "confidence": 1.0,
            "uuid": "1bda4d65-bf7f-4775-add4-a93906dcc2db",
            "name": "Phthalic anhydride",
            "url": "https://haz-map.com/Agents/599",
            "category": "agents"
          },
          {
            "type": "name_match",
            "text": "ht",
            "confidence": 1.0,
            "uuid": "764df367-8d53-4a11-81a2-31ccfe122a8d",
            "name": "HT",
            "url": "https://haz-map.com/Agents/2168",
            "category": "agents"
          },
          {
            "type": "name_match",
            "text": "3,4,5,6-tetrabromophthalic anhydride",
            "confidence": 1.0,
            "uuid": "a44329a9-8cdf-4b2a-aab2-b59aad648747",
            "name": "3,4,5,6-Tetrabromophthalic anhydride",
            "url": "https://haz-map.com/Agents/3701",
            "category": "agents"
          }
        ]
      },
      "cas_number": {
        "original_name": "CAS Number",
        "value": "632-79-1",
        "links": [],
        "cross_references": []
      },
      "formula": {
        "original_name": "Formula",
        "value": "C8-Br4-O3",
        "links": [],
        "cross_references": []
      },
      "major_category": {
        "original_name": "Major Category",
        "value": "Plastics & Rubber",
        "links": [],
        "cross_references": []
      },
      "synonyms": {
        "original_name": "Synonyms",
        "value": "1,3-Isobenzofurandione, 4,5,6,7-tetrabromo-; Bromophthal; Bromphthal; Dion 6692 (VAN); FG 400; FG 4000; FireMaster PHT 4; PHT 4; Phthalic acid, tetrabromo-, anhydride; Phthalic anhydride, tetrabromo-; Saytex RB 49; Tetrabromophthalic acid anhydride; Tetrabromophthalic anhydride; [ChemIDplus]",
        "links": [],
        "cross_references": [
          {
            "type": "name_match",
            "text": "phthalic anhydride",
            "confidence": 1.0,
            "uuid": "1bda4d65-bf7f-4775-add4-a93906dcc2db",
            "name": "Phthalic anhydride",
            "url": "https://haz-map.com/Agents/599",
            "category": "agents"
          },
          {
            "type": "name_match",
            "text": "furan",
            "confidence": 1.0,
            "uuid": "96da3d2e-f46b-4100-9000-704d1a86985b",
            "name": "Furan",
            "url": "https://haz-map.com/Agents/1477",
            "category": "agents"
          },
          {
            "type": "name_match",
            "text": "ht",
            "confidence": 1.0,
            "uuid": "764df367-8d53-4a11-81a2-31ccfe122a8d",
            "name": "HT",
            "url": "https://haz-map.com/Agents/2168",
            "category": "agents"
          },
          {
            "type": "name_match",
            "text": "benzofuran",
            "confidence": 1.0,
            "uuid": "433f9324-e799-4045-b9dc-d8468b9b9b05",
            "name": "Benzofuran",
            "url": "https://haz-map.com/Agents/3855",
            "category": "agents"
          },
          {
            "type": "name_match",
            "text": "phthalic acid",
            "confidence": 1.0,
            "uuid": "f19ac6b5-df06-48aa-81e6-825cdcfe8f9c",
            "name": "Phthalic acid",
            "url": "https://haz-map.com/Agents/6702",
            "category": "agents"
          }
        ]
      },
      "category": {
        "original_name": "Category",
        "value": "Acid Anhydrides, Cyclic",
        "links": [],
        "cross_references": [
          {
            "type": "name_match",
            "text": "acid anhydrides",
            "confidence": 1.0,
            "uuid": "541f6a39-e623-4b95-8854-3d5fe27fdeca",
            "name": "ACID ANHYDRIDES",
            "url": "https://haz-map.com/Agents/744",
            "category": "agents"
          }
        ]
      },
      "description": {
        "original_name": "Description",
        "value": "Pale yellow solid; [HSDB] Powder; [MSDSonline]",
        "links": [],
        "cross_references": []
      },
      "sourcesuses": {
        "original_name": "Sources/Uses",
        "value": "Used as a reactive flame retardant (unsaturated polyester and epoxy resins, plastics, paper, and textiles) and chemical intermediate for other flame retardants; [HSDB] Also use to make sulfobromophthalein (liver function diagnostic aid); [Reference #1]",
        "links": [],
        "cross_references": [
          {
            "type": "name_match",
            "text": "epoxy resins",
            "confidence": 1.0,
            "uuid": "4724cfe8-e98a-4ee6-a6de-25e8d9534e62",
            "name": "EPOXY RESINS",
            "url": "https://haz-map.com/Agents/30",
            "category": "agents"
          },
          {
            "type": "name_match",
            "text": "mica",
            "confidence": 1.0,
            "uuid": "433f26f1-c399-4596-b179-ce3843cfd465",
            "name": "Mica",
            "url": "https://haz-map.com/Agents/621",
            "category": "agents"
          },
          {
            "type": "name_match",
            "text": "ht",
            "confidence": 1.0,
            "uuid": "764df367-8d53-4a11-81a2-31ccfe122a8d",
            "name": "HT",
            "url": "https://haz-map.com/Agents/2168",
            "category": "agents"
          }
        ]
      },
      "comments": {
        "original_name": "Comments",
        "value": "A mutagen and mild eye irritant; Causes change in lung weight on inhalation studies of rats; [RTECS] No evidence of mutagenicity in several tests using bacteria and rat liver; [HSDB] An eye and respiratory tract irritant; [CAMEO] See \"ACID ANHYDRIDES.\"",
        "links": [],
        "cross_references": [
          {
            "type": "name_match",
            "text": "acid anhydrides",
            "confidence": 1.0,
            "uuid": "541f6a39-e623-4b95-8854-3d5fe27fdeca",
            "name": "ACID ANHYDRIDES",
            "url": "https://haz-map.com/Agents/744",
            "category": "agents"
          },
          {
            "type": "name_match",
            "text": "ht",
            "confidence": 1.0,
            "uuid": "764df367-8d53-4a11-81a2-31ccfe122a8d",
            "name": "HT",
            "url": "https://haz-map.com/Agents/2168",
            "category": "agents"
          }
        ]
      },
      "reference_link_1": {
        "original_name": "Reference Link #1",
        "value": "NTP Review of Toxilogical Literature: Tetrabromophthalic Anhydride - 1999",
        "links": [
          {
            "text": "NTP Review of Toxilogical Literature: Tetrabromophthalic Anhydride - 1999",
            "url": "http://ntp.niehs.nih.gov/ntp/htdocs/Chem_Background/ExSumPdf/Tetrabromophthalic.pdf"
          }
        ],
        "cross_references": [
          {
            "type": "name_match",
            "text": "phthalic anhydride",
            "confidence": 1.0,
            "uuid": "1bda4d65-bf7f-4775-add4-a93906dcc2db",
            "name": "Phthalic anhydride",
            "url": "https://haz-map.com/Agents/599",
            "category": "agents"
          },
          {
            "type": "name_match",
            "text": "ht",
            "confidence": 1.0,
            "uuid": "764df367-8d53-4a11-81a2-31ccfe122a8d",
            "name": "HT",
            "url": "https://haz-map.com/Agents/2168",
            "category": "agents"
          }
        ]
      },
      "biomedical_references": {
        "original_name": "Biomedical References",
        "value": "Search PubMed",
        "links": [
          {
            "text": "Search PubMed",
            "url": "https://www.ncbi.nlm.nih.gov/pubmed?term=3%2c4%2c5%2c6-Tetrabromophthalic+anhydride%20AND%20human%5Bmh%5D%20AND%20%28Occupational%20Diseases%20%5Bmh%5D%20OR%20Occupational%20Exposure%20%5Bmh%5D%29%20%20AND%20%28tox%5Bsb%5D%29&cmd=search"
          }
        ],
        "cross_references": []
      }
    },
    "exposure_assessment": {
      "vapor_pressure": {
        "original_name": "Vapor Pressure",
        "value": "5.74E-07 mm Hg",
        "links": [],
        "cross_references": []
      },
      "lethal_concentration": {
        "original_name": "Lethal Concentration",
        "value": "LC (rat) > 10,920 mg/m3/4h",
        "links": [],
        "cross_references": []
      }
    },
    "diseases_processes_and_activities_linked_to_this_agent": {
      "processes": {
        "original_name": "Processes",
        "value": "Industrial Processes with risk of exposure: Pulp and Paper Processing Textiles (Printing, Dyeing, or Finishing)",
        "links": [
          {
            "text": "Pulp and Paper Processing",
            "url": "https://haz-map.com/Processes/132"
          },
          {
            "text": "Textiles (Printing, Dyeing, or Finishing)",
            "url": "https://haz-map.com/Processes/235"
          }
        ],
        "cross_references": [
          {
            "type": "url_match",
            "text": "Pulp and Paper Processing",
            "url": "https://haz-map.com/Processes/132",
            "confidence": 1.0,
            "uuid": "30075079-d057-47e2-a7d8-e89bfc59d8df",
            "name": "Pulp and Paper Processing",
            "category": "processes"
          }
        ]
      }
    }
  },
  "cross_references": [
    {
      "type": "url_match",
      "text": "Pulp and Paper Processing",
      "url": "https://haz-map.com/Processes/132",
      "confidence": 1.0,
      "uuid": "30075079-d057-47e2-a7d8-e89bfc59d8df",
      "name": "Pulp and Paper Processing",
      "category": "processes"
    },
    {
      "type": "name_match",
      "text": "epoxy resins",
      "confidence": 1.0,
      "uuid": "4724cfe8-e98a-4ee6-a6de-25e8d9534e62",
      "name": "EPOXY RESINS",
      "url": "https://haz-map.com/Agents/30",
      "category": "agents"
    },
    {
      "type": "name_match",
      "text": "phthalic anhydride",
      "confidence": 1.0,
      "uuid": "1bda4d65-bf7f-4775-add4-a93906dcc2db",
      "name": "Phthalic anhydride",
      "url": "https://haz-map.com/Agents/599",
      "category": "agents"
    },
    {
      "type": "name_match",
      "text": "mica",
      "confidence": 1.0,
      "uuid": "433f26f1-c399-4596-b179-ce3843cfd465",
      "name": "Mica",
      "url": "https://haz-map.com/Agents/621",
      "category": "agents"
    },
    {
      "type": "name_match",
      "text": "acid anhydrides",
      "confidence": 1.0,
      "uuid": "541f6a39-e623-4b95-8854-3d5fe27fdeca",
      "name": "ACID ANHYDRIDES",
      "url": "https://haz-map.com/Agents/744",
      "category": "agents"
    },
    {
      "type": "name_match",
      "text": "furan",
      "confidence": 1.0,
      "uuid": "96da3d2e-f46b-4100-9000-704d1a86985b",
      "name": "Furan",
      "url": "https://haz-map.com/Agents/1477",
      "category": "agents"
    },
    {
      "type": "name_match",
      "text": "ht",
      "confidence": 1.0,
      "uuid": "764df367-8d53-4a11-81a2-31ccfe122a8d",
      "name": "HT",
      "url": "https://haz-map.com/Agents/2168",
      "category": "agents"
    },
    {
      "type": "name_match",
      "text": "3,4,5,6-tetrabromophthalic anhydride",
      "confidence": 1.0,
      "uuid": "a44329a9-8cdf-4b2a-aab2-b59aad648747",
      "name": "3,4,5,6-Tetrabromophthalic anhydride",
      "url": "https://haz-map.com/Agents/3701",
      "category": "agents"
    },
    {
      "type": "name_match",
      "text": "benzofuran",
      "confidence": 1.0,
      "uuid": "433f9324-e799-4045-b9dc-d8468b9b9b05",
      "name": "Benzofuran",
      "url": "https://haz-map.com/Agents/3855",
      "category": "agents"
    },
    {
      "type": "name_match",
      "text": "phthalic acid",
      "confidence": 1.0,
      "uuid": "f19ac6b5-df06-48aa-81e6-825cdcfe8f9c",
      "name": "Phthalic acid",
      "url": "https://haz-map.com/Agents/6702",
      "category": "agents"
    }
  ],
  "all_links": [
    {
      "text": "NTP Review of Toxilogical Literature: Tetrabromophthalic Anhydride - 1999",
      "url": "http://ntp.niehs.nih.gov/ntp/htdocs/Chem_Background/ExSumPdf/Tetrabromophthalic.pdf"
    },
    {
      "text": "Search PubMed",
      "url": "https://www.ncbi.nlm.nih.gov/pubmed?term=3%2c4%2c5%2c6-Tetrabromophthalic+anhydride%20AND%20human%5Bmh%5D%20AND%20%28Occupational%20Diseases%20%5Bmh%5D%20OR%20Occupational%20Exposure%20%5Bmh%5D%29%20%20AND%20%28tox%5Bsb%5D%29&cmd=search"
    },
    {
      "text": "Pulp and Paper Processing",
      "url": "https://haz-map.com/Processes/132"
    },
    {
      "text": "Textiles (Printing, Dyeing, or Finishing)",
      "url": "https://haz-map.com/Processes/235"
    }
  ]
}