{
  "metadata": {
    "scraped_from": "https://haz-map.com/Agents/19785",
    "entity_name": "3-Ethyl-3-pentanol",
    "category": "agents",
    "uuid": "a44882b2-f903-42b0-a51d-7eb221affbc6",
    "scraped_at": "2025-07-23T22:13:00.394474"
  },
  "parsed_at": "2025-07-24T00:53:43.390292",
  "title": "3-Ethyl-3-pentanol",
  "sections": {
    "general": {
      "agent_name": {
        "original_name": "Agent Name",
        "value": "3-Ethyl-3-pentanol",
        "links": [],
        "cross_references": [
          {
            "type": "name_match",
            "text": "3-pentanol",
            "confidence": 1.0,
            "uuid": "a473c8d0-c328-40cc-9095-3d70467dcf36",
            "name": "3-Pentanol",
            "url": "https://haz-map.com/Agents/9662",
            "category": "agents"
          },
          {
            "type": "name_match",
            "text": "3-ethyl-3-pentanol",
            "confidence": 1.0,
            "uuid": "a44882b2-f903-42b0-a51d-7eb221affbc6",
            "name": "3-Ethyl-3-pentanol",
            "url": "https://haz-map.com/Agents/19785",
            "category": "agents"
          }
        ]
      },
      "cas_number": {
        "original_name": "CAS Number",
        "value": "597-49-9",
        "links": [],
        "cross_references": []
      },
      "formula": {
        "original_name": "Formula",
        "value": "C7-H16-O",
        "links": [],
        "cross_references": []
      },
      "major_category": {
        "original_name": "Major Category",
        "value": "Solvents",
        "links": [],
        "cross_references": []
      },
      "synonyms": {
        "original_name": "Synonyms",
        "value": "3-Aethyl-pentanol-(3) [German]; Triethylcarbinol; Triethylmethanol; 3-Ethylpentan-3-ol; 3-Pentanol, 3-ethyl-; [ChemIDplus] UN1987",
        "links": [],
        "cross_references": [
          {
            "type": "name_match",
            "text": "3-pentanol",
            "confidence": 1.0,
            "uuid": "a473c8d0-c328-40cc-9095-3d70467dcf36",
            "name": "3-Pentanol",
            "url": "https://haz-map.com/Agents/9662",
            "category": "agents"
          }
        ]
      },
      "category": {
        "original_name": "Category",
        "value": "Alcohols (<C12)",
        "links": [],
        "cross_references": []
      },
      "description": {
        "original_name": "Description",
        "value": "Clear light yellow liquid; [Sigma-Aldrich MSDS]",
        "links": [],
        "cross_references": [
          {
            "type": "name_match",
            "text": "ht",
            "confidence": 1.0,
            "uuid": "764df367-8d53-4a11-81a2-31ccfe122a8d",
            "name": "HT",
            "url": "https://haz-map.com/Agents/2168",
            "category": "agents"
          }
        ]
      },
      "comments": {
        "original_name": "Comments",
        "value": "Causes ataxia, irritability, and dyspnea in acute intraperitoneal studies of rats; Causes degenerative changes to brain and other changes of the liver and kidney in 26-week intermittent oral studies of rabbits; [RTECS] May cause irritation; [Alfa Aesar MSDS] See \"2-Heptanol.\"",
        "links": [],
        "cross_references": [
          {
            "type": "name_match",
            "text": "irritability",
            "confidence": 1.0,
            "uuid": "46ff168f-7493-4b76-a1f2-6b5532a36d29",
            "name": "irritability",
            "url": "https://haz-map.com/Findings/65",
            "category": "findings"
          },
          {
            "type": "name_match",
            "text": "2-heptanol",
            "confidence": 1.0,
            "uuid": "7a10742c-978a-45db-a7eb-0fbafd1be76f",
            "name": "2-Heptanol",
            "url": "https://haz-map.com/Agents/8621",
            "category": "agents"
          }
        ]
      },
      "biomedical_references": {
        "original_name": "Biomedical References",
        "value": "Search PubMed",
        "links": [
          {
            "text": "Search PubMed",
            "url": "https://www.ncbi.nlm.nih.gov/pubmed?term=3-Ethyl-3-pentanol%20AND%20human%5Bmh%5D%20AND%20%28Occupational%20Diseases%20%5Bmh%5D%20OR%20Occupational%20Exposure%20%5Bmh%5D%29%20%20AND%20%28tox%5Bsb%5D%29&cmd=search"
          }
        ],
        "cross_references": []
      }
    },
    "exposure_assessment": {
      "vapor_pressure": {
        "original_name": "Vapor Pressure",
        "value": "2.15 mm Hg",
        "links": [],
        "cross_references": []
      },
      "explanatory_notes": {
        "original_name": "Explanatory Notes",
        "value": "The Guide in the Emergency Response Guidebook is for \"Alcohols, n.o.s.\"",
        "links": [],
        "cross_references": []
      }
    },
    "adverse_effects": {
      "neurotoxin": {
        "original_name": "Neurotoxin",
        "value": "Acute solvent syndrome",
        "links": [],
        "cross_references": []
      }
    },
    "diseases_processes_and_activities_linked_to_this_agent": {
      "diseases": {
        "original_name": "Diseases",
        "value": "Occupational diseases associated with exposure to this agent: Solvents, acute toxic effect",
        "links": [
          {
            "text": "Solvents, acute toxic effect",
            "url": "https://haz-map.com/Diseases/326"
          }
        ],
        "cross_references": [
          {
            "type": "url_match",
            "text": "Solvents, acute toxic effect",
            "url": "https://haz-map.com/Diseases/326",
            "confidence": 1.0,
            "uuid": "581e90e3-9d0c-45f0-aa6c-3468c28da129",
            "name": "Solvents, acute toxic effect",
            "category": "diseases"
          }
        ]
      }
    }
  },
  "cross_references": [
    {
      "type": "url_match",
      "text": "Solvents, acute toxic effect",
      "url": "https://haz-map.com/Diseases/326",
      "confidence": 1.0,
      "uuid": "581e90e3-9d0c-45f0-aa6c-3468c28da129",
      "name": "Solvents, acute toxic effect",
      "category": "diseases"
    },
    {
      "type": "name_match",
      "text": "irritability",
      "confidence": 1.0,
      "uuid": "46ff168f-7493-4b76-a1f2-6b5532a36d29",
      "name": "irritability",
      "url": "https://haz-map.com/Findings/65",
      "category": "findings"
    },
    {
      "type": "name_match",
      "text": "ht",
      "confidence": 1.0,
      "uuid": "764df367-8d53-4a11-81a2-31ccfe122a8d",
      "name": "HT",
      "url": "https://haz-map.com/Agents/2168",
      "category": "agents"
    },
    {
      "type": "name_match",
      "text": "2-heptanol",
      "confidence": 1.0,
      "uuid": "7a10742c-978a-45db-a7eb-0fbafd1be76f",
      "name": "2-Heptanol",
      "url": "https://haz-map.com/Agents/8621",
      "category": "agents"
    },
    {
      "type": "name_match",
      "text": "3-pentanol",
      "confidence": 1.0,
      "uuid": "a473c8d0-c328-40cc-9095-3d70467dcf36",
      "name": "3-Pentanol",
      "url": "https://haz-map.com/Agents/9662",
      "category": "agents"
    },
    {
      "type": "name_match",
      "text": "3-ethyl-3-pentanol",
      "confidence": 1.0,
      "uuid": "a44882b2-f903-42b0-a51d-7eb221affbc6",
      "name": "3-Ethyl-3-pentanol",
      "url": "https://haz-map.com/Agents/19785",
      "category": "agents"
    }
  ],
  "all_links": [
    {
      "text": "Search PubMed",
      "url": "https://www.ncbi.nlm.nih.gov/pubmed?term=3-Ethyl-3-pentanol%20AND%20human%5Bmh%5D%20AND%20%28Occupational%20Diseases%20%5Bmh%5D%20OR%20Occupational%20Exposure%20%5Bmh%5D%29%20%20AND%20%28tox%5Bsb%5D%29&cmd=search"
    },
    {
      "text": "Solvents, acute toxic effect",
      "url": "https://haz-map.com/Diseases/326"
    }
  ]
}