{
  "metadata": {
    "scraped_from": "https://haz-map.com/Agents/793",
    "entity_name": "Pyromellitic dianhydride",
    "category": "agents",
    "uuid": "a45ad3a8-d552-49d6-9227-6766a6288e08",
    "scraped_at": "2025-07-23T18:48:25.560867"
  },
  "parsed_at": "2025-07-24T01:14:07.132783",
  "title": "Pyromellitic dianhydride",
  "sections": {
    "general": {
      "agent_name": {
        "original_name": "Agent Name",
        "value": "Pyromellitic dianhydride",
        "links": [],
        "cross_references": [
          {
            "type": "name_match",
            "text": "pyromellitic dianhydride",
            "confidence": 1.0,
            "uuid": "a45ad3a8-d552-49d6-9227-6766a6288e08",
            "name": "Pyromellitic dianhydride",
            "url": "https://haz-map.com/Agents/793",
            "category": "agents"
          }
        ]
      },
      "cas_number": {
        "original_name": "CAS Number",
        "value": "89-32-7",
        "links": [],
        "cross_references": []
      },
      "formula": {
        "original_name": "Formula",
        "value": "C10-H2-O6",
        "links": [],
        "cross_references": []
      },
      "major_category": {
        "original_name": "Major Category",
        "value": "Plastics & Rubber",
        "links": [],
        "cross_references": []
      },
      "synonyms": {
        "original_name": "Synonyms",
        "value": "1H,3H-Benzo(1,2-c:4,5-c')difuran-1,3,5,7-tetrone; Pyromellitic 1,2:4,5-dianhydride (6CI); Pyromellitic acid anhydride; Pyromellitic acid dianhydride; Pyromellitic anhydride; 1,2,4,5 Benzenetetracarboxylic 1,2:4,5 dianhydride; Benzene-1,2:4,5-tetracarboxylic dianhydride; [ChemIDplus] PMDA; [HSDB]",
        "links": [],
        "cross_references": [
          {
            "type": "name_match",
            "text": "benzene",
            "confidence": 1.0,
            "uuid": "b05124de-5f34-4c14-8f04-ccb20c3780d9",
            "name": "Benzene",
            "url": "https://haz-map.com/Agents/5",
            "category": "agents"
          },
          {
            "type": "name_match",
            "text": "furan",
            "confidence": 1.0,
            "uuid": "96da3d2e-f46b-4100-9000-704d1a86985b",
            "name": "Furan",
            "url": "https://haz-map.com/Agents/1477",
            "category": "agents"
          },
          {
            "type": "name_match",
            "text": "pyromellitic acid",
            "confidence": 1.0,
            "uuid": "090884a9-366e-4359-a3cd-ed55f8195ef7",
            "name": "Pyromellitic acid",
            "url": "https://haz-map.com/Agents/19191",
            "category": "agents"
          },
          {
            "type": "name_match",
            "text": "mellitic acid",
            "confidence": 1.0,
            "uuid": "6c0eef35-ef12-4d95-a476-9d2aca11cabc",
            "name": "Mellitic acid",
            "url": "https://haz-map.com/Agents/20794",
            "category": "agents"
          }
        ]
      },
      "category": {
        "original_name": "Category",
        "value": "Acid Anhydrides, Cyclic",
        "links": [],
        "cross_references": [
          {
            "type": "name_match",
            "text": "acid anhydrides",
            "confidence": 1.0,
            "uuid": "541f6a39-e623-4b95-8854-3d5fe27fdeca",
            "name": "ACID ANHYDRIDES",
            "url": "https://haz-map.com/Agents/744",
            "category": "agents"
          }
        ]
      },
      "description": {
        "original_name": "Description",
        "value": "White hygroscopic solid; [ICSC] White or off-white powder; [Alfa Aesar MSDS]",
        "links": [],
        "cross_references": []
      },
      "sourcesuses": {
        "original_name": "Sources/Uses",
        "value": "Occupational asthma reported in workers using epoxy resin adhesives; [Malo] Used as a curing agent for epoxy resins (high-temperature laminates, molds, and coatings), cross-linking agent for epoxy plasticizers in vinyls and alkyd resins, and intermediate for pyromellitic acid; [Hawley]",
        "links": [],
        "cross_references": [
          {
            "type": "name_match",
            "text": "epoxy resins",
            "confidence": 1.0,
            "uuid": "4724cfe8-e98a-4ee6-a6de-25e8d9534e62",
            "name": "EPOXY RESINS",
            "url": "https://haz-map.com/Agents/30",
            "category": "agents"
          },
          {
            "type": "name_match",
            "text": "pyromellitic acid",
            "confidence": 1.0,
            "uuid": "090884a9-366e-4359-a3cd-ed55f8195ef7",
            "name": "Pyromellitic acid",
            "url": "https://haz-map.com/Agents/19191",
            "category": "agents"
          },
          {
            "type": "name_match",
            "text": "mellitic acid",
            "confidence": 1.0,
            "uuid": "6c0eef35-ef12-4d95-a476-9d2aca11cabc",
            "name": "Mellitic acid",
            "url": "https://haz-map.com/Agents/20794",
            "category": "agents"
          }
        ]
      },
      "comments": {
        "original_name": "Comments",
        "value": "A skin irritant; [Hawley] Produces the acid on reaction with water; A skin, eye, and respiratory tract irritant; Heavy exposure may cause pulmonary hemorrhage; May cause skin sensitization and asthma; [ICSC] A mild skin sensitizer in guinea pigs; Acute exposure produces CNS depression in animals; Changes in various enzyme activity (cholinesterase, ALT, AST, cytochrome oxidase, etc.) observed in female mice administered 4.4 and 8.8 mg/kg for six months; [HSDB] An irritant that may cause serious eye injury; May cause sensitization by skin contact and inhalation; [Alfa Aesar MSDS] See \"ACID ANHYDRIDES.\"",
        "links": [],
        "cross_references": [
          {
            "type": "name_match",
            "text": "acid anhydrides",
            "confidence": 1.0,
            "uuid": "541f6a39-e623-4b95-8854-3d5fe27fdeca",
            "name": "ACID ANHYDRIDES",
            "url": "https://haz-map.com/Agents/744",
            "category": "agents"
          },
          {
            "type": "name_match",
            "text": "choline",
            "confidence": 1.0,
            "uuid": "a21a71e9-9d67-4563-9da2-98c4dcb1b766",
            "name": "Choline",
            "url": "https://haz-map.com/Agents/12978",
            "category": "agents"
          },
          {
            "type": "name_match",
            "text": "water",
            "confidence": 1.0,
            "uuid": "6f2a7557-dfd2-49bc-9b4b-a93cd8e225d4",
            "name": "Water",
            "url": "https://haz-map.com/Agents/18668",
            "category": "agents"
          }
        ]
      },
      "reference_link_1": {
        "original_name": "Reference Link #1",
        "value": "Asthma and atopy in workers with an epoxy adhesive",
        "links": [
          {
            "text": "Asthma and atopy in workers with an epoxy adhesive",
            "url": "http://www.ncbi.nlm.nih.gov/entrez/query.fcgi?db=PubMed&cmd=Retrieve&list_uids=6448619&dopt=Abstract"
          }
        ],
        "cross_references": []
      },
      "biomedical_references": {
        "original_name": "Biomedical References",
        "value": "Search PubMed",
        "links": [
          {
            "text": "Search PubMed",
            "url": "https://www.ncbi.nlm.nih.gov/pubmed?term=Pyromellitic+dianhydride%20AND%20human%5Bmh%5D%20AND%20%28Occupational%20Diseases%20%5Bmh%5D%20OR%20Occupational%20Exposure%20%5Bmh%5D%29%20%20AND%20%28tox%5Bsb%5D%29&cmd=search"
          }
        ],
        "cross_references": []
      }
    },
    "exposure_assessment": {
      "vapor_pressure": {
        "original_name": "Vapor Pressure",
        "value": "4.8E-06 mm Hg",
        "links": [],
        "cross_references": []
      },
      "lethal_concentration": {
        "original_name": "Lethal Concentration",
        "value": "LCLo (rat) = 150 mg/m3/4hr",
        "links": [],
        "cross_references": []
      },
      "explanatory_notes": {
        "original_name": "Explanatory Notes",
        "value": "VP from HSDB;",
        "links": [],
        "cross_references": []
      }
    },
    "adverse_effects": {
      "skin_sensitizer": {
        "original_name": "Skin Sensitizer",
        "value": "Yes",
        "links": [],
        "cross_references": []
      },
      "asthma": {
        "original_name": "Asthma",
        "value": "Yes",
        "links": [],
        "cross_references": []
      },
      "hepatotoxin": {
        "original_name": "Hepatotoxin",
        "value": "Hepatoxic (a) from occupational exposure (secondary effect) or (b) in animal studies or in humans after ingestion",
        "links": [],
        "cross_references": []
      }
    },
    "diseases_processes_and_activities_linked_to_this_agent": {
      "diseases": {
        "original_name": "Diseases",
        "value": "Occupational diseases associated with exposure to this agent: Asthma, occupational Contact dermatitis, allergic",
        "links": [
          {
            "text": "Asthma, occupational",
            "url": "https://haz-map.com/Diseases/23"
          },
          {
            "text": "Contact dermatitis, allergic",
            "url": "https://haz-map.com/Diseases/18"
          }
        ],
        "cross_references": [
          {
            "type": "url_match",
            "text": "Asthma, occupational",
            "url": "https://haz-map.com/Diseases/23",
            "confidence": 1.0,
            "uuid": "29c464cb-36b2-43d8-b6fc-e19a0ea695cb",
            "name": "Asthma, occupational",
            "category": "diseases"
          },
          {
            "type": "url_match",
            "text": "Contact dermatitis, allergic",
            "url": "https://haz-map.com/Diseases/18",
            "confidence": 1.0,
            "uuid": "c9499de0-9aa1-41bf-8753-cd5b28a63e29",
            "name": "Contact dermatitis, allergic",
            "category": "diseases"
          },
          {
            "type": "name_match",
            "text": "dermatitis",
            "confidence": 1.0,
            "uuid": "fe9c05f2-b19f-4ceb-ac7a-ffb7d7a0cae0",
            "name": "dermatitis",
            "url": "https://haz-map.com/Findings/59",
            "category": "findings"
          }
        ]
      },
      "processes": {
        "original_name": "Processes",
        "value": "Industrial Processes with risk of exposure: Plastic Composites Manufacturing Working with Glues and Adhesives",
        "links": [
          {
            "text": "Plastic Composites Manufacturing",
            "url": "https://haz-map.com/Processes/222"
          },
          {
            "text": "Working with Glues and Adhesives",
            "url": "https://haz-map.com/Processes/155"
          }
        ],
        "cross_references": [
          {
            "type": "url_match",
            "text": "Plastic Composites Manufacturing",
            "url": "https://haz-map.com/Processes/222",
            "confidence": 1.0,
            "uuid": "d4461b82-dc77-4172-8e3d-0a5e3b213911",
            "name": "Plastic Composites Manufacturing",
            "category": "processes"
          },
          {
            "type": "url_match",
            "text": "Working with Glues and Adhesives",
            "url": "https://haz-map.com/Processes/155",
            "confidence": 1.0,
            "uuid": "acb9084f-52e8-4687-bd6a-bced94bda834",
            "name": "Working with Glues and Adhesives",
            "category": "processes"
          }
        ]
      }
    }
  },
  "cross_references": [
    {
      "type": "url_match",
      "text": "Asthma, occupational",
      "url": "https://haz-map.com/Diseases/23",
      "confidence": 1.0,
      "uuid": "29c464cb-36b2-43d8-b6fc-e19a0ea695cb",
      "name": "Asthma, occupational",
      "category": "diseases"
    },
    {
      "type": "url_match",
      "text": "Contact dermatitis, allergic",
      "url": "https://haz-map.com/Diseases/18",
      "confidence": 1.0,
      "uuid": "c9499de0-9aa1-41bf-8753-cd5b28a63e29",
      "name": "Contact dermatitis, allergic",
      "category": "diseases"
    },
    {
      "type": "url_match",
      "text": "Plastic Composites Manufacturing",
      "url": "https://haz-map.com/Processes/222",
      "confidence": 1.0,
      "uuid": "d4461b82-dc77-4172-8e3d-0a5e3b213911",
      "name": "Plastic Composites Manufacturing",
      "category": "processes"
    },
    {
      "type": "url_match",
      "text": "Working with Glues and Adhesives",
      "url": "https://haz-map.com/Processes/155",
      "confidence": 1.0,
      "uuid": "acb9084f-52e8-4687-bd6a-bced94bda834",
      "name": "Working with Glues and Adhesives",
      "category": "processes"
    },
    {
      "type": "name_match",
      "text": "dermatitis",
      "confidence": 1.0,
      "uuid": "fe9c05f2-b19f-4ceb-ac7a-ffb7d7a0cae0",
      "name": "dermatitis",
      "url": "https://haz-map.com/Findings/59",
      "category": "findings"
    },
    {
      "type": "name_match",
      "text": "benzene",
      "confidence": 1.0,
      "uuid": "b05124de-5f34-4c14-8f04-ccb20c3780d9",
      "name": "Benzene",
      "url": "https://haz-map.com/Agents/5",
      "category": "agents"
    },
    {
      "type": "name_match",
      "text": "epoxy resins",
      "confidence": 1.0,
      "uuid": "4724cfe8-e98a-4ee6-a6de-25e8d9534e62",
      "name": "EPOXY RESINS",
      "url": "https://haz-map.com/Agents/30",
      "category": "agents"
    },
    {
      "type": "name_match",
      "text": "acid anhydrides",
      "confidence": 1.0,
      "uuid": "541f6a39-e623-4b95-8854-3d5fe27fdeca",
      "name": "ACID ANHYDRIDES",
      "url": "https://haz-map.com/Agents/744",
      "category": "agents"
    },
    {
      "type": "name_match",
      "text": "pyromellitic dianhydride",
      "confidence": 1.0,
      "uuid": "a45ad3a8-d552-49d6-9227-6766a6288e08",
      "name": "Pyromellitic dianhydride",
      "url": "https://haz-map.com/Agents/793",
      "category": "agents"
    },
    {
      "type": "name_match",
      "text": "furan",
      "confidence": 1.0,
      "uuid": "96da3d2e-f46b-4100-9000-704d1a86985b",
      "name": "Furan",
      "url": "https://haz-map.com/Agents/1477",
      "category": "agents"
    },
    {
      "type": "name_match",
      "text": "choline",
      "confidence": 1.0,
      "uuid": "a21a71e9-9d67-4563-9da2-98c4dcb1b766",
      "name": "Choline",
      "url": "https://haz-map.com/Agents/12978",
      "category": "agents"
    },
    {
      "type": "name_match",
      "text": "water",
      "confidence": 1.0,
      "uuid": "6f2a7557-dfd2-49bc-9b4b-a93cd8e225d4",
      "name": "Water",
      "url": "https://haz-map.com/Agents/18668",
      "category": "agents"
    },
    {
      "type": "name_match",
      "text": "pyromellitic acid",
      "confidence": 1.0,
      "uuid": "090884a9-366e-4359-a3cd-ed55f8195ef7",
      "name": "Pyromellitic acid",
      "url": "https://haz-map.com/Agents/19191",
      "category": "agents"
    },
    {
      "type": "name_match",
      "text": "mellitic acid",
      "confidence": 1.0,
      "uuid": "6c0eef35-ef12-4d95-a476-9d2aca11cabc",
      "name": "Mellitic acid",
      "url": "https://haz-map.com/Agents/20794",
      "category": "agents"
    }
  ],
  "all_links": [
    {
      "text": "Asthma and atopy in workers with an epoxy adhesive",
      "url": "http://www.ncbi.nlm.nih.gov/entrez/query.fcgi?db=PubMed&cmd=Retrieve&list_uids=6448619&dopt=Abstract"
    },
    {
      "text": "Search PubMed",
      "url": "https://www.ncbi.nlm.nih.gov/pubmed?term=Pyromellitic+dianhydride%20AND%20human%5Bmh%5D%20AND%20%28Occupational%20Diseases%20%5Bmh%5D%20OR%20Occupational%20Exposure%20%5Bmh%5D%29%20%20AND%20%28tox%5Bsb%5D%29&cmd=search"
    },
    {
      "text": "Asthma, occupational",
      "url": "https://haz-map.com/Diseases/23"
    },
    {
      "text": "Contact dermatitis, allergic",
      "url": "https://haz-map.com/Diseases/18"
    },
    {
      "text": "Plastic Composites Manufacturing",
      "url": "https://haz-map.com/Processes/222"
    },
    {
      "text": "Working with Glues and Adhesives",
      "url": "https://haz-map.com/Processes/155"
    }
  ]
}