{
  "metadata": {
    "scraped_from": "https://haz-map.com/Agents/6678",
    "entity_name": "Tri-m-cresyl phosphate",
    "category": "agents",
    "uuid": "a4a7e28a-2ec4-43b9-a62f-61c652d25590",
    "scraped_at": "2025-07-23T20:04:24.349948"
  },
  "parsed_at": "2025-07-24T01:14:18.622651",
  "title": "Tri-m-cresyl phosphate",
  "sections": {
    "general": {
      "agent_name": {
        "original_name": "Agent Name",
        "value": "Tri-m-cresyl phosphate",
        "links": [],
        "cross_references": [
          {
            "type": "name_match",
            "text": "tri-m-cresyl phosphate",
            "confidence": 1.0,
            "uuid": "a4a7e28a-2ec4-43b9-a62f-61c652d25590",
            "name": "Tri-m-cresyl phosphate",
            "url": "https://haz-map.com/Agents/6678",
            "category": "agents"
          }
        ]
      },
      "alternative_name": {
        "original_name": "Alternative Name",
        "value": "Trimetacresyl phosphate",
        "links": [],
        "cross_references": []
      },
      "cas_number": {
        "original_name": "CAS Number",
        "value": "563-04-2",
        "links": [],
        "cross_references": []
      },
      "formula": {
        "original_name": "Formula",
        "value": "C21-H21-O4-P",
        "links": [],
        "cross_references": []
      },
      "major_category": {
        "original_name": "Major Category",
        "value": "Other Classes",
        "links": [],
        "cross_references": []
      },
      "synonyms": {
        "original_name": "Synonyms",
        "value": "Phosphoric acid tri-m-tolyl ester; Phosphoric acid, tri(3-tolyl)ester; Phosphoric acid, tris(3-methylphenyl) ester; Tri-m-tolyl phosphate; Tris(m-tolyl) phosphate; Tris-m-cresyl phosphate; [ChemIDplus] UN2574",
        "links": [],
        "cross_references": [
          {
            "type": "name_match",
            "text": "phosphoric acid",
            "confidence": 1.0,
            "uuid": "9049e74c-22b3-4fb1-8e7f-53f17c0ec74a",
            "name": "Phosphoric acid",
            "url": "https://haz-map.com/Agents/595",
            "category": "agents"
          }
        ]
      },
      "category": {
        "original_name": "Category",
        "value": "Organophosphates, Other",
        "links": [],
        "cross_references": [
          {
            "type": "name_match",
            "text": "organophosphates",
            "confidence": 1.0,
            "uuid": "8d2d239c-20f9-4f02-9916-5e7667b9990c",
            "name": "ORGANOPHOSPHATES",
            "url": "https://haz-map.com/Agents/702",
            "category": "agents"
          }
        ]
      },
      "description": {
        "original_name": "Description",
        "value": "Wax; mp = 25.5 deg C; [HSDB] Slightly yellow to pink clear liquid; [MSDSonline]",
        "links": [],
        "cross_references": [
          {
            "type": "name_match",
            "text": "ht",
            "confidence": 1.0,
            "uuid": "764df367-8d53-4a11-81a2-31ccfe122a8d",
            "name": "HT",
            "url": "https://haz-map.com/Agents/2168",
            "category": "agents"
          }
        ]
      },
      "sourcesuses": {
        "original_name": "Sources/Uses",
        "value": "Used in a isomeric mixture known as Tricresyl phosphate (CAS # 1330-78-5); No uses for the isolated isomer; [HSDB]",
        "links": [],
        "cross_references": []
      },
      "comments": {
        "original_name": "Comments",
        "value": "Permanent paralysis reported in worker involved in manufacture of meta and para isomers; Mildly toxic to animals; Six times less toxic than the ortho isomer; Emergency treatment: \"TOCP and related agents\"; [HSDB] A metabolite of the ortho isomer (TOCP) caused \"ginger jake paralysis,\" a motor neuropathy. See \"Triorthocresyl phosphate,\" Tri-p-cresyl phosphate,\" and \"Tricresyl phosphate (mixed isomers).\" TLV Basis includes adrenal gland and female reproductive system damage. [ACGIH TLVs and BEIs]",
        "links": [],
        "cross_references": [
          {
            "type": "name_match",
            "text": "neuropathy",
            "confidence": 1.0,
            "uuid": "8708368f-f68b-4a51-b1ea-01982070ed28",
            "name": "neuropathy",
            "url": "https://haz-map.com/Findings/85",
            "category": "findings"
          },
          {
            "type": "name_match",
            "text": "triorthocresyl phosphate",
            "confidence": 1.0,
            "uuid": "23e4ea47-015f-4ee8-ab13-1631915e2a4e",
            "name": "Triorthocresyl phosphate",
            "url": "https://haz-map.com/Agents/669",
            "category": "agents"
          },
          {
            "type": "name_match",
            "text": "tricresyl phosphate (mixed isomers)",
            "confidence": 1.0,
            "uuid": "de49b7a7-e1be-4839-a4be-574d9aaf7677",
            "name": "Tricresyl phosphate (mixed isomers)",
            "url": "https://haz-map.com/Agents/1784",
            "category": "agents"
          },
          {
            "type": "name_match",
            "text": "tri-p-cresyl phosphate",
            "confidence": 1.0,
            "uuid": "249f8474-cd92-4ce1-b811-ed8f7c4fda4a",
            "name": "Tri-p-cresyl phosphate",
            "url": "https://haz-map.com/Agents/6680",
            "category": "agents"
          }
        ]
      },
      "biomedical_references": {
        "original_name": "Biomedical References",
        "value": "Search PubMed",
        "links": [
          {
            "text": "Search PubMed",
            "url": "https://www.ncbi.nlm.nih.gov/pubmed?term=Tri-m-cresyl+phosphate%20AND%20human%5Bmh%5D%20AND%20%28Occupational%20Diseases%20%5Bmh%5D%20OR%20Occupational%20Exposure%20%5Bmh%5D%29%20%20AND%20%28tox%5Bsb%5D%29&cmd=search"
          }
        ],
        "cross_references": []
      }
    },
    "exposure_assessment": {
      "tlv_acgih": {
        "original_name": "TLV (ACGIH)",
        "value": "0.05 mg/m3, inhalable fraction and vapor",
        "links": [],
        "cross_references": []
      },
      "vapor_pressure": {
        "original_name": "Vapor Pressure",
        "value": "1.09E-07 mm Hg",
        "links": [],
        "cross_references": []
      },
      "explanatory_notes": {
        "original_name": "Explanatory Notes",
        "value": "The Guide in the Emergency Response Guidebook is for \"Tricesyl phosphate.\"",
        "links": [],
        "cross_references": []
      }
    },
    "adverse_effects": {
      "reproductive_toxin": {
        "original_name": "Reproductive Toxin",
        "value": "Yes",
        "links": [],
        "cross_references": []
      },
      "other_poison": {
        "original_name": "Other Poison",
        "value": "Organophosphate",
        "links": [],
        "cross_references": []
      }
    },
    "diseases_processes_and_activities_linked_to_this_agent": {
      "diseases": {
        "original_name": "Diseases",
        "value": "Occupational diseases associated with exposure to this agent: Organophosphates & carbamates, acute poisoning",
        "links": [
          {
            "text": "Organophosphates & carbamates, acute poisoning",
            "url": "https://haz-map.com/Diseases/66"
          }
        ],
        "cross_references": [
          {
            "type": "url_match",
            "text": "Organophosphates & carbamates, acute poisoning",
            "url": "https://haz-map.com/Diseases/66",
            "confidence": 1.0,
            "uuid": "aea2cba9-fb36-463f-84d8-b819551bb327",
            "name": "Organophosphates & carbamates, acute poisoning",
            "category": "diseases"
          },
          {
            "type": "name_match",
            "text": "organophosphates",
            "confidence": 1.0,
            "uuid": "8d2d239c-20f9-4f02-9916-5e7667b9990c",
            "name": "ORGANOPHOSPHATES",
            "url": "https://haz-map.com/Agents/702",
            "category": "agents"
          }
        ]
      }
    }
  },
  "cross_references": [
    {
      "type": "url_match",
      "text": "Organophosphates & carbamates, acute poisoning",
      "url": "https://haz-map.com/Diseases/66",
      "confidence": 1.0,
      "uuid": "aea2cba9-fb36-463f-84d8-b819551bb327",
      "name": "Organophosphates & carbamates, acute poisoning",
      "category": "diseases"
    },
    {
      "type": "name_match",
      "text": "neuropathy",
      "confidence": 1.0,
      "uuid": "8708368f-f68b-4a51-b1ea-01982070ed28",
      "name": "neuropathy",
      "url": "https://haz-map.com/Findings/85",
      "category": "findings"
    },
    {
      "type": "name_match",
      "text": "phosphoric acid",
      "confidence": 1.0,
      "uuid": "9049e74c-22b3-4fb1-8e7f-53f17c0ec74a",
      "name": "Phosphoric acid",
      "url": "https://haz-map.com/Agents/595",
      "category": "agents"
    },
    {
      "type": "name_match",
      "text": "triorthocresyl phosphate",
      "confidence": 1.0,
      "uuid": "23e4ea47-015f-4ee8-ab13-1631915e2a4e",
      "name": "Triorthocresyl phosphate",
      "url": "https://haz-map.com/Agents/669",
      "category": "agents"
    },
    {
      "type": "name_match",
      "text": "organophosphates",
      "confidence": 1.0,
      "uuid": "8d2d239c-20f9-4f02-9916-5e7667b9990c",
      "name": "ORGANOPHOSPHATES",
      "url": "https://haz-map.com/Agents/702",
      "category": "agents"
    },
    {
      "type": "name_match",
      "text": "tricresyl phosphate (mixed isomers)",
      "confidence": 1.0,
      "uuid": "de49b7a7-e1be-4839-a4be-574d9aaf7677",
      "name": "Tricresyl phosphate (mixed isomers)",
      "url": "https://haz-map.com/Agents/1784",
      "category": "agents"
    },
    {
      "type": "name_match",
      "text": "ht",
      "confidence": 1.0,
      "uuid": "764df367-8d53-4a11-81a2-31ccfe122a8d",
      "name": "HT",
      "url": "https://haz-map.com/Agents/2168",
      "category": "agents"
    },
    {
      "type": "name_match",
      "text": "tri-m-cresyl phosphate",
      "confidence": 1.0,
      "uuid": "a4a7e28a-2ec4-43b9-a62f-61c652d25590",
      "name": "Tri-m-cresyl phosphate",
      "url": "https://haz-map.com/Agents/6678",
      "category": "agents"
    },
    {
      "type": "name_match",
      "text": "tri-p-cresyl phosphate",
      "confidence": 1.0,
      "uuid": "249f8474-cd92-4ce1-b811-ed8f7c4fda4a",
      "name": "Tri-p-cresyl phosphate",
      "url": "https://haz-map.com/Agents/6680",
      "category": "agents"
    }
  ],
  "all_links": [
    {
      "text": "Search PubMed",
      "url": "https://www.ncbi.nlm.nih.gov/pubmed?term=Tri-m-cresyl+phosphate%20AND%20human%5Bmh%5D%20AND%20%28Occupational%20Diseases%20%5Bmh%5D%20OR%20Occupational%20Exposure%20%5Bmh%5D%29%20%20AND%20%28tox%5Bsb%5D%29&cmd=search"
    },
    {
      "text": "Organophosphates & carbamates, acute poisoning",
      "url": "https://haz-map.com/Diseases/66"
    }
  ]
}