{
  "metadata": {
    "scraped_from": "https://haz-map.com/Agents/801",
    "entity_name": "Isophorone diamine",
    "category": "agents",
    "uuid": "a4c3c9b5-9bf1-43b0-a4af-2188f131a5b0",
    "scraped_at": "2025-07-23T18:48:36.052700"
  },
  "parsed_at": "2025-07-24T01:15:34.861414",
  "title": "Isophorone diamine",
  "sections": {
    "general": {
      "agent_name": {
        "original_name": "Agent Name",
        "value": "Isophorone diamine",
        "links": [],
        "cross_references": [
          {
            "type": "name_match",
            "text": "isophorone",
            "confidence": 1.0,
            "uuid": "1a2155ea-24c0-47fa-80f4-9b4dd95f9892",
            "name": "Isophorone",
            "url": "https://haz-map.com/Agents/142",
            "category": "agents"
          },
          {
            "type": "name_match",
            "text": "isophorone diamine",
            "confidence": 1.0,
            "uuid": "a4c3c9b5-9bf1-43b0-a4af-2188f131a5b0",
            "name": "Isophorone diamine",
            "url": "https://haz-map.com/Agents/801",
            "category": "agents"
          },
          {
            "type": "name_match",
            "text": "phorone",
            "confidence": 1.0,
            "uuid": "6837b4a0-f73c-43aa-baad-d360d59492e2",
            "name": "Phorone",
            "url": "https://haz-map.com/Agents/21478",
            "category": "agents"
          }
        ]
      },
      "cas_number": {
        "original_name": "CAS Number",
        "value": "2855-13-2",
        "links": [],
        "cross_references": []
      },
      "formula": {
        "original_name": "Formula",
        "value": "C10-H22-N2",
        "links": [],
        "cross_references": []
      },
      "major_category": {
        "original_name": "Major Category",
        "value": "Nitrogen Compounds",
        "links": [],
        "cross_references": [
          {
            "type": "name_match",
            "text": "nitrogen",
            "confidence": 1.0,
            "uuid": "db5e90a9-06d2-45b9-8b81-f345a89b0bc0",
            "name": "Nitrogen",
            "url": "https://haz-map.com/Agents/1072",
            "category": "agents"
          }
        ]
      },
      "synonyms": {
        "original_name": "Synonyms",
        "value": "3-Aminomethyl-3,5,5-trimethylcyclohexylamine; 5-Amino-1,3,3-trimethylcyclohexanemethylamine; Cyclohexanemethanamine, 5-amino-1,3,3-trimethyl-; Cyclohexanemethylamine, 5-amino-1,3,3-trimethyl-; 3-Aminomethyl-3,5,5-trimethylcyclohexylamine; Cyclohexanemethanamine, 5-amino-1,3,3-trimethyl-; Isophoronediamine; [ChemIDplus] 1,3,3-Trimethyl-1-aminomethyl-5-aminocyclohexane; 1-Amino-3,3,5-trimethyl-5-aminomethylcyclohexane; 1-Amino-3-(aminomethyl)-3,5,5-trimethylcyclohexane; 3,3,5-Trimethyl-5-aminomethylcyclohexylamine; 3-Aminomethyl-3,5,5-trimethylcyclohexylamine; 5-Amino-1,3,3-trimethylcyclohexanemethanamine; Araldite HY 5083; Chemammina CA 17; IPD; Isoforondiamina (Spanish DOT); Isophoronediamine (French DOT); Luxam IPD; Vestamin IPD; [CAMEO] 1-Amino-3-aminomethyl-3,5,5-trimethylcyclohexane; 3-Aminomethyl-3,5,5-trimethylcyclohexylamin (German); Degamin IPDA; Isophorondiamin (German); [Reference #2] UN2289",
        "links": [],
        "cross_references": [
          {
            "type": "name_match",
            "text": "isophorone",
            "confidence": 1.0,
            "uuid": "1a2155ea-24c0-47fa-80f4-9b4dd95f9892",
            "name": "Isophorone",
            "url": "https://haz-map.com/Agents/142",
            "category": "agents"
          },
          {
            "type": "name_match",
            "text": "methylamine",
            "confidence": 1.0,
            "uuid": "7c3781b5-5294-474a-a015-e59574d00b69",
            "name": "Methylamine",
            "url": "https://haz-map.com/Agents/217",
            "category": "agents"
          },
          {
            "type": "name_match",
            "text": "ethylamine",
            "confidence": 1.0,
            "uuid": "41ca4da8-b990-420a-86b2-3d77404fb7f4",
            "name": "Ethylamine",
            "url": "https://haz-map.com/Agents/220",
            "category": "agents"
          },
          {
            "type": "name_match",
            "text": "cyclohexylamine",
            "confidence": 1.0,
            "uuid": "4b55fc89-050d-4cad-9e6c-8b9e91f2b805",
            "name": "Cyclohexylamine",
            "url": "https://haz-map.com/Agents/226",
            "category": "agents"
          },
          {
            "type": "name_match",
            "text": "cyclohexane",
            "confidence": 1.0,
            "uuid": "366fabd7-ac2f-461c-969f-62dfe3bf2377",
            "name": "Cyclohexane",
            "url": "https://haz-map.com/Agents/384",
            "category": "agents"
          },
          {
            "type": "name_match",
            "text": "methylcyclohexane",
            "confidence": 1.0,
            "uuid": "958aa4b7-cbdf-4756-82f7-6b627d212422",
            "name": "Methylcyclohexane",
            "url": "https://haz-map.com/Agents/557",
            "category": "agents"
          },
          {
            "type": "name_match",
            "text": "ethylcyclohexane",
            "confidence": 1.0,
            "uuid": "69a79758-f136-47c2-86d8-130b138f4a83",
            "name": "Ethylcyclohexane",
            "url": "https://haz-map.com/Agents/8339",
            "category": "agents"
          },
          {
            "type": "name_match",
            "text": "hexylamine",
            "confidence": 1.0,
            "uuid": "d6024dfe-8865-49e0-9086-0d2662bb2ea8",
            "name": "Hexylamine",
            "url": "https://haz-map.com/Agents/19320",
            "category": "agents"
          },
          {
            "type": "name_match",
            "text": "phorone",
            "confidence": 1.0,
            "uuid": "6837b4a0-f73c-43aa-baad-d360d59492e2",
            "name": "Phorone",
            "url": "https://haz-map.com/Agents/21478",
            "category": "agents"
          },
          {
            "type": "fuzzy_match",
            "text": "3-trimethylcyclohexane",
            "matched_name": "1,1,3-Trimethylcyclohexane",
            "confidence": 0.8642533936651584,
            "uuid": "e49ad39c-e901-4ed9-858d-1e12dfc766e4",
            "category": "agents",
            "url": "https://haz-map.com/Agents/13404"
          },
          {
            "type": "fuzzy_match",
            "text": "5-trimethylcyclohexane",
            "matched_name": "1,3,5-Trimethylcyclohexane",
            "confidence": 0.8397435897435898,
            "uuid": "3ebef959-a4d6-47ad-b567-b0c78ddea863",
            "category": "agents",
            "url": "https://haz-map.com/Agents/13416"
          },
          {
            "type": "fuzzy_match",
            "text": "3-trimethylcyclohexane",
            "matched_name": "1,2,3-Trimethylcyclohexane",
            "confidence": 0.8397435897435898,
            "uuid": "90d75229-3924-4e0b-a22b-5f60bbed41c6",
            "category": "agents",
            "url": "https://haz-map.com/Agents/13409"
          },
          {
            "type": "fuzzy_match",
            "text": "5-trimethylcyclohexane",
            "matched_name": "cis-1,3,5-Trimethylcyclohexane",
            "confidence": 0.7614035087719297,
            "uuid": "63d999fa-b60b-4411-a781-8911b28cf890",
            "category": "agents",
            "url": "https://haz-map.com/Agents/12527"
          }
        ]
      },
      "category": {
        "original_name": "Category",
        "value": "Amines, Cyclic",
        "links": [],
        "cross_references": []
      },
      "description": {
        "original_name": "Description",
        "value": "Colourless liquid; mp = 10 deg C; [ICSC] Clear light yellow liquid; [Aldrich MSDS]",
        "links": [],
        "cross_references": [
          {
            "type": "name_match",
            "text": "ht",
            "confidence": 1.0,
            "uuid": "764df367-8d53-4a11-81a2-31ccfe122a8d",
            "name": "HT",
            "url": "https://haz-map.com/Agents/2168",
            "category": "agents"
          }
        ]
      },
      "sourcesuses": {
        "original_name": "Sources/Uses",
        "value": "Used to make its corresponding diisocyanate, polymers (mainly polyurethanes), and to cure epoxy resins; [HSDB] Used to make hardeners for epoxy resins and coatings (and directly as a hardener), in epoxy-based self-leveling and trowelable flooring systems, for paving, concrete protection, and repair, in coatings for corrosion protection of metal, adhesives, and anchoring compounds, and in paints; Also used to make dyes and non-crystalline specialty polyamides; [Reference #2]",
        "links": [],
        "cross_references": [
          {
            "type": "name_match",
            "text": "epoxy resins",
            "confidence": 1.0,
            "uuid": "4724cfe8-e98a-4ee6-a6de-25e8d9534e62",
            "name": "EPOXY RESINS",
            "url": "https://haz-map.com/Agents/30",
            "category": "agents"
          },
          {
            "type": "name_match",
            "text": "ethane",
            "confidence": 1.0,
            "uuid": "5162cc8c-dfb9-4060-81ac-38a8cec7f9dd",
            "name": "Ethane",
            "url": "https://haz-map.com/Agents/1075",
            "category": "agents"
          },
          {
            "type": "name_match",
            "text": "urethane",
            "confidence": 1.0,
            "uuid": "6405f173-6b8a-4d9b-a282-a1a6bf6901fd",
            "name": "Urethane",
            "url": "https://haz-map.com/Agents/2032",
            "category": "agents"
          },
          {
            "type": "fuzzy_match",
            "text": "crystalline",
            "matched_name": "Silica, crystalline",
            "confidence": 0.7061403508771931,
            "uuid": "f920e8a2-46df-41b7-af8d-0368a777251e",
            "category": "agents",
            "url": "https://haz-map.com/Agents/427"
          }
        ]
      },
      "comments": {
        "original_name": "Comments",
        "value": "If inhaled, it can provoke coughing and nausea. [CHRIS] An epoxy resin hardener and suspected cause of occupational asthma, isophorone diamine is one component of mixtures causing occupational asthma in two separate documented cases: (1) [Occupational asthma due to EPO 60. Lambourn EM, Hayes JP, McAllister WA, Taylor AJ. Br J Ind Med 1992 Apr;49(4):294-5]; and (2) [Occupational asthma caused by a hardener containing an aliphatic and a cycloaliphatic diamine. Aleva RM et al. Am Rev Respir Dis 1992 May;145(5):1217-8] Corrosive to skin, eyes, and respiratory tract; Inhalation can cause pulmonary edema; May cause skin sensitization. [ICSC] Danger of skin sensitization; [MAK] Causes burns; Inhalation may cause corrosive injuries to upper respiratory tract and lungs; Harmful by ingestion; [Aldrich MSDS]",
        "links": [],
        "cross_references": [
          {
            "type": "name_match",
            "text": "cough",
            "confidence": 1.0,
            "uuid": "c18f3d8e-9c2e-4cef-ace6-8008147b34b1",
            "name": "cough",
            "url": "https://haz-map.com/Findings/4",
            "category": "findings"
          },
          {
            "type": "name_match",
            "text": "pulmonary edema",
            "confidence": 1.0,
            "uuid": "ee39114e-c922-40fd-9588-a532de404962",
            "name": "pulmonary edema",
            "url": "https://haz-map.com/Findings/186",
            "category": "findings"
          },
          {
            "type": "name_match",
            "text": "burn",
            "confidence": 1.0,
            "uuid": "63665de5-6376-4918-8dbf-4c10c4d63837",
            "name": "burn",
            "url": "https://haz-map.com/Findings/204",
            "category": "findings"
          },
          {
            "type": "name_match",
            "text": "isophorone",
            "confidence": 1.0,
            "uuid": "1a2155ea-24c0-47fa-80f4-9b4dd95f9892",
            "name": "Isophorone",
            "url": "https://haz-map.com/Agents/142",
            "category": "agents"
          },
          {
            "type": "name_match",
            "text": "isophorone diamine",
            "confidence": 1.0,
            "uuid": "a4c3c9b5-9bf1-43b0-a4af-2188f131a5b0",
            "name": "Isophorone diamine",
            "url": "https://haz-map.com/Agents/801",
            "category": "agents"
          },
          {
            "type": "name_match",
            "text": "epo 60",
            "confidence": 1.0,
            "uuid": "e15ee0da-4069-4cbc-8dcb-f5822c2dd9a1",
            "name": "EPO 60",
            "url": "https://haz-map.com/Agents/811",
            "category": "agents"
          },
          {
            "type": "name_match",
            "text": "phorone",
            "confidence": 1.0,
            "uuid": "6837b4a0-f73c-43aa-baad-d360d59492e2",
            "name": "Phorone",
            "url": "https://haz-map.com/Agents/21478",
            "category": "agents"
          }
        ]
      },
      "reference_link_1": {
        "original_name": "Reference Link #1",
        "value": "Occupational asthma caused by a hardener containing an aliphatic and a cycloaliphatic diamine",
        "links": [
          {
            "text": "Occupational asthma caused by a hardener containing an aliphatic and a cycloaliphatic diamine",
            "url": "http://www.ncbi.nlm.nih.gov/entrez/query.fcgi?cmd=Retrieve&db=PubMed&list_uids=1586069&dopt=Abstract"
          }
        ],
        "cross_references": []
      },
      "biomedical_references": {
        "original_name": "Biomedical References",
        "value": "Search PubMed",
        "links": [
          {
            "text": "Search PubMed",
            "url": "https://www.ncbi.nlm.nih.gov/pubmed?term=Isophorone+diamine%20AND%20human%5Bmh%5D%20AND%20%28Occupational%20Diseases%20%5Bmh%5D%20OR%20Occupational%20Exposure%20%5Bmh%5D%29%20%20AND%20%28tox%5Bsb%5D%29&cmd=search"
          }
        ],
        "cross_references": []
      }
    },
    "exposure_assessment": {
      "vapor_pressure": {
        "original_name": "Vapor Pressure",
        "value": "0.015 mm Hg",
        "links": [],
        "cross_references": []
      },
      "explanatory_notes": {
        "original_name": "Explanatory Notes",
        "value": "Flash point =112 deg C; Vapour pressure, Pa at 20°C: 2; [ICSC]",
        "links": [],
        "cross_references": [
          {
            "type": "name_match",
            "text": "ash",
            "confidence": 1.0,
            "uuid": "68b360f1-5ad0-4337-bea0-d7adca2961b5",
            "name": "Ash",
            "url": "https://haz-map.com/Agents/965",
            "category": "agents"
          }
        ]
      },
      "reference_link_2": {
        "original_name": "Reference Link #2",
        "value": "OECD SIDS: 3-Aminomethyl-3,5,5-trimethylcyclohexylamine - 2004",
        "links": [
          {
            "text": "OECD SIDS: 3-Aminomethyl-3,5,5-trimethylcyclohexylamine - 2004",
            "url": "http://www.inchem.org/documents/sids/sids/2855132.pdf"
          }
        ],
        "cross_references": [
          {
            "type": "name_match",
            "text": "cyclohexylamine",
            "confidence": 1.0,
            "uuid": "4b55fc89-050d-4cad-9e6c-8b9e91f2b805",
            "name": "Cyclohexylamine",
            "url": "https://haz-map.com/Agents/226",
            "category": "agents"
          },
          {
            "type": "name_match",
            "text": "hexylamine",
            "confidence": 1.0,
            "uuid": "d6024dfe-8865-49e0-9086-0d2662bb2ea8",
            "name": "Hexylamine",
            "url": "https://haz-map.com/Agents/19320",
            "category": "agents"
          }
        ]
      }
    },
    "adverse_effects": {
      "skin_sensitizer": {
        "original_name": "Skin Sensitizer",
        "value": "Yes",
        "links": [],
        "cross_references": []
      },
      "asthma": {
        "original_name": "Asthma",
        "value": "Yes",
        "links": [],
        "cross_references": []
      },
      "toxic_pneumonitis": {
        "original_name": "Toxic Pneumonitis",
        "value": "Yes",
        "links": [],
        "cross_references": []
      },
      "dermatotoxin": {
        "original_name": "Dermatotoxin",
        "value": "Skin burns",
        "links": [],
        "cross_references": [
          {
            "type": "name_match",
            "text": "burn",
            "confidence": 1.0,
            "uuid": "63665de5-6376-4918-8dbf-4c10c4d63837",
            "name": "burn",
            "url": "https://haz-map.com/Findings/204",
            "category": "findings"
          }
        ]
      }
    },
    "diseases_processes_and_activities_linked_to_this_agent": {
      "diseases": {
        "original_name": "Diseases",
        "value": "Occupational diseases associated with exposure to this agent: Asthma, occupational Contact dermatitis, allergic",
        "links": [
          {
            "text": "Asthma, occupational",
            "url": "https://haz-map.com/Diseases/23"
          },
          {
            "text": "Contact dermatitis, allergic",
            "url": "https://haz-map.com/Diseases/18"
          }
        ],
        "cross_references": [
          {
            "type": "url_match",
            "text": "Asthma, occupational",
            "url": "https://haz-map.com/Diseases/23",
            "confidence": 1.0,
            "uuid": "29c464cb-36b2-43d8-b6fc-e19a0ea695cb",
            "name": "Asthma, occupational",
            "category": "diseases"
          },
          {
            "type": "url_match",
            "text": "Contact dermatitis, allergic",
            "url": "https://haz-map.com/Diseases/18",
            "confidence": 1.0,
            "uuid": "c9499de0-9aa1-41bf-8753-cd5b28a63e29",
            "name": "Contact dermatitis, allergic",
            "category": "diseases"
          },
          {
            "type": "name_match",
            "text": "dermatitis",
            "confidence": 1.0,
            "uuid": "fe9c05f2-b19f-4ceb-ac7a-ffb7d7a0cae0",
            "name": "dermatitis",
            "url": "https://haz-map.com/Findings/59",
            "category": "findings"
          }
        ]
      },
      "processes": {
        "original_name": "Processes",
        "value": "Industrial Processes with risk of exposure: Painting (Pigments, Binders, and Biocides) Plastic Composites Manufacturing Working with Glues and Adhesives",
        "links": [
          {
            "text": "Painting (Pigments, Binders, and Biocides)",
            "url": "https://haz-map.com/Processes/145"
          },
          {
            "text": "Plastic Composites Manufacturing",
            "url": "https://haz-map.com/Processes/222"
          },
          {
            "text": "Working with Glues and Adhesives",
            "url": "https://haz-map.com/Processes/155"
          }
        ],
        "cross_references": [
          {
            "type": "url_match",
            "text": "Painting (Pigments, Binders, and Biocides)",
            "url": "https://haz-map.com/Processes/145",
            "confidence": 1.0,
            "uuid": "25867878-e178-4c21-906f-d392d86b76de",
            "name": "Painting (Pigments, Binders, and Biocides)",
            "category": "processes"
          },
          {
            "type": "url_match",
            "text": "Plastic Composites Manufacturing",
            "url": "https://haz-map.com/Processes/222",
            "confidence": 1.0,
            "uuid": "d4461b82-dc77-4172-8e3d-0a5e3b213911",
            "name": "Plastic Composites Manufacturing",
            "category": "processes"
          },
          {
            "type": "url_match",
            "text": "Working with Glues and Adhesives",
            "url": "https://haz-map.com/Processes/155",
            "confidence": 1.0,
            "uuid": "acb9084f-52e8-4687-bd6a-bced94bda834",
            "name": "Working with Glues and Adhesives",
            "category": "processes"
          },
          {
            "type": "name_match",
            "text": "painting",
            "confidence": 1.0,
            "uuid": "19816ce9-9edf-4a86-8e64-b0cbf7dcf520",
            "name": "Painting",
            "url": "https://haz-map.com/Activities/9",
            "category": "activities"
          }
        ]
      }
    }
  },
  "cross_references": [
    {
      "type": "url_match",
      "text": "Asthma, occupational",
      "url": "https://haz-map.com/Diseases/23",
      "confidence": 1.0,
      "uuid": "29c464cb-36b2-43d8-b6fc-e19a0ea695cb",
      "name": "Asthma, occupational",
      "category": "diseases"
    },
    {
      "type": "url_match",
      "text": "Contact dermatitis, allergic",
      "url": "https://haz-map.com/Diseases/18",
      "confidence": 1.0,
      "uuid": "c9499de0-9aa1-41bf-8753-cd5b28a63e29",
      "name": "Contact dermatitis, allergic",
      "category": "diseases"
    },
    {
      "type": "url_match",
      "text": "Painting (Pigments, Binders, and Biocides)",
      "url": "https://haz-map.com/Processes/145",
      "confidence": 1.0,
      "uuid": "25867878-e178-4c21-906f-d392d86b76de",
      "name": "Painting (Pigments, Binders, and Biocides)",
      "category": "processes"
    },
    {
      "type": "url_match",
      "text": "Plastic Composites Manufacturing",
      "url": "https://haz-map.com/Processes/222",
      "confidence": 1.0,
      "uuid": "d4461b82-dc77-4172-8e3d-0a5e3b213911",
      "name": "Plastic Composites Manufacturing",
      "category": "processes"
    },
    {
      "type": "url_match",
      "text": "Working with Glues and Adhesives",
      "url": "https://haz-map.com/Processes/155",
      "confidence": 1.0,
      "uuid": "acb9084f-52e8-4687-bd6a-bced94bda834",
      "name": "Working with Glues and Adhesives",
      "category": "processes"
    },
    {
      "type": "name_match",
      "text": "painting",
      "confidence": 1.0,
      "uuid": "19816ce9-9edf-4a86-8e64-b0cbf7dcf520",
      "name": "Painting",
      "url": "https://haz-map.com/Activities/9",
      "category": "activities"
    },
    {
      "type": "name_match",
      "text": "cough",
      "confidence": 1.0,
      "uuid": "c18f3d8e-9c2e-4cef-ace6-8008147b34b1",
      "name": "cough",
      "url": "https://haz-map.com/Findings/4",
      "category": "findings"
    },
    {
      "type": "name_match",
      "text": "dermatitis",
      "confidence": 1.0,
      "uuid": "fe9c05f2-b19f-4ceb-ac7a-ffb7d7a0cae0",
      "name": "dermatitis",
      "url": "https://haz-map.com/Findings/59",
      "category": "findings"
    },
    {
      "type": "name_match",
      "text": "pulmonary edema",
      "confidence": 1.0,
      "uuid": "ee39114e-c922-40fd-9588-a532de404962",
      "name": "pulmonary edema",
      "url": "https://haz-map.com/Findings/186",
      "category": "findings"
    },
    {
      "type": "name_match",
      "text": "burn",
      "confidence": 1.0,
      "uuid": "63665de5-6376-4918-8dbf-4c10c4d63837",
      "name": "burn",
      "url": "https://haz-map.com/Findings/204",
      "category": "findings"
    },
    {
      "type": "name_match",
      "text": "epoxy resins",
      "confidence": 1.0,
      "uuid": "4724cfe8-e98a-4ee6-a6de-25e8d9534e62",
      "name": "EPOXY RESINS",
      "url": "https://haz-map.com/Agents/30",
      "category": "agents"
    },
    {
      "type": "name_match",
      "text": "isophorone",
      "confidence": 1.0,
      "uuid": "1a2155ea-24c0-47fa-80f4-9b4dd95f9892",
      "name": "Isophorone",
      "url": "https://haz-map.com/Agents/142",
      "category": "agents"
    },
    {
      "type": "name_match",
      "text": "methylamine",
      "confidence": 1.0,
      "uuid": "7c3781b5-5294-474a-a015-e59574d00b69",
      "name": "Methylamine",
      "url": "https://haz-map.com/Agents/217",
      "category": "agents"
    },
    {
      "type": "name_match",
      "text": "ethylamine",
      "confidence": 1.0,
      "uuid": "41ca4da8-b990-420a-86b2-3d77404fb7f4",
      "name": "Ethylamine",
      "url": "https://haz-map.com/Agents/220",
      "category": "agents"
    },
    {
      "type": "name_match",
      "text": "cyclohexylamine",
      "confidence": 1.0,
      "uuid": "4b55fc89-050d-4cad-9e6c-8b9e91f2b805",
      "name": "Cyclohexylamine",
      "url": "https://haz-map.com/Agents/226",
      "category": "agents"
    },
    {
      "type": "name_match",
      "text": "cyclohexane",
      "confidence": 1.0,
      "uuid": "366fabd7-ac2f-461c-969f-62dfe3bf2377",
      "name": "Cyclohexane",
      "url": "https://haz-map.com/Agents/384",
      "category": "agents"
    },
    {
      "type": "name_match",
      "text": "methylcyclohexane",
      "confidence": 1.0,
      "uuid": "958aa4b7-cbdf-4756-82f7-6b627d212422",
      "name": "Methylcyclohexane",
      "url": "https://haz-map.com/Agents/557",
      "category": "agents"
    },
    {
      "type": "name_match",
      "text": "isophorone diamine",
      "confidence": 1.0,
      "uuid": "a4c3c9b5-9bf1-43b0-a4af-2188f131a5b0",
      "name": "Isophorone diamine",
      "url": "https://haz-map.com/Agents/801",
      "category": "agents"
    },
    {
      "type": "name_match",
      "text": "epo 60",
      "confidence": 1.0,
      "uuid": "e15ee0da-4069-4cbc-8dcb-f5822c2dd9a1",
      "name": "EPO 60",
      "url": "https://haz-map.com/Agents/811",
      "category": "agents"
    },
    {
      "type": "name_match",
      "text": "ash",
      "confidence": 1.0,
      "uuid": "68b360f1-5ad0-4337-bea0-d7adca2961b5",
      "name": "Ash",
      "url": "https://haz-map.com/Agents/965",
      "category": "agents"
    },
    {
      "type": "name_match",
      "text": "nitrogen",
      "confidence": 1.0,
      "uuid": "db5e90a9-06d2-45b9-8b81-f345a89b0bc0",
      "name": "Nitrogen",
      "url": "https://haz-map.com/Agents/1072",
      "category": "agents"
    },
    {
      "type": "name_match",
      "text": "ethane",
      "confidence": 1.0,
      "uuid": "5162cc8c-dfb9-4060-81ac-38a8cec7f9dd",
      "name": "Ethane",
      "url": "https://haz-map.com/Agents/1075",
      "category": "agents"
    },
    {
      "type": "name_match",
      "text": "urethane",
      "confidence": 1.0,
      "uuid": "6405f173-6b8a-4d9b-a282-a1a6bf6901fd",
      "name": "Urethane",
      "url": "https://haz-map.com/Agents/2032",
      "category": "agents"
    },
    {
      "type": "name_match",
      "text": "ht",
      "confidence": 1.0,
      "uuid": "764df367-8d53-4a11-81a2-31ccfe122a8d",
      "name": "HT",
      "url": "https://haz-map.com/Agents/2168",
      "category": "agents"
    },
    {
      "type": "name_match",
      "text": "ethylcyclohexane",
      "confidence": 1.0,
      "uuid": "69a79758-f136-47c2-86d8-130b138f4a83",
      "name": "Ethylcyclohexane",
      "url": "https://haz-map.com/Agents/8339",
      "category": "agents"
    },
    {
      "type": "name_match",
      "text": "hexylamine",
      "confidence": 1.0,
      "uuid": "d6024dfe-8865-49e0-9086-0d2662bb2ea8",
      "name": "Hexylamine",
      "url": "https://haz-map.com/Agents/19320",
      "category": "agents"
    },
    {
      "type": "name_match",
      "text": "phorone",
      "confidence": 1.0,
      "uuid": "6837b4a0-f73c-43aa-baad-d360d59492e2",
      "name": "Phorone",
      "url": "https://haz-map.com/Agents/21478",
      "category": "agents"
    },
    {
      "type": "fuzzy_match",
      "text": "3-trimethylcyclohexane",
      "matched_name": "1,1,3-Trimethylcyclohexane",
      "confidence": 0.8642533936651584,
      "uuid": "e49ad39c-e901-4ed9-858d-1e12dfc766e4",
      "category": "agents",
      "url": "https://haz-map.com/Agents/13404"
    },
    {
      "type": "fuzzy_match",
      "text": "5-trimethylcyclohexane",
      "matched_name": "1,3,5-Trimethylcyclohexane",
      "confidence": 0.8397435897435898,
      "uuid": "3ebef959-a4d6-47ad-b567-b0c78ddea863",
      "category": "agents",
      "url": "https://haz-map.com/Agents/13416"
    },
    {
      "type": "fuzzy_match",
      "text": "3-trimethylcyclohexane",
      "matched_name": "1,2,3-Trimethylcyclohexane",
      "confidence": 0.8397435897435898,
      "uuid": "90d75229-3924-4e0b-a22b-5f60bbed41c6",
      "category": "agents",
      "url": "https://haz-map.com/Agents/13409"
    },
    {
      "type": "fuzzy_match",
      "text": "5-trimethylcyclohexane",
      "matched_name": "cis-1,3,5-Trimethylcyclohexane",
      "confidence": 0.7614035087719297,
      "uuid": "63d999fa-b60b-4411-a781-8911b28cf890",
      "category": "agents",
      "url": "https://haz-map.com/Agents/12527"
    },
    {
      "type": "fuzzy_match",
      "text": "crystalline",
      "matched_name": "Silica, crystalline",
      "confidence": 0.7061403508771931,
      "uuid": "f920e8a2-46df-41b7-af8d-0368a777251e",
      "category": "agents",
      "url": "https://haz-map.com/Agents/427"
    }
  ],
  "all_links": [
    {
      "text": "Occupational asthma caused by a hardener containing an aliphatic and a cycloaliphatic diamine",
      "url": "http://www.ncbi.nlm.nih.gov/entrez/query.fcgi?cmd=Retrieve&db=PubMed&list_uids=1586069&dopt=Abstract"
    },
    {
      "text": "Search PubMed",
      "url": "https://www.ncbi.nlm.nih.gov/pubmed?term=Isophorone+diamine%20AND%20human%5Bmh%5D%20AND%20%28Occupational%20Diseases%20%5Bmh%5D%20OR%20Occupational%20Exposure%20%5Bmh%5D%29%20%20AND%20%28tox%5Bsb%5D%29&cmd=search"
    },
    {
      "text": "OECD SIDS: 3-Aminomethyl-3,5,5-trimethylcyclohexylamine - 2004",
      "url": "http://www.inchem.org/documents/sids/sids/2855132.pdf"
    },
    {
      "text": "Asthma, occupational",
      "url": "https://haz-map.com/Diseases/23"
    },
    {
      "text": "Contact dermatitis, allergic",
      "url": "https://haz-map.com/Diseases/18"
    },
    {
      "text": "Painting (Pigments, Binders, and Biocides)",
      "url": "https://haz-map.com/Processes/145"
    },
    {
      "text": "Plastic Composites Manufacturing",
      "url": "https://haz-map.com/Processes/222"
    },
    {
      "text": "Working with Glues and Adhesives",
      "url": "https://haz-map.com/Processes/155"
    }
  ]
}