{
  "metadata": {
    "scraped_from": "https://haz-map.com/Agents/13973",
    "entity_name": "DMPA",
    "category": "agents",
    "uuid": "a4d662ac-60a9-4549-8a5e-a8d19ae87d60",
    "scraped_at": "2025-07-23T21:19:55.521851"
  },
  "parsed_at": "2025-07-24T01:17:43.516851",
  "title": "DMPA",
  "sections": {
    "general": {
      "agent_name": {
        "original_name": "Agent Name",
        "value": "DMPA",
        "links": [],
        "cross_references": [
          {
            "type": "name_match",
            "text": "dmpa",
            "confidence": 1.0,
            "uuid": "a4d662ac-60a9-4549-8a5e-a8d19ae87d60",
            "name": "DMPA",
            "url": "https://haz-map.com/Agents/13973",
            "category": "agents"
          }
        ]
      },
      "alternative_name": {
        "original_name": "Alternative Name",
        "value": "Zytron",
        "links": [],
        "cross_references": []
      },
      "cas_number": {
        "original_name": "CAS Number",
        "value": "299-85-4",
        "links": [],
        "cross_references": []
      },
      "formula": {
        "original_name": "Formula",
        "value": "C10-H14-Cl2-N-O2-P-S",
        "links": [],
        "cross_references": []
      },
      "major_category": {
        "original_name": "Major Category",
        "value": "Pesticides",
        "links": [],
        "cross_references": []
      },
      "synonyms": {
        "original_name": "Synonyms",
        "value": "(1-Methylethyl)phosphoramidothioic acid O-(2,4-dichlorophenyl) O-methyl ester; DMPA (herbicide); Dow 1329; Dowco 118; ENT 25647; Isopropylphosphoramidothioic acid, O-2,4-dichlorophenyl O-methyl ester; K 22023; O-(2,4-Dichlorophenyl) O-methyl isopropylphosphoramidothioate; O-Methyl-O-(2,4-dichlorfenyl)ester kyseliny isopropylamidothiofosforecne [Czech]; OMS 115; Phenol, 2,4-dichloro-, O-ester with O-methyl isopropylphosphoramidothioate; Zytron; Zytron Herbicide; Phosphoramidothioic acid, (1-methylethyl)-, O-(2,4-dichlorophenyl) O-methyl ester; Phosphoramidothioic acid, isopropyl-, O-(2,4-dichlorophenyl) O-methyl ester; [ChemIDplus] N-(1-Methylethyl)phosphoramidothioic acid O-(2,4-dichlorophenyl) O-methyl ester; Isopropylphosphoramidothioic acid O-2,4-(dichlorophenyl) O-methyl ester; [Merck Index]",
        "links": [],
        "cross_references": [
          {
            "type": "name_match",
            "text": "phenol",
            "confidence": 1.0,
            "uuid": "03141a03-a7df-4f51-9a37-adde1a7c4b31",
            "name": "Phenol",
            "url": "https://haz-map.com/Agents/84",
            "category": "agents"
          },
          {
            "type": "name_match",
            "text": "2,4-d",
            "confidence": 1.0,
            "uuid": "bed35f54-2d93-4ffd-a3ee-723ab365faf1",
            "name": "2,4-D",
            "url": "https://haz-map.com/Agents/389",
            "category": "agents"
          },
          {
            "type": "name_match",
            "text": "dichlorophen",
            "confidence": 1.0,
            "uuid": "43441a9d-e8c4-49f1-8bbf-52d24da33df3",
            "name": "Dichlorophen",
            "url": "https://haz-map.com/Agents/1159",
            "category": "agents"
          },
          {
            "type": "name_match",
            "text": "dmpa",
            "confidence": 1.0,
            "uuid": "a4d662ac-60a9-4549-8a5e-a8d19ae87d60",
            "name": "DMPA",
            "url": "https://haz-map.com/Agents/13973",
            "category": "agents"
          }
        ]
      },
      "category": {
        "original_name": "Category",
        "value": "Herbicides, Chlorophenoxy",
        "links": [],
        "cross_references": [
          {
            "type": "name_match",
            "text": "herbicides",
            "confidence": 1.0,
            "uuid": "195f29ae-3f15-47c5-836d-0a9791db3fc1",
            "name": "HERBICIDES",
            "url": "https://haz-map.com/Agents/703",
            "category": "agents"
          }
        ]
      },
      "description": {
        "original_name": "Description",
        "value": "Solid; [Merck Index]",
        "links": [],
        "cross_references": []
      },
      "sourcesuses": {
        "original_name": "Sources/Uses",
        "value": "Used as a herbicide and plant growth regulator; [Merck Index] No active product registrations in the US; [NPIRS]",
        "links": [],
        "cross_references": []
      },
      "comments": {
        "original_name": "Comments",
        "value": "Causes somnolence, convulsions, and ataxia in oral lethal-dose studies of chickens; [RTECS] See \"Crag herbicide.\"",
        "links": [],
        "cross_references": [
          {
            "type": "name_match",
            "text": "convulsion",
            "confidence": 1.0,
            "uuid": "af2c36f8-707a-48e3-a62b-1aa07adc9b72",
            "name": "convulsion",
            "url": "https://haz-map.com/Findings/14",
            "category": "findings"
          },
          {
            "type": "name_match",
            "text": "crag herbicide",
            "confidence": 1.0,
            "uuid": "6ac0d6bf-f0c0-4421-bcf0-419747ef9522",
            "name": "Crag herbicide",
            "url": "https://haz-map.com/Agents/376",
            "category": "agents"
          }
        ]
      },
      "biomedical_references": {
        "original_name": "Biomedical References",
        "value": "Search PubMed",
        "links": [
          {
            "text": "Search PubMed",
            "url": "https://www.ncbi.nlm.nih.gov/pubmed?term=DMPA%20AND%20human%5Bmh%5D%20AND%20%28Occupational%20Diseases%20%5Bmh%5D%20OR%20Occupational%20Exposure%20%5Bmh%5D%29%20%20AND%20%28tox%5Bsb%5D%29&cmd=search"
          }
        ],
        "cross_references": []
      }
    },
    "exposure_assessment": {
      "vapor_pressure": {
        "original_name": "Vapor Pressure",
        "value": "6.14E-05 mm Hg",
        "links": [],
        "cross_references": []
      }
    },
    "adverse_effects": {
      "neurotoxin": {
        "original_name": "Neurotoxin",
        "value": "Other CNS neurotoxin",
        "links": [],
        "cross_references": []
      }
    },
    "diseases_processes_and_activities_linked_to_this_agent": {
      "other_information": {
        "original_name": "Other Information",
        "value": "No other related information on this agent was found.",
        "links": [],
        "cross_references": []
      }
    }
  },
  "cross_references": [
    {
      "type": "name_match",
      "text": "convulsion",
      "confidence": 1.0,
      "uuid": "af2c36f8-707a-48e3-a62b-1aa07adc9b72",
      "name": "convulsion",
      "url": "https://haz-map.com/Findings/14",
      "category": "findings"
    },
    {
      "type": "name_match",
      "text": "phenol",
      "confidence": 1.0,
      "uuid": "03141a03-a7df-4f51-9a37-adde1a7c4b31",
      "name": "Phenol",
      "url": "https://haz-map.com/Agents/84",
      "category": "agents"
    },
    {
      "type": "name_match",
      "text": "crag herbicide",
      "confidence": 1.0,
      "uuid": "6ac0d6bf-f0c0-4421-bcf0-419747ef9522",
      "name": "Crag herbicide",
      "url": "https://haz-map.com/Agents/376",
      "category": "agents"
    },
    {
      "type": "name_match",
      "text": "2,4-d",
      "confidence": 1.0,
      "uuid": "bed35f54-2d93-4ffd-a3ee-723ab365faf1",
      "name": "2,4-D",
      "url": "https://haz-map.com/Agents/389",
      "category": "agents"
    },
    {
      "type": "name_match",
      "text": "herbicides",
      "confidence": 1.0,
      "uuid": "195f29ae-3f15-47c5-836d-0a9791db3fc1",
      "name": "HERBICIDES",
      "url": "https://haz-map.com/Agents/703",
      "category": "agents"
    },
    {
      "type": "name_match",
      "text": "dichlorophen",
      "confidence": 1.0,
      "uuid": "43441a9d-e8c4-49f1-8bbf-52d24da33df3",
      "name": "Dichlorophen",
      "url": "https://haz-map.com/Agents/1159",
      "category": "agents"
    },
    {
      "type": "name_match",
      "text": "dmpa",
      "confidence": 1.0,
      "uuid": "a4d662ac-60a9-4549-8a5e-a8d19ae87d60",
      "name": "DMPA",
      "url": "https://haz-map.com/Agents/13973",
      "category": "agents"
    }
  ],
  "all_links": [
    {
      "text": "Search PubMed",
      "url": "https://www.ncbi.nlm.nih.gov/pubmed?term=DMPA%20AND%20human%5Bmh%5D%20AND%20%28Occupational%20Diseases%20%5Bmh%5D%20OR%20Occupational%20Exposure%20%5Bmh%5D%29%20%20AND%20%28tox%5Bsb%5D%29&cmd=search"
    }
  ]
}