{
  "metadata": {
    "scraped_from": "https://haz-map.com/Agents/1903",
    "entity_name": "Gadolinium",
    "category": "agents",
    "uuid": "a54275c8-b37e-49a1-9960-50fd78cd9f19",
    "scraped_at": "2025-07-23T19:06:25.073012"
  },
  "parsed_at": "2025-07-24T01:15:04.576899",
  "title": "Gadolinium",
  "sections": {
    "general": {
      "agent_name": {
        "original_name": "Agent Name",
        "value": "Gadolinium",
        "links": [],
        "cross_references": [
          {
            "type": "name_match",
            "text": "gadolinium",
            "confidence": 1.0,
            "uuid": "a54275c8-b37e-49a1-9960-50fd78cd9f19",
            "name": "Gadolinium",
            "url": "https://haz-map.com/Agents/1903",
            "category": "agents"
          }
        ]
      },
      "cas_number": {
        "original_name": "CAS Number",
        "value": "7440-54-2",
        "links": [],
        "cross_references": []
      },
      "formula": {
        "original_name": "Formula",
        "value": "Gd",
        "links": [],
        "cross_references": []
      },
      "major_category": {
        "original_name": "Major Category",
        "value": "Metals",
        "links": [],
        "cross_references": []
      },
      "synonyms": {
        "original_name": "Synonyms",
        "value": "UN1383 (Pyroporic metal); [MSDSonline]",
        "links": [],
        "cross_references": []
      },
      "category": {
        "original_name": "Category",
        "value": "Rare Earth Metals",
        "links": [],
        "cross_references": [
          {
            "type": "name_match",
            "text": "rare earth metals",
            "confidence": 1.0,
            "uuid": "d407be39-4246-4092-9972-c293dd5b7b71",
            "name": "RARE EARTH METALS",
            "url": "https://haz-map.com/Agents/2621",
            "category": "agents"
          }
        ]
      },
      "description": {
        "original_name": "Description",
        "value": "Silvery white, malleable metal that tarnishes in moist air; [Reference #2]",
        "links": [],
        "cross_references": [
          {
            "type": "name_match",
            "text": "silver",
            "confidence": 1.0,
            "uuid": "d8f69733-c0d2-4da6-9251-c7848c2137d2",
            "name": "Silver",
            "url": "https://haz-map.com/Agents/40",
            "category": "agents"
          }
        ]
      },
      "sourcesuses": {
        "original_name": "Sources/Uses",
        "value": "Used in the control rods of some nuclear reactors; Natural isotopes include Gd-152 (radioactive); the remaining six isotopes are stable and comprise 99.8% of naturally occurring gadolinium; Mineral sources are samarskite, gadolinite (ytterbite), and xenotime; [Merck Index] Used in electronic applications (gadolinium yttrium garnets and phosphors), metallurgy (iron and chromium alloys), and as a contrast agent for MRI (magnetic resonance imaging); [Wikipedia] Used in high-temperature alloys and in electronic components; [Britannica]",
        "links": [],
        "cross_references": [
          {
            "type": "name_match",
            "text": "chromium",
            "confidence": 1.0,
            "uuid": "84822d7b-b69c-44a8-96b3-a0e606e38049",
            "name": "Chromium",
            "url": "https://haz-map.com/Agents/7",
            "category": "agents"
          },
          {
            "type": "name_match",
            "text": "yttrium",
            "confidence": 1.0,
            "uuid": "d14e3097-1905-4777-bc37-06c3c435891e",
            "name": "Yttrium",
            "url": "https://haz-map.com/Agents/678",
            "category": "agents"
          },
          {
            "type": "name_match",
            "text": "gadolinium",
            "confidence": 1.0,
            "uuid": "a54275c8-b37e-49a1-9960-50fd78cd9f19",
            "name": "Gadolinium",
            "url": "https://haz-map.com/Agents/1903",
            "category": "agents"
          },
          {
            "type": "name_match",
            "text": "iron",
            "confidence": 1.0,
            "uuid": "a6101f16-ec31-4d6c-af41-cbdbda5b1c7c",
            "name": "Iron",
            "url": "https://haz-map.com/Agents/1993",
            "category": "agents"
          },
          {
            "type": "name_match",
            "text": "alloys",
            "confidence": 1.0,
            "uuid": "9666ccee-2fab-426c-b33d-4f9032422585",
            "name": "ALLOYS",
            "url": "https://haz-map.com/Agents/2201",
            "category": "agents"
          },
          {
            "type": "name_match",
            "text": "xenotime",
            "confidence": 1.0,
            "uuid": "c44a8d99-cef8-4834-81f0-dbeec265060b",
            "name": "Xenotime",
            "url": "https://haz-map.com/Agents/18702",
            "category": "agents"
          }
        ]
      },
      "comments": {
        "original_name": "Comments",
        "value": "In contact with water, gadolinium powder releases flammable hydrogen; [MSDSonline] Used in MRI contrast agents, gadolinium has been linked to Nephrogenic Systemic Fibrosis or Nephrogenic Fibrosing Dermopathy (NSF/NFD). \"The 25 cases of NSF/NFD were reported on May 29, 2006, by the Danish Medicines Agency. Among these, 20 cases occurred in Denmark and five cases occurred in Austria. The patients developed NSF/SFD within 3 months (range 2 weeks to 3 months) after receiving the gadolinium-containing contrast agent.\" [Reference #1] See \"RARE EARTH METALS\" and linked occupational diseases.",
        "links": [],
        "cross_references": [
          {
            "type": "name_match",
            "text": "hydrogen",
            "confidence": 1.0,
            "uuid": "e2d9645f-5559-4d88-b820-fc4710c154f2",
            "name": "Hydrogen",
            "url": "https://haz-map.com/Agents/1070",
            "category": "agents"
          },
          {
            "type": "name_match",
            "text": "gadolinium",
            "confidence": 1.0,
            "uuid": "a54275c8-b37e-49a1-9960-50fd78cd9f19",
            "name": "Gadolinium",
            "url": "https://haz-map.com/Agents/1903",
            "category": "agents"
          },
          {
            "type": "name_match",
            "text": "rare earth metals",
            "confidence": 1.0,
            "uuid": "d407be39-4246-4092-9972-c293dd5b7b71",
            "name": "RARE EARTH METALS",
            "url": "https://haz-map.com/Agents/2621",
            "category": "agents"
          },
          {
            "type": "name_match",
            "text": "water",
            "confidence": 1.0,
            "uuid": "6f2a7557-dfd2-49bc-9b4b-a93cd8e225d4",
            "name": "Water",
            "url": "https://haz-map.com/Agents/18668",
            "category": "agents"
          }
        ]
      },
      "reference_link_1": {
        "original_name": "Reference Link #1",
        "value": "FDA Public Health Advisory: Gadolinium-containing Contrast Agents for Magnetic Resonance Imaging (MRI): Omniscan, OptiMARK, Magnevist, ProHance, and MultiHance",
        "links": [
          {
            "text": "FDA Public Health Advisory: Gadolinium-containing Contrast Agents for Magnetic Resonance Imaging (MRI): Omniscan, OptiMARK, Magnevist, ProHance, and MultiHance",
            "url": "http://www.fda.gov/Drugs/DrugSafety/ucm223966.htm"
          }
        ],
        "cross_references": [
          {
            "type": "name_match",
            "text": "gadolinium",
            "confidence": 1.0,
            "uuid": "a54275c8-b37e-49a1-9960-50fd78cd9f19",
            "name": "Gadolinium",
            "url": "https://haz-map.com/Agents/1903",
            "category": "agents"
          }
        ]
      },
      "biomedical_references": {
        "original_name": "Biomedical References",
        "value": "Search PubMed",
        "links": [
          {
            "text": "Search PubMed",
            "url": "https://www.ncbi.nlm.nih.gov/pubmed?term=Gadolinium%20AND%20human%5Bmh%5D%20AND%20%28Occupational%20Diseases%20%5Bmh%5D%20OR%20Occupational%20Exposure%20%5Bmh%5D%29%20%20AND%20%28tox%5Bsb%5D%29&cmd=search"
          }
        ],
        "cross_references": []
      }
    },
    "exposure_assessment": {
      "explanatory_notes": {
        "original_name": "Explanatory Notes",
        "value": "Melting point = 1312 degrees C. [Sax]",
        "links": [],
        "cross_references": []
      },
      "reference_link_2": {
        "original_name": "Reference Link #2",
        "value": "LANL: Gadolinium",
        "links": [
          {
            "text": "LANL: Gadolinium",
            "url": "http://periodic.lanl.gov/64.shtml"
          }
        ],
        "cross_references": [
          {
            "type": "name_match",
            "text": "gadolinium",
            "confidence": 1.0,
            "uuid": "a54275c8-b37e-49a1-9960-50fd78cd9f19",
            "name": "Gadolinium",
            "url": "https://haz-map.com/Agents/1903",
            "category": "agents"
          }
        ]
      }
    },
    "adverse_effects": {
      "fibrogenic": {
        "original_name": "Fibrogenic",
        "value": "Yes",
        "links": [],
        "cross_references": []
      },
      "nephrotoxin": {
        "original_name": "Nephrotoxin",
        "value": "Yes",
        "links": [],
        "cross_references": []
      }
    },
    "diseases_processes_and_activities_linked_to_this_agent": {
      "processes": {
        "original_name": "Processes",
        "value": "Industrial Processes with risk of exposure: Metal Preparation and Pouring Mining",
        "links": [
          {
            "text": "Metal Preparation and Pouring",
            "url": "https://haz-map.com/Processes/26"
          },
          {
            "text": "Mining",
            "url": "https://haz-map.com/Processes/219"
          }
        ],
        "cross_references": [
          {
            "type": "url_match",
            "text": "Metal Preparation and Pouring",
            "url": "https://haz-map.com/Processes/26",
            "confidence": 1.0,
            "uuid": "fceac193-d92a-473f-b69f-e76b74928978",
            "name": "Metal Preparation and Pouring",
            "category": "processes"
          },
          {
            "type": "url_match",
            "text": "Mining",
            "url": "https://haz-map.com/Processes/219",
            "confidence": 1.0,
            "uuid": "aaa4a4af-567a-4a01-83bc-ccad9fc73d04",
            "name": "Mining",
            "category": "processes"
          }
        ]
      }
    }
  },
  "cross_references": [
    {
      "type": "url_match",
      "text": "Metal Preparation and Pouring",
      "url": "https://haz-map.com/Processes/26",
      "confidence": 1.0,
      "uuid": "fceac193-d92a-473f-b69f-e76b74928978",
      "name": "Metal Preparation and Pouring",
      "category": "processes"
    },
    {
      "type": "url_match",
      "text": "Mining",
      "url": "https://haz-map.com/Processes/219",
      "confidence": 1.0,
      "uuid": "aaa4a4af-567a-4a01-83bc-ccad9fc73d04",
      "name": "Mining",
      "category": "processes"
    },
    {
      "type": "name_match",
      "text": "chromium",
      "confidence": 1.0,
      "uuid": "84822d7b-b69c-44a8-96b3-a0e606e38049",
      "name": "Chromium",
      "url": "https://haz-map.com/Agents/7",
      "category": "agents"
    },
    {
      "type": "name_match",
      "text": "silver",
      "confidence": 1.0,
      "uuid": "d8f69733-c0d2-4da6-9251-c7848c2137d2",
      "name": "Silver",
      "url": "https://haz-map.com/Agents/40",
      "category": "agents"
    },
    {
      "type": "name_match",
      "text": "yttrium",
      "confidence": 1.0,
      "uuid": "d14e3097-1905-4777-bc37-06c3c435891e",
      "name": "Yttrium",
      "url": "https://haz-map.com/Agents/678",
      "category": "agents"
    },
    {
      "type": "name_match",
      "text": "hydrogen",
      "confidence": 1.0,
      "uuid": "e2d9645f-5559-4d88-b820-fc4710c154f2",
      "name": "Hydrogen",
      "url": "https://haz-map.com/Agents/1070",
      "category": "agents"
    },
    {
      "type": "name_match",
      "text": "gadolinium",
      "confidence": 1.0,
      "uuid": "a54275c8-b37e-49a1-9960-50fd78cd9f19",
      "name": "Gadolinium",
      "url": "https://haz-map.com/Agents/1903",
      "category": "agents"
    },
    {
      "type": "name_match",
      "text": "iron",
      "confidence": 1.0,
      "uuid": "a6101f16-ec31-4d6c-af41-cbdbda5b1c7c",
      "name": "Iron",
      "url": "https://haz-map.com/Agents/1993",
      "category": "agents"
    },
    {
      "type": "name_match",
      "text": "alloys",
      "confidence": 1.0,
      "uuid": "9666ccee-2fab-426c-b33d-4f9032422585",
      "name": "ALLOYS",
      "url": "https://haz-map.com/Agents/2201",
      "category": "agents"
    },
    {
      "type": "name_match",
      "text": "rare earth metals",
      "confidence": 1.0,
      "uuid": "d407be39-4246-4092-9972-c293dd5b7b71",
      "name": "RARE EARTH METALS",
      "url": "https://haz-map.com/Agents/2621",
      "category": "agents"
    },
    {
      "type": "name_match",
      "text": "water",
      "confidence": 1.0,
      "uuid": "6f2a7557-dfd2-49bc-9b4b-a93cd8e225d4",
      "name": "Water",
      "url": "https://haz-map.com/Agents/18668",
      "category": "agents"
    },
    {
      "type": "name_match",
      "text": "xenotime",
      "confidence": 1.0,
      "uuid": "c44a8d99-cef8-4834-81f0-dbeec265060b",
      "name": "Xenotime",
      "url": "https://haz-map.com/Agents/18702",
      "category": "agents"
    }
  ],
  "all_links": [
    {
      "text": "FDA Public Health Advisory: Gadolinium-containing Contrast Agents for Magnetic Resonance Imaging (MRI): Omniscan, OptiMARK, Magnevist, ProHance, and MultiHance",
      "url": "http://www.fda.gov/Drugs/DrugSafety/ucm223966.htm"
    },
    {
      "text": "Search PubMed",
      "url": "https://www.ncbi.nlm.nih.gov/pubmed?term=Gadolinium%20AND%20human%5Bmh%5D%20AND%20%28Occupational%20Diseases%20%5Bmh%5D%20OR%20Occupational%20Exposure%20%5Bmh%5D%29%20%20AND%20%28tox%5Bsb%5D%29&cmd=search"
    },
    {
      "text": "LANL: Gadolinium",
      "url": "http://periodic.lanl.gov/64.shtml"
    },
    {
      "text": "Metal Preparation and Pouring",
      "url": "https://haz-map.com/Processes/26"
    },
    {
      "text": "Mining",
      "url": "https://haz-map.com/Processes/219"
    }
  ]
}