{
  "metadata": {
    "scraped_from": "https://haz-map.com/Agents/11568",
    "entity_name": "3-Methylisoquinoline",
    "category": "agents",
    "uuid": "a57a15ba-9f0a-47e6-a8f9-69df6aa9acd7",
    "scraped_at": "2025-07-23T21:01:16.040760"
  },
  "parsed_at": "2025-07-24T01:14:28.486590",
  "title": "3-Methylisoquinoline",
  "sections": {
    "general": {
      "agent_name": {
        "original_name": "Agent Name",
        "value": "3-Methylisoquinoline",
        "links": [],
        "cross_references": [
          {
            "type": "name_match",
            "text": "quinoline",
            "confidence": 1.0,
            "uuid": "ba9097a5-8299-4dfd-a74a-f179b7d465d1",
            "name": "Quinoline",
            "url": "https://haz-map.com/Agents/6937",
            "category": "agents"
          },
          {
            "type": "name_match",
            "text": "3-methylisoquinoline",
            "confidence": 1.0,
            "uuid": "a57a15ba-9f0a-47e6-a8f9-69df6aa9acd7",
            "name": "3-Methylisoquinoline",
            "url": "https://haz-map.com/Agents/11568",
            "category": "agents"
          },
          {
            "type": "name_match",
            "text": "isoquinoline",
            "confidence": 1.0,
            "uuid": "0b40322b-0435-4b86-bfb3-9ca212ee2a29",
            "name": "Isoquinoline",
            "url": "https://haz-map.com/Agents/14995",
            "category": "agents"
          }
        ]
      },
      "cas_number": {
        "original_name": "CAS Number",
        "value": "1125-80-0",
        "links": [],
        "cross_references": []
      },
      "formula": {
        "original_name": "Formula",
        "value": "C10-H9-N",
        "links": [],
        "cross_references": []
      },
      "major_category": {
        "original_name": "Major Category",
        "value": "Nitrogen Compounds",
        "links": [],
        "cross_references": [
          {
            "type": "name_match",
            "text": "nitrogen",
            "confidence": 1.0,
            "uuid": "db5e90a9-06d2-45b9-8b81-f345a89b0bc0",
            "name": "Nitrogen",
            "url": "https://haz-map.com/Agents/1072",
            "category": "agents"
          }
        ]
      },
      "synonyms": {
        "original_name": "Synonyms",
        "value": "Isoquinoline, 3-methyl-; [ChemIDplus]",
        "links": [],
        "cross_references": [
          {
            "type": "name_match",
            "text": "quinoline",
            "confidence": 1.0,
            "uuid": "ba9097a5-8299-4dfd-a74a-f179b7d465d1",
            "name": "Quinoline",
            "url": "https://haz-map.com/Agents/6937",
            "category": "agents"
          },
          {
            "type": "name_match",
            "text": "isoquinoline",
            "confidence": 1.0,
            "uuid": "0b40322b-0435-4b86-bfb3-9ca212ee2a29",
            "name": "Isoquinoline",
            "url": "https://haz-map.com/Agents/14995",
            "category": "agents"
          }
        ]
      },
      "category": {
        "original_name": "Category",
        "value": "Quinolines",
        "links": [],
        "cross_references": [
          {
            "type": "name_match",
            "text": "quinoline",
            "confidence": 1.0,
            "uuid": "ba9097a5-8299-4dfd-a74a-f179b7d465d1",
            "name": "Quinoline",
            "url": "https://haz-map.com/Agents/6937",
            "category": "agents"
          }
        ]
      },
      "comments": {
        "original_name": "Comments",
        "value": "An irritant; [Sigma-Aldrich MSDS] See \"Quinoline.\"",
        "links": [],
        "cross_references": [
          {
            "type": "name_match",
            "text": "quinoline",
            "confidence": 1.0,
            "uuid": "ba9097a5-8299-4dfd-a74a-f179b7d465d1",
            "name": "Quinoline",
            "url": "https://haz-map.com/Agents/6937",
            "category": "agents"
          }
        ]
      },
      "biomedical_references": {
        "original_name": "Biomedical References",
        "value": "Search PubMed",
        "links": [
          {
            "text": "Search PubMed",
            "url": "https://www.ncbi.nlm.nih.gov/pubmed?term=3-Methylisoquinoline%20AND%20human%5Bmh%5D%20AND%20%28Occupational%20Diseases%20%5Bmh%5D%20OR%20Occupational%20Exposure%20%5Bmh%5D%29%20%20AND%20%28tox%5Bsb%5D%29&cmd=search"
          }
        ],
        "cross_references": []
      }
    },
    "exposure_assessment": {
      "vapor_pressure": {
        "original_name": "Vapor Pressure",
        "value": "0.00952 mm Hg",
        "links": [],
        "cross_references": []
      }
    },
    "diseases_processes_and_activities_linked_to_this_agent": {
      "other_information": {
        "original_name": "Other Information",
        "value": "No other related information on this agent was found.",
        "links": [],
        "cross_references": []
      }
    }
  },
  "cross_references": [
    {
      "type": "name_match",
      "text": "nitrogen",
      "confidence": 1.0,
      "uuid": "db5e90a9-06d2-45b9-8b81-f345a89b0bc0",
      "name": "Nitrogen",
      "url": "https://haz-map.com/Agents/1072",
      "category": "agents"
    },
    {
      "type": "name_match",
      "text": "quinoline",
      "confidence": 1.0,
      "uuid": "ba9097a5-8299-4dfd-a74a-f179b7d465d1",
      "name": "Quinoline",
      "url": "https://haz-map.com/Agents/6937",
      "category": "agents"
    },
    {
      "type": "name_match",
      "text": "3-methylisoquinoline",
      "confidence": 1.0,
      "uuid": "a57a15ba-9f0a-47e6-a8f9-69df6aa9acd7",
      "name": "3-Methylisoquinoline",
      "url": "https://haz-map.com/Agents/11568",
      "category": "agents"
    },
    {
      "type": "name_match",
      "text": "isoquinoline",
      "confidence": 1.0,
      "uuid": "0b40322b-0435-4b86-bfb3-9ca212ee2a29",
      "name": "Isoquinoline",
      "url": "https://haz-map.com/Agents/14995",
      "category": "agents"
    }
  ],
  "all_links": [
    {
      "text": "Search PubMed",
      "url": "https://www.ncbi.nlm.nih.gov/pubmed?term=3-Methylisoquinoline%20AND%20human%5Bmh%5D%20AND%20%28Occupational%20Diseases%20%5Bmh%5D%20OR%20Occupational%20Exposure%20%5Bmh%5D%29%20%20AND%20%28tox%5Bsb%5D%29&cmd=search"
    }
  ]
}