{
  "metadata": {
    "scraped_from": "https://haz-map.com/Agents/4445",
    "entity_name": "Citronellal",
    "category": "agents",
    "uuid": "a5db3bd3-4b21-4fe8-8764-635c3a776b89",
    "scraped_at": "2025-07-23T19:41:05.671227"
  },
  "parsed_at": "2025-07-24T00:54:54.260913",
  "title": "Citronellal",
  "sections": {
    "general": {
      "agent_name": {
        "original_name": "Agent Name",
        "value": "Citronellal",
        "links": [],
        "cross_references": [
          {
            "type": "name_match",
            "text": "citronellal",
            "confidence": 1.0,
            "uuid": "a5db3bd3-4b21-4fe8-8764-635c3a776b89",
            "name": "Citronellal",
            "url": "https://haz-map.com/Agents/4445",
            "category": "agents"
          }
        ]
      },
      "cas_number": {
        "original_name": "CAS Number",
        "value": "106-23-0",
        "links": [],
        "cross_references": []
      },
      "formula": {
        "original_name": "Formula",
        "value": "C10-H18-O",
        "links": [],
        "cross_references": []
      },
      "major_category": {
        "original_name": "Major Category",
        "value": "Biological Agents",
        "links": [],
        "cross_references": []
      },
      "synonyms": {
        "original_name": "Synonyms",
        "value": "2,3-Dihydrocitral; 3,7-Dimethyl-6-octen-1-al; 3,7-Dimethyl-6-octenal; 6-Octenal, 3,7-dimethyl-; Citronella; Citronella (natural); Citronellel; Rhodinal; Rhodinal (VAN); [ChemIDplus]",
        "links": [],
        "cross_references": [
          {
            "type": "name_match",
            "text": "citral",
            "confidence": 1.0,
            "uuid": "46e9ba94-d0de-4e2a-ac14-a563f81ccb88",
            "name": "Citral",
            "url": "https://haz-map.com/Agents/4442",
            "category": "agents"
          }
        ]
      },
      "category": {
        "original_name": "Category",
        "value": "Plant Oils and Extracts",
        "links": [],
        "cross_references": []
      },
      "description": {
        "original_name": "Description",
        "value": "Colorless to slightly yellow liquid with a strong flowery lemon odor; [HSDB]",
        "links": [],
        "cross_references": [
          {
            "type": "name_match",
            "text": "ht",
            "confidence": 1.0,
            "uuid": "764df367-8d53-4a11-81a2-31ccfe122a8d",
            "name": "HT",
            "url": "https://haz-map.com/Agents/2168",
            "category": "agents"
          }
        ]
      },
      "sourcesuses": {
        "original_name": "Sources/Uses",
        "value": "Main component of citronella oil; Present in many other volatile oils; [Merck Index] Used as flavoring agent, insect repellent, fragrance (soaps, detergents, creams, lotions, and perfumes), and chemical intermediate for citronellol and hydroxycitronellal; [HSDB]",
        "links": [],
        "cross_references": [
          {
            "type": "name_match",
            "text": "mica",
            "confidence": 1.0,
            "uuid": "433f26f1-c399-4596-b179-ce3843cfd465",
            "name": "Mica",
            "url": "https://haz-map.com/Agents/621",
            "category": "agents"
          },
          {
            "type": "name_match",
            "text": "citronellal",
            "confidence": 1.0,
            "uuid": "a5db3bd3-4b21-4fe8-8764-635c3a776b89",
            "name": "Citronellal",
            "url": "https://haz-map.com/Agents/4445",
            "category": "agents"
          },
          {
            "type": "name_match",
            "text": "hydroxycitronellal",
            "confidence": 1.0,
            "uuid": "6e4bc30b-2c5c-42cf-97d6-4cb104fae6a5",
            "name": "Hydroxycitronellal",
            "url": "https://haz-map.com/Agents/16227",
            "category": "agents"
          },
          {
            "type": "name_match",
            "text": "citronellol",
            "confidence": 1.0,
            "uuid": "29807a78-69d0-4e7d-b8c4-e88aa3b00d54",
            "name": "Citronellol",
            "url": "https://haz-map.com/Agents/18996",
            "category": "agents"
          }
        ]
      },
      "comments": {
        "original_name": "Comments",
        "value": "A mild irritant; Emergency treatment: \"Lemon grass oil\"; Citral, the main component, causes liver injury in high-dose animal experiments; Citral in concentrations >8% can cause irritation or allergic dermatitis; [HSDB] Causes somnolence in intraperitoneal lethal-dose studies of mice; [RTECS] Safe when used as a flavoring agent in food; [JECFA] An irritant; May be harmful after ingestion, inhalation, or skin absorption; [Aldrich MSDS] See \"Citral.\"",
        "links": [],
        "cross_references": [
          {
            "type": "name_match",
            "text": "dermatitis",
            "confidence": 1.0,
            "uuid": "fe9c05f2-b19f-4ceb-ac7a-ffb7d7a0cae0",
            "name": "dermatitis",
            "url": "https://haz-map.com/Findings/59",
            "category": "findings"
          },
          {
            "type": "name_match",
            "text": "citral",
            "confidence": 1.0,
            "uuid": "46e9ba94-d0de-4e2a-ac14-a563f81ccb88",
            "name": "Citral",
            "url": "https://haz-map.com/Agents/4442",
            "category": "agents"
          }
        ]
      },
      "biomedical_references": {
        "original_name": "Biomedical References",
        "value": "Search PubMed",
        "links": [
          {
            "text": "Search PubMed",
            "url": "https://www.ncbi.nlm.nih.gov/pubmed?term=Citronellal%20AND%20human%5Bmh%5D%20AND%20%28Occupational%20Diseases%20%5Bmh%5D%20OR%20Occupational%20Exposure%20%5Bmh%5D%29%20%20AND%20%28tox%5Bsb%5D%29&cmd=search"
          }
        ],
        "cross_references": []
      }
    },
    "exposure_assessment": {
      "vapor_pressure": {
        "original_name": "Vapor Pressure",
        "value": "0.28 mm Hg",
        "links": [],
        "cross_references": []
      },
      "explanatory_notes": {
        "original_name": "Explanatory Notes",
        "value": "VP from ChemIDplus;",
        "links": [],
        "cross_references": []
      },
      "nfpa": {
        "original_name": "NFPA",
        "value": "high ambient temp required",
        "links": [],
        "cross_references": []
      }
    },
    "adverse_effects": {
      "skin_sensitizer": {
        "original_name": "Skin Sensitizer",
        "value": "Yes",
        "links": [],
        "cross_references": []
      }
    },
    "diseases_processes_and_activities_linked_to_this_agent": {
      "diseases": {
        "original_name": "Diseases",
        "value": "Occupational diseases associated with exposure to this agent: Contact dermatitis, allergic",
        "links": [
          {
            "text": "Contact dermatitis, allergic",
            "url": "https://haz-map.com/Diseases/18"
          }
        ],
        "cross_references": [
          {
            "type": "url_match",
            "text": "Contact dermatitis, allergic",
            "url": "https://haz-map.com/Diseases/18",
            "confidence": 1.0,
            "uuid": "c9499de0-9aa1-41bf-8753-cd5b28a63e29",
            "name": "Contact dermatitis, allergic",
            "category": "diseases"
          },
          {
            "type": "name_match",
            "text": "dermatitis",
            "confidence": 1.0,
            "uuid": "fe9c05f2-b19f-4ceb-ac7a-ffb7d7a0cae0",
            "name": "dermatitis",
            "url": "https://haz-map.com/Findings/59",
            "category": "findings"
          }
        ]
      }
    }
  },
  "cross_references": [
    {
      "type": "url_match",
      "text": "Contact dermatitis, allergic",
      "url": "https://haz-map.com/Diseases/18",
      "confidence": 1.0,
      "uuid": "c9499de0-9aa1-41bf-8753-cd5b28a63e29",
      "name": "Contact dermatitis, allergic",
      "category": "diseases"
    },
    {
      "type": "name_match",
      "text": "dermatitis",
      "confidence": 1.0,
      "uuid": "fe9c05f2-b19f-4ceb-ac7a-ffb7d7a0cae0",
      "name": "dermatitis",
      "url": "https://haz-map.com/Findings/59",
      "category": "findings"
    },
    {
      "type": "name_match",
      "text": "mica",
      "confidence": 1.0,
      "uuid": "433f26f1-c399-4596-b179-ce3843cfd465",
      "name": "Mica",
      "url": "https://haz-map.com/Agents/621",
      "category": "agents"
    },
    {
      "type": "name_match",
      "text": "ht",
      "confidence": 1.0,
      "uuid": "764df367-8d53-4a11-81a2-31ccfe122a8d",
      "name": "HT",
      "url": "https://haz-map.com/Agents/2168",
      "category": "agents"
    },
    {
      "type": "name_match",
      "text": "citral",
      "confidence": 1.0,
      "uuid": "46e9ba94-d0de-4e2a-ac14-a563f81ccb88",
      "name": "Citral",
      "url": "https://haz-map.com/Agents/4442",
      "category": "agents"
    },
    {
      "type": "name_match",
      "text": "citronellal",
      "confidence": 1.0,
      "uuid": "a5db3bd3-4b21-4fe8-8764-635c3a776b89",
      "name": "Citronellal",
      "url": "https://haz-map.com/Agents/4445",
      "category": "agents"
    },
    {
      "type": "name_match",
      "text": "hydroxycitronellal",
      "confidence": 1.0,
      "uuid": "6e4bc30b-2c5c-42cf-97d6-4cb104fae6a5",
      "name": "Hydroxycitronellal",
      "url": "https://haz-map.com/Agents/16227",
      "category": "agents"
    },
    {
      "type": "name_match",
      "text": "citronellol",
      "confidence": 1.0,
      "uuid": "29807a78-69d0-4e7d-b8c4-e88aa3b00d54",
      "name": "Citronellol",
      "url": "https://haz-map.com/Agents/18996",
      "category": "agents"
    }
  ],
  "all_links": [
    {
      "text": "Search PubMed",
      "url": "https://www.ncbi.nlm.nih.gov/pubmed?term=Citronellal%20AND%20human%5Bmh%5D%20AND%20%28Occupational%20Diseases%20%5Bmh%5D%20OR%20Occupational%20Exposure%20%5Bmh%5D%29%20%20AND%20%28tox%5Bsb%5D%29&cmd=search"
    },
    {
      "text": "Contact dermatitis, allergic",
      "url": "https://haz-map.com/Diseases/18"
    }
  ]
}