{
  "metadata": {
    "scraped_from": "https://haz-map.com/Agents/5051",
    "entity_name": "Dodecyl alcohol, ethoxylated",
    "category": "agents",
    "uuid": "a5dd4d0e-c188-4a54-8c31-0481bbaaf6b8",
    "scraped_at": "2025-07-23T19:48:38.750122"
  },
  "parsed_at": "2025-07-24T01:06:41.221666",
  "title": "Dodecyl alcohol, ethoxylated",
  "sections": {
    "general": {
      "agent_name": {
        "original_name": "Agent Name",
        "value": "Dodecyl alcohol, ethoxylated",
        "links": [],
        "cross_references": [
          {
            "type": "name_match",
            "text": "dodecyl alcohol, ethoxylated",
            "confidence": 1.0,
            "uuid": "a5dd4d0e-c188-4a54-8c31-0481bbaaf6b8",
            "name": "Dodecyl alcohol, ethoxylated",
            "url": "https://haz-map.com/Agents/5051",
            "category": "agents"
          }
        ]
      },
      "alternative_name": {
        "original_name": "Alternative Name",
        "value": "Polidocanol",
        "links": [],
        "cross_references": []
      },
      "cas_number": {
        "original_name": "CAS Number",
        "value": "9002-92-0",
        "links": [],
        "cross_references": []
      },
      "formula": {
        "original_name": "Formula",
        "value": "(C2-H4-O)mult-C12-H26-O",
        "links": [],
        "cross_references": []
      },
      "major_category": {
        "original_name": "Major Category",
        "value": "Other Classes",
        "links": [],
        "cross_references": []
      },
      "synonyms": {
        "original_name": "Synonyms",
        "value": "Polidocanol; Laureth 4 [USAN]; Laureth 9 [USAN]; Laureth-11; Lauromacrogol 400 [INN]; PEG-11 Lauryl ether; 40L (polyether); Actinol L 7; Actinol L3; Adeka Carpol M 2; Adeka Carpol MBF 100; Adekatol LA 1275; Aethoxysklerol; Aetoxisclerol; Akyporox RLM 160; Akyporox RLM 22; Akyporox RLM 230; Akyporox RLM 40; Aldosperse L 9; Alkasurf LAN 1; Alkasurf LAN 3; Arapol 0712; Atlas G 2133; Atlas G 3705; Atlas G 3707; Atlas G 4829; Atlas G-2133; Atlas G-3705; Atossisclerol; B 205; BASE LP 12; BL 9; BL 9 (polyglycol); Base LP 12; Brij 22; Brij 23; Brij 30; Brij 30ICI; Brij 30SP; Brij 35; Brij 35L; Brij 36T; Calgene 40L; Carsonol L 2; Carsonol L 3; Chemal LA 23; Chimipal AE 3; Cimagel; Conion 275-100; Conion 275-20; Conion 275-30; Conion 275-80; Conion 2P80; Dodecanol, ethoxylate; Dodecyl alcohol polyoxyethylene ether; Du Pont WK; Ethosperse LA 12; Ethosperse LA 23; Ethoxylated lauryl alcohol; Ethoxysclerol; G 3707; Glycols, polyethylene, monododecyl ether; Hydroxypolyethoxydodecane; LA (Alcohol); LA 7; Laureth; Laureth 4; Laureth 9; Lipal 4LA; Lubrol 12A9; Lubrol PX; Marlipal 1217; Mergital LM 11; Newcol 1203; Nikkol BL; Noigen ET 160; Noigen ET 170; Noigen YX 500; Nonaethyleneglycol monododecyl ether; Noniolite AL 20; Pegnol L 12; Poly(oxy-1,2-ethanediyl), alpha-dodecyl-omega-hydroxy-; Polyethylene glycol monododecyl ether; Polyethylene glycol monolauryl ether; Polyoxyethylene 9-lauryl ether; Polyoxyethylene lauryl ether; Polyoxyethylenedodecyl ether; Rokanol L; Romopal LN; Simulsol P 23; Simulsol P 4; Siponic L; Slovasol S; Standamul LA 2; Stmer 135; Surfactant WK; Texofor B 9; Thesat; Thesit; alpha-Dodecyl-omega-hydroxypoly(oxy-1,2-ethanediyl); alpha-Dodecyl-omega-hydroxypoly(oxyethylene); Polyoxyethylene dodecyl mono ether; [ChemIDplus]",
        "links": [],
        "cross_references": [
          {
            "type": "name_match",
            "text": "ethylene glycol",
            "confidence": 1.0,
            "uuid": "99589035-d71c-415a-914c-81c7a166be11",
            "name": "Ethylene glycol",
            "url": "https://haz-map.com/Agents/488",
            "category": "agents"
          },
          {
            "type": "name_match",
            "text": "polyethylene",
            "confidence": 1.0,
            "uuid": "49cd0ad9-abe0-4650-bb5b-a2e2e68f0cae",
            "name": "Polyethylene",
            "url": "https://haz-map.com/Agents/850",
            "category": "agents"
          },
          {
            "type": "name_match",
            "text": "ethane",
            "confidence": 1.0,
            "uuid": "5162cc8c-dfb9-4060-81ac-38a8cec7f9dd",
            "name": "Ethane",
            "url": "https://haz-map.com/Agents/1075",
            "category": "agents"
          },
          {
            "type": "name_match",
            "text": "ethylene",
            "confidence": 1.0,
            "uuid": "958eacc0-5135-4b62-bb93-6df972bf552f",
            "name": "Ethylene",
            "url": "https://haz-map.com/Agents/1076",
            "category": "agents"
          },
          {
            "type": "name_match",
            "text": "dodecane",
            "confidence": 1.0,
            "uuid": "e446b8fe-aaab-4728-8e79-211dfc827a2e",
            "name": "Dodecane",
            "url": "https://haz-map.com/Agents/1785",
            "category": "agents"
          },
          {
            "type": "name_match",
            "text": "dodecanol",
            "confidence": 1.0,
            "uuid": "b19cf65b-9315-49e2-86ca-26e6a262da05",
            "name": "Dodecanol",
            "url": "https://haz-map.com/Agents/5047",
            "category": "agents"
          },
          {
            "type": "name_match",
            "text": "polyethylene glycol",
            "confidence": 1.0,
            "uuid": "f5b55322-38d4-428d-93e6-34611f9fedce",
            "name": "Polyethylene glycol",
            "url": "https://haz-map.com/Agents/6752",
            "category": "agents"
          }
        ]
      },
      "category": {
        "original_name": "Category",
        "value": "Polyoxyethylenes",
        "links": [],
        "cross_references": [
          {
            "type": "name_match",
            "text": "ethylene",
            "confidence": 1.0,
            "uuid": "958eacc0-5135-4b62-bb93-6df972bf552f",
            "name": "Ethylene",
            "url": "https://haz-map.com/Agents/1076",
            "category": "agents"
          }
        ]
      },
      "description": {
        "original_name": "Description",
        "value": "Colorless to yellow liquid; [HSDB] White solid or colorless or pale yellow liquid; Hygroscopic (number of moles ethylene oxide is 4 or more); Variable mp; [CHEMINFO] White waxy solid; [MSDSonline]",
        "links": [],
        "cross_references": [
          {
            "type": "name_match",
            "text": "ethylene oxide",
            "confidence": 1.0,
            "uuid": "df29ee36-6345-4c09-b2c3-e3501b1449ec",
            "name": "Ethylene oxide",
            "url": "https://haz-map.com/Agents/21",
            "category": "agents"
          },
          {
            "type": "name_match",
            "text": "ethylene",
            "confidence": 1.0,
            "uuid": "958eacc0-5135-4b62-bb93-6df972bf552f",
            "name": "Ethylene",
            "url": "https://haz-map.com/Agents/1076",
            "category": "agents"
          }
        ]
      },
      "sourcesuses": {
        "original_name": "Sources/Uses",
        "value": "Composed of an average of 9 ethylene oxides with an average molecular weight of approximately 600; Used as solvent, nonionic emulsifier, pharmaceutical surfactant, spermaticide, topical anesthetic, antipruritic, and sclerosing agent; [Merck Index]",
        "links": [],
        "cross_references": [
          {
            "type": "name_match",
            "text": "ethylene oxide",
            "confidence": 1.0,
            "uuid": "df29ee36-6345-4c09-b2c3-e3501b1449ec",
            "name": "Ethylene oxide",
            "url": "https://haz-map.com/Agents/21",
            "category": "agents"
          },
          {
            "type": "name_match",
            "text": "ethylene",
            "confidence": 1.0,
            "uuid": "958eacc0-5135-4b62-bb93-6df972bf552f",
            "name": "Ethylene",
            "url": "https://haz-map.com/Agents/1076",
            "category": "agents"
          },
          {
            "type": "name_match",
            "text": "ht",
            "confidence": 1.0,
            "uuid": "764df367-8d53-4a11-81a2-31ccfe122a8d",
            "name": "HT",
            "url": "https://haz-map.com/Agents/2168",
            "category": "agents"
          }
        ]
      },
      "comments": {
        "original_name": "Comments",
        "value": "May cause skin irritation; Large doses, especially parenterally, may cause CNS depression; [HSDB] A skin, eye, and respiratory tract irritant; Toxic by ingestion--high doses may cause narcosis and convulsions; [CAMEO] A polymer mixture (polymeric content usually >97%) of varying chain lengths and molecular weights (317-1200) containing possible impurities such as branched or secondary dodecanol isomers and other additives (i.e. antioxidants); [CHEMINFO] An irritant; [MSDSonline]",
        "links": [],
        "cross_references": [
          {
            "type": "name_match",
            "text": "convulsion",
            "confidence": 1.0,
            "uuid": "af2c36f8-707a-48e3-a62b-1aa07adc9b72",
            "name": "convulsion",
            "url": "https://haz-map.com/Findings/14",
            "category": "findings"
          },
          {
            "type": "name_match",
            "text": "ht",
            "confidence": 1.0,
            "uuid": "764df367-8d53-4a11-81a2-31ccfe122a8d",
            "name": "HT",
            "url": "https://haz-map.com/Agents/2168",
            "category": "agents"
          },
          {
            "type": "name_match",
            "text": "dodecanol",
            "confidence": 1.0,
            "uuid": "b19cf65b-9315-49e2-86ca-26e6a262da05",
            "name": "Dodecanol",
            "url": "https://haz-map.com/Agents/5047",
            "category": "agents"
          }
        ]
      },
      "biomedical_references": {
        "original_name": "Biomedical References",
        "value": "Search PubMed",
        "links": [
          {
            "text": "Search PubMed",
            "url": "https://www.ncbi.nlm.nih.gov/pubmed?term=Dodecyl+alcohol%2c+ethoxylated%20AND%20human%5Bmh%5D%20AND%20%28Occupational%20Diseases%20%5Bmh%5D%20OR%20Occupational%20Exposure%20%5Bmh%5D%29%20%20AND%20%28tox%5Bsb%5D%29&cmd=search"
          }
        ],
        "cross_references": []
      }
    },
    "exposure_assessment": {
      "vapor_pressure": {
        "original_name": "Vapor Pressure",
        "value": "16.7 mm Hg",
        "links": [],
        "cross_references": []
      },
      "nfpa": {
        "original_name": "NFPA",
        "value": "must be preheated",
        "links": [],
        "cross_references": []
      }
    },
    "adverse_effects": {
      "neurotoxin": {
        "original_name": "Neurotoxin",
        "value": "Acute solvent syndrome",
        "links": [],
        "cross_references": []
      }
    },
    "diseases_processes_and_activities_linked_to_this_agent": {
      "diseases": {
        "original_name": "Diseases",
        "value": "Occupational diseases associated with exposure to this agent: Solvents, acute toxic effect",
        "links": [
          {
            "text": "Solvents, acute toxic effect",
            "url": "https://haz-map.com/Diseases/326"
          }
        ],
        "cross_references": [
          {
            "type": "url_match",
            "text": "Solvents, acute toxic effect",
            "url": "https://haz-map.com/Diseases/326",
            "confidence": 1.0,
            "uuid": "581e90e3-9d0c-45f0-aa6c-3468c28da129",
            "name": "Solvents, acute toxic effect",
            "category": "diseases"
          }
        ]
      }
    }
  },
  "cross_references": [
    {
      "type": "url_match",
      "text": "Solvents, acute toxic effect",
      "url": "https://haz-map.com/Diseases/326",
      "confidence": 1.0,
      "uuid": "581e90e3-9d0c-45f0-aa6c-3468c28da129",
      "name": "Solvents, acute toxic effect",
      "category": "diseases"
    },
    {
      "type": "name_match",
      "text": "convulsion",
      "confidence": 1.0,
      "uuid": "af2c36f8-707a-48e3-a62b-1aa07adc9b72",
      "name": "convulsion",
      "url": "https://haz-map.com/Findings/14",
      "category": "findings"
    },
    {
      "type": "name_match",
      "text": "ethylene oxide",
      "confidence": 1.0,
      "uuid": "df29ee36-6345-4c09-b2c3-e3501b1449ec",
      "name": "Ethylene oxide",
      "url": "https://haz-map.com/Agents/21",
      "category": "agents"
    },
    {
      "type": "name_match",
      "text": "ethylene glycol",
      "confidence": 1.0,
      "uuid": "99589035-d71c-415a-914c-81c7a166be11",
      "name": "Ethylene glycol",
      "url": "https://haz-map.com/Agents/488",
      "category": "agents"
    },
    {
      "type": "name_match",
      "text": "polyethylene",
      "confidence": 1.0,
      "uuid": "49cd0ad9-abe0-4650-bb5b-a2e2e68f0cae",
      "name": "Polyethylene",
      "url": "https://haz-map.com/Agents/850",
      "category": "agents"
    },
    {
      "type": "name_match",
      "text": "ethane",
      "confidence": 1.0,
      "uuid": "5162cc8c-dfb9-4060-81ac-38a8cec7f9dd",
      "name": "Ethane",
      "url": "https://haz-map.com/Agents/1075",
      "category": "agents"
    },
    {
      "type": "name_match",
      "text": "ethylene",
      "confidence": 1.0,
      "uuid": "958eacc0-5135-4b62-bb93-6df972bf552f",
      "name": "Ethylene",
      "url": "https://haz-map.com/Agents/1076",
      "category": "agents"
    },
    {
      "type": "name_match",
      "text": "dodecane",
      "confidence": 1.0,
      "uuid": "e446b8fe-aaab-4728-8e79-211dfc827a2e",
      "name": "Dodecane",
      "url": "https://haz-map.com/Agents/1785",
      "category": "agents"
    },
    {
      "type": "name_match",
      "text": "ht",
      "confidence": 1.0,
      "uuid": "764df367-8d53-4a11-81a2-31ccfe122a8d",
      "name": "HT",
      "url": "https://haz-map.com/Agents/2168",
      "category": "agents"
    },
    {
      "type": "name_match",
      "text": "dodecanol",
      "confidence": 1.0,
      "uuid": "b19cf65b-9315-49e2-86ca-26e6a262da05",
      "name": "Dodecanol",
      "url": "https://haz-map.com/Agents/5047",
      "category": "agents"
    },
    {
      "type": "name_match",
      "text": "dodecyl alcohol, ethoxylated",
      "confidence": 1.0,
      "uuid": "a5dd4d0e-c188-4a54-8c31-0481bbaaf6b8",
      "name": "Dodecyl alcohol, ethoxylated",
      "url": "https://haz-map.com/Agents/5051",
      "category": "agents"
    },
    {
      "type": "name_match",
      "text": "polyethylene glycol",
      "confidence": 1.0,
      "uuid": "f5b55322-38d4-428d-93e6-34611f9fedce",
      "name": "Polyethylene glycol",
      "url": "https://haz-map.com/Agents/6752",
      "category": "agents"
    }
  ],
  "all_links": [
    {
      "text": "Search PubMed",
      "url": "https://www.ncbi.nlm.nih.gov/pubmed?term=Dodecyl+alcohol%2c+ethoxylated%20AND%20human%5Bmh%5D%20AND%20%28Occupational%20Diseases%20%5Bmh%5D%20OR%20Occupational%20Exposure%20%5Bmh%5D%29%20%20AND%20%28tox%5Bsb%5D%29&cmd=search"
    },
    {
      "text": "Solvents, acute toxic effect",
      "url": "https://haz-map.com/Diseases/326"
    }
  ]
}