{
  "metadata": {
    "scraped_from": "https://haz-map.com/Agents/21269",
    "entity_name": "N-Methyl-p-toluenesulfonamide",
    "category": "agents",
    "uuid": "a61064a4-68c6-4584-96f2-5b6cf7a30e5f",
    "scraped_at": "2025-07-23T22:40:38.739683"
  },
  "parsed_at": "2025-07-24T01:05:23.348093",
  "title": "N-Methyl-p-toluenesulfonamide",
  "sections": {
    "general": {
      "agent_name": {
        "original_name": "Agent Name",
        "value": "N-Methyl-p-toluenesulfonamide",
        "links": [],
        "cross_references": [
          {
            "type": "name_match",
            "text": "toluene",
            "confidence": 1.0,
            "uuid": "0a34d5de-e924-4c47-aff5-7ae8e48c6772",
            "name": "Toluene",
            "url": "https://haz-map.com/Agents/83",
            "category": "agents"
          },
          {
            "type": "name_match",
            "text": "p-toluenesulfonamide",
            "confidence": 1.0,
            "uuid": "16e0440c-0427-4f47-af29-507771d3eecd",
            "name": "p-Toluenesulfonamide",
            "url": "https://haz-map.com/Agents/6512",
            "category": "agents"
          },
          {
            "type": "name_match",
            "text": "toluenesulfonamide",
            "confidence": 1.0,
            "uuid": "bf0cba41-3611-4558-8902-0bc6be119c60",
            "name": "Toluenesulfonamide",
            "url": "https://haz-map.com/Agents/7465",
            "category": "agents"
          },
          {
            "type": "name_match",
            "text": "n-methyl-p-toluenesulfonamide",
            "confidence": 1.0,
            "uuid": "a61064a4-68c6-4584-96f2-5b6cf7a30e5f",
            "name": "N-Methyl-p-toluenesulfonamide",
            "url": "https://haz-map.com/Agents/21269",
            "category": "agents"
          }
        ]
      },
      "cas_number": {
        "original_name": "CAS Number",
        "value": "640-61-9",
        "links": [],
        "cross_references": []
      },
      "formula": {
        "original_name": "Formula",
        "value": "C8-H11-N-O2-S",
        "links": [],
        "cross_references": []
      },
      "major_category": {
        "original_name": "Major Category",
        "value": "Nitrogen Compounds",
        "links": [],
        "cross_references": [
          {
            "type": "name_match",
            "text": "nitrogen",
            "confidence": 1.0,
            "uuid": "db5e90a9-06d2-45b9-8b81-f345a89b0bc0",
            "name": "Nitrogen",
            "url": "https://haz-map.com/Agents/1072",
            "category": "agents"
          }
        ]
      },
      "synonyms": {
        "original_name": "Synonyms",
        "value": "(p-Tolylsulfonyl)methylamine; N,4-Dimethylbenzenesulfonamide; p-Toluene-N-methylsulfonamide; Benzenesulfonamide, N,4-dimethyl-; N-Methyltoluene-4-sulphonamide; p-Toluenesulfonamide, N-methyl- (8CI); [ChemIDplus]",
        "links": [],
        "cross_references": [
          {
            "type": "name_match",
            "text": "benzene",
            "confidence": 1.0,
            "uuid": "b05124de-5f34-4c14-8f04-ccb20c3780d9",
            "name": "Benzene",
            "url": "https://haz-map.com/Agents/5",
            "category": "agents"
          },
          {
            "type": "name_match",
            "text": "toluene",
            "confidence": 1.0,
            "uuid": "0a34d5de-e924-4c47-aff5-7ae8e48c6772",
            "name": "Toluene",
            "url": "https://haz-map.com/Agents/83",
            "category": "agents"
          },
          {
            "type": "name_match",
            "text": "methylamine",
            "confidence": 1.0,
            "uuid": "7c3781b5-5294-474a-a015-e59574d00b69",
            "name": "Methylamine",
            "url": "https://haz-map.com/Agents/217",
            "category": "agents"
          },
          {
            "type": "name_match",
            "text": "ethylamine",
            "confidence": 1.0,
            "uuid": "41ca4da8-b990-420a-86b2-3d77404fb7f4",
            "name": "Ethylamine",
            "url": "https://haz-map.com/Agents/220",
            "category": "agents"
          },
          {
            "type": "name_match",
            "text": "p-toluenesulfonamide",
            "confidence": 1.0,
            "uuid": "16e0440c-0427-4f47-af29-507771d3eecd",
            "name": "p-Toluenesulfonamide",
            "url": "https://haz-map.com/Agents/6512",
            "category": "agents"
          },
          {
            "type": "name_match",
            "text": "toluenesulfonamide",
            "confidence": 1.0,
            "uuid": "bf0cba41-3611-4558-8902-0bc6be119c60",
            "name": "Toluenesulfonamide",
            "url": "https://haz-map.com/Agents/7465",
            "category": "agents"
          },
          {
            "type": "name_match",
            "text": "benzenesulfonamide",
            "confidence": 1.0,
            "uuid": "66d8b92e-3d51-4461-ac5b-4ff3501d45e5",
            "name": "Benzenesulfonamide",
            "url": "https://haz-map.com/Agents/20287",
            "category": "agents"
          }
        ]
      },
      "category": {
        "original_name": "Category",
        "value": "Sulfonamides",
        "links": [],
        "cross_references": []
      },
      "description": {
        "original_name": "Description",
        "value": "Off-white crystalline powder; [Acros Organics MSDS]",
        "links": [],
        "cross_references": [
          {
            "type": "fuzzy_match",
            "text": "crystalline",
            "matched_name": "Silica, crystalline",
            "confidence": 0.7061403508771931,
            "uuid": "f920e8a2-46df-41b7-af8d-0368a777251e",
            "category": "agents",
            "url": "https://haz-map.com/Agents/427"
          }
        ]
      },
      "comments": {
        "original_name": "Comments",
        "value": "May cause irritation; [Acros Organics MSDS] See \"N-Ethyl-o-toluenesulfonamide\" and \"N-Ethyl-p-toluenesulfonamide.\" See \"p-Toluenesulfonamide.\"",
        "links": [],
        "cross_references": [
          {
            "type": "name_match",
            "text": "toluene",
            "confidence": 1.0,
            "uuid": "0a34d5de-e924-4c47-aff5-7ae8e48c6772",
            "name": "Toluene",
            "url": "https://haz-map.com/Agents/83",
            "category": "agents"
          },
          {
            "type": "name_match",
            "text": "n-ethyl-o-toluenesulfonamide",
            "confidence": 1.0,
            "uuid": "709c94fc-971a-485b-9fdc-18bbb084a9b5",
            "name": "N-Ethyl-o-toluenesulfonamide",
            "url": "https://haz-map.com/Agents/6233",
            "category": "agents"
          },
          {
            "type": "name_match",
            "text": "o-toluenesulfonamide",
            "confidence": 1.0,
            "uuid": "5925e8b9-b62b-484b-9ab0-5ed349087d0f",
            "name": "o-Toluenesulfonamide",
            "url": "https://haz-map.com/Agents/6420",
            "category": "agents"
          },
          {
            "type": "name_match",
            "text": "p-toluenesulfonamide",
            "confidence": 1.0,
            "uuid": "16e0440c-0427-4f47-af29-507771d3eecd",
            "name": "p-Toluenesulfonamide",
            "url": "https://haz-map.com/Agents/6512",
            "category": "agents"
          },
          {
            "type": "name_match",
            "text": "toluenesulfonamide",
            "confidence": 1.0,
            "uuid": "bf0cba41-3611-4558-8902-0bc6be119c60",
            "name": "Toluenesulfonamide",
            "url": "https://haz-map.com/Agents/7465",
            "category": "agents"
          },
          {
            "type": "name_match",
            "text": "n-ethyl-p-toluenesulfonamide",
            "confidence": 1.0,
            "uuid": "45469115-b9c7-4c7c-a201-ec1fadf0099e",
            "name": "N-Ethyl-p-toluenesulfonamide",
            "url": "https://haz-map.com/Agents/12179",
            "category": "agents"
          }
        ]
      },
      "biomedical_references": {
        "original_name": "Biomedical References",
        "value": "Search PubMed",
        "links": [
          {
            "text": "Search PubMed",
            "url": "https://www.ncbi.nlm.nih.gov/pubmed?term=N-Methyl-p-toluenesulfonamide%20AND%20human%5Bmh%5D%20AND%20%28Occupational%20Diseases%20%5Bmh%5D%20OR%20Occupational%20Exposure%20%5Bmh%5D%29%20%20AND%20%28tox%5Bsb%5D%29&cmd=search"
          }
        ],
        "cross_references": []
      }
    },
    "exposure_assessment": {
      "vapor_pressure": {
        "original_name": "Vapor Pressure",
        "value": "0.000282 mm Hg",
        "links": [],
        "cross_references": []
      }
    },
    "diseases_processes_and_activities_linked_to_this_agent": {
      "other_information": {
        "original_name": "Other Information",
        "value": "No other related information on this agent was found.",
        "links": [],
        "cross_references": []
      }
    }
  },
  "cross_references": [
    {
      "type": "name_match",
      "text": "benzene",
      "confidence": 1.0,
      "uuid": "b05124de-5f34-4c14-8f04-ccb20c3780d9",
      "name": "Benzene",
      "url": "https://haz-map.com/Agents/5",
      "category": "agents"
    },
    {
      "type": "name_match",
      "text": "toluene",
      "confidence": 1.0,
      "uuid": "0a34d5de-e924-4c47-aff5-7ae8e48c6772",
      "name": "Toluene",
      "url": "https://haz-map.com/Agents/83",
      "category": "agents"
    },
    {
      "type": "name_match",
      "text": "methylamine",
      "confidence": 1.0,
      "uuid": "7c3781b5-5294-474a-a015-e59574d00b69",
      "name": "Methylamine",
      "url": "https://haz-map.com/Agents/217",
      "category": "agents"
    },
    {
      "type": "name_match",
      "text": "ethylamine",
      "confidence": 1.0,
      "uuid": "41ca4da8-b990-420a-86b2-3d77404fb7f4",
      "name": "Ethylamine",
      "url": "https://haz-map.com/Agents/220",
      "category": "agents"
    },
    {
      "type": "name_match",
      "text": "nitrogen",
      "confidence": 1.0,
      "uuid": "db5e90a9-06d2-45b9-8b81-f345a89b0bc0",
      "name": "Nitrogen",
      "url": "https://haz-map.com/Agents/1072",
      "category": "agents"
    },
    {
      "type": "name_match",
      "text": "n-ethyl-o-toluenesulfonamide",
      "confidence": 1.0,
      "uuid": "709c94fc-971a-485b-9fdc-18bbb084a9b5",
      "name": "N-Ethyl-o-toluenesulfonamide",
      "url": "https://haz-map.com/Agents/6233",
      "category": "agents"
    },
    {
      "type": "name_match",
      "text": "o-toluenesulfonamide",
      "confidence": 1.0,
      "uuid": "5925e8b9-b62b-484b-9ab0-5ed349087d0f",
      "name": "o-Toluenesulfonamide",
      "url": "https://haz-map.com/Agents/6420",
      "category": "agents"
    },
    {
      "type": "name_match",
      "text": "p-toluenesulfonamide",
      "confidence": 1.0,
      "uuid": "16e0440c-0427-4f47-af29-507771d3eecd",
      "name": "p-Toluenesulfonamide",
      "url": "https://haz-map.com/Agents/6512",
      "category": "agents"
    },
    {
      "type": "name_match",
      "text": "toluenesulfonamide",
      "confidence": 1.0,
      "uuid": "bf0cba41-3611-4558-8902-0bc6be119c60",
      "name": "Toluenesulfonamide",
      "url": "https://haz-map.com/Agents/7465",
      "category": "agents"
    },
    {
      "type": "name_match",
      "text": "n-ethyl-p-toluenesulfonamide",
      "confidence": 1.0,
      "uuid": "45469115-b9c7-4c7c-a201-ec1fadf0099e",
      "name": "N-Ethyl-p-toluenesulfonamide",
      "url": "https://haz-map.com/Agents/12179",
      "category": "agents"
    },
    {
      "type": "name_match",
      "text": "benzenesulfonamide",
      "confidence": 1.0,
      "uuid": "66d8b92e-3d51-4461-ac5b-4ff3501d45e5",
      "name": "Benzenesulfonamide",
      "url": "https://haz-map.com/Agents/20287",
      "category": "agents"
    },
    {
      "type": "name_match",
      "text": "n-methyl-p-toluenesulfonamide",
      "confidence": 1.0,
      "uuid": "a61064a4-68c6-4584-96f2-5b6cf7a30e5f",
      "name": "N-Methyl-p-toluenesulfonamide",
      "url": "https://haz-map.com/Agents/21269",
      "category": "agents"
    },
    {
      "type": "fuzzy_match",
      "text": "crystalline",
      "matched_name": "Silica, crystalline",
      "confidence": 0.7061403508771931,
      "uuid": "f920e8a2-46df-41b7-af8d-0368a777251e",
      "category": "agents",
      "url": "https://haz-map.com/Agents/427"
    }
  ],
  "all_links": [
    {
      "text": "Search PubMed",
      "url": "https://www.ncbi.nlm.nih.gov/pubmed?term=N-Methyl-p-toluenesulfonamide%20AND%20human%5Bmh%5D%20AND%20%28Occupational%20Diseases%20%5Bmh%5D%20OR%20Occupational%20Exposure%20%5Bmh%5D%29%20%20AND%20%28tox%5Bsb%5D%29&cmd=search"
    }
  ]
}