{
  "metadata": {
    "scraped_from": "https://haz-map.com/Agents/4304",
    "entity_name": "n-Butyl chloride",
    "category": "agents",
    "uuid": "a643fb94-6f9a-4a51-bdb7-db4d8f6b499a",
    "scraped_at": "2025-07-23T19:39:45.097402"
  },
  "parsed_at": "2025-07-24T01:10:04.894217",
  "title": "n-Butyl chloride",
  "sections": {
    "general": {
      "agent_name": {
        "original_name": "Agent Name",
        "value": "n-Butyl chloride",
        "links": [],
        "cross_references": [
          {
            "type": "name_match",
            "text": "n-butyl chloride",
            "confidence": 1.0,
            "uuid": "a643fb94-6f9a-4a51-bdb7-db4d8f6b499a",
            "name": "n-Butyl chloride",
            "url": "https://haz-map.com/Agents/4304",
            "category": "agents"
          }
        ]
      },
      "alternative_name": {
        "original_name": "Alternative Name",
        "value": "1-Chlorobutane",
        "links": [],
        "cross_references": []
      },
      "cas_number": {
        "original_name": "CAS Number",
        "value": "109-69-3",
        "links": [],
        "cross_references": []
      },
      "formula": {
        "original_name": "Formula",
        "value": "C4-H9-Cl",
        "links": [],
        "cross_references": []
      },
      "major_category": {
        "original_name": "Major Category",
        "value": "Solvents",
        "links": [],
        "cross_references": []
      },
      "synonyms": {
        "original_name": "Synonyms",
        "value": "1-Chlorobutane; Butane, 1-chloro-; Butyl chloride; Chlorure de butyle [French]; N-Butyl chloride; N-Propylcarbinyl chloride; NBC wormer; Sure Shot; n-Propylcarbinyl chloride; Chlorobutane, 1-; n-Chlorobutane; [ChemIDplus] UN1127",
        "links": [],
        "cross_references": [
          {
            "type": "name_match",
            "text": "n-butyl chloride",
            "confidence": 1.0,
            "uuid": "a643fb94-6f9a-4a51-bdb7-db4d8f6b499a",
            "name": "n-Butyl chloride",
            "url": "https://haz-map.com/Agents/4304",
            "category": "agents"
          }
        ]
      },
      "category": {
        "original_name": "Category",
        "value": "Chlorinated Aliphatics",
        "links": [],
        "cross_references": [
          {
            "type": "name_match",
            "text": "chlorin",
            "confidence": 1.0,
            "uuid": "4a566fec-ec7e-42b0-9f14-ec586335e694",
            "name": "Chlorin",
            "url": "https://haz-map.com/Agents/20422",
            "category": "agents"
          }
        ]
      },
      "description": {
        "original_name": "Description",
        "value": "Colorless liquid; [Hawley]",
        "links": [],
        "cross_references": []
      },
      "sourcesuses": {
        "original_name": "Sources/Uses",
        "value": "Used as a solvent, intermediate, and veterinary anthelmintic; [HSDB]",
        "links": [],
        "cross_references": []
      },
      "comments": {
        "original_name": "Comments",
        "value": "Dangerous fire risk; [Hawley] Reacts slowly with water evolving hydrochloric acid; A skin, eye, and respiratory tract irritant; \"The substance may cause effects on the nervous system.\" [ICSC] A skin and eye irritant; [HSDB] A mild skin and eye irritant based on animal studies; [CHEMINFO] An irritant; Effects in high-dose animal studies (subacute and chronic) include convulsions or effect on seizure threshold; [MSDSonline]",
        "links": [],
        "cross_references": [
          {
            "type": "name_match",
            "text": "convulsion",
            "confidence": 1.0,
            "uuid": "af2c36f8-707a-48e3-a62b-1aa07adc9b72",
            "name": "convulsion",
            "url": "https://haz-map.com/Findings/14",
            "category": "findings"
          },
          {
            "type": "name_match",
            "text": "chloric acid",
            "confidence": 1.0,
            "uuid": "b21bc556-162c-4249-8afc-fb6303f2b8f9",
            "name": "Chloric acid",
            "url": "https://haz-map.com/Agents/8326",
            "category": "agents"
          },
          {
            "type": "name_match",
            "text": "water",
            "confidence": 1.0,
            "uuid": "6f2a7557-dfd2-49bc-9b4b-a93cd8e225d4",
            "name": "Water",
            "url": "https://haz-map.com/Agents/18668",
            "category": "agents"
          }
        ]
      },
      "biomedical_references": {
        "original_name": "Biomedical References",
        "value": "Search PubMed",
        "links": [
          {
            "text": "Search PubMed",
            "url": "https://www.ncbi.nlm.nih.gov/pubmed?term=n-Butyl+chloride%20AND%20human%5Bmh%5D%20AND%20%28Occupational%20Diseases%20%5Bmh%5D%20OR%20Occupational%20Exposure%20%5Bmh%5D%29%20%20AND%20%28tox%5Bsb%5D%29&cmd=search"
          }
        ],
        "cross_references": []
      }
    },
    "exposure_assessment": {
      "vapor_pressure": {
        "original_name": "Vapor Pressure",
        "value": "101 mm Hg",
        "links": [],
        "cross_references": []
      },
      "odor_threshold_low": {
        "original_name": "Odor Threshold Low",
        "value": "0.93 ppm",
        "links": [],
        "cross_references": []
      },
      "odor_threshold_high": {
        "original_name": "Odor Threshold High",
        "value": "1.64 ppm",
        "links": [],
        "cross_references": []
      },
      "lethal_concentration": {
        "original_name": "Lethal Concentration",
        "value": "LCLo (rat) = 8,000 ppm/4h",
        "links": [],
        "cross_references": []
      },
      "explanatory_notes": {
        "original_name": "Explanatory Notes",
        "value": "Odor threshold from CHEMINFO; VP from ChemIDplus;",
        "links": [],
        "cross_references": []
      },
      "nfpa": {
        "original_name": "NFPA",
        "value": "may ignite at ambient temp",
        "links": [],
        "cross_references": []
      }
    },
    "adverse_effects": {
      "neurotoxin": {
        "original_name": "Neurotoxin",
        "value": "Acute solvent syndrome",
        "links": [],
        "cross_references": []
      }
    },
    "diseases_processes_and_activities_linked_to_this_agent": {
      "diseases": {
        "original_name": "Diseases",
        "value": "Occupational diseases associated with exposure to this agent: Solvents, acute toxic effect",
        "links": [
          {
            "text": "Solvents, acute toxic effect",
            "url": "https://haz-map.com/Diseases/326"
          }
        ],
        "cross_references": [
          {
            "type": "url_match",
            "text": "Solvents, acute toxic effect",
            "url": "https://haz-map.com/Diseases/326",
            "confidence": 1.0,
            "uuid": "581e90e3-9d0c-45f0-aa6c-3468c28da129",
            "name": "Solvents, acute toxic effect",
            "category": "diseases"
          }
        ]
      }
    }
  },
  "cross_references": [
    {
      "type": "url_match",
      "text": "Solvents, acute toxic effect",
      "url": "https://haz-map.com/Diseases/326",
      "confidence": 1.0,
      "uuid": "581e90e3-9d0c-45f0-aa6c-3468c28da129",
      "name": "Solvents, acute toxic effect",
      "category": "diseases"
    },
    {
      "type": "name_match",
      "text": "convulsion",
      "confidence": 1.0,
      "uuid": "af2c36f8-707a-48e3-a62b-1aa07adc9b72",
      "name": "convulsion",
      "url": "https://haz-map.com/Findings/14",
      "category": "findings"
    },
    {
      "type": "name_match",
      "text": "n-butyl chloride",
      "confidence": 1.0,
      "uuid": "a643fb94-6f9a-4a51-bdb7-db4d8f6b499a",
      "name": "n-Butyl chloride",
      "url": "https://haz-map.com/Agents/4304",
      "category": "agents"
    },
    {
      "type": "name_match",
      "text": "chloric acid",
      "confidence": 1.0,
      "uuid": "b21bc556-162c-4249-8afc-fb6303f2b8f9",
      "name": "Chloric acid",
      "url": "https://haz-map.com/Agents/8326",
      "category": "agents"
    },
    {
      "type": "name_match",
      "text": "water",
      "confidence": 1.0,
      "uuid": "6f2a7557-dfd2-49bc-9b4b-a93cd8e225d4",
      "name": "Water",
      "url": "https://haz-map.com/Agents/18668",
      "category": "agents"
    },
    {
      "type": "name_match",
      "text": "chlorin",
      "confidence": 1.0,
      "uuid": "4a566fec-ec7e-42b0-9f14-ec586335e694",
      "name": "Chlorin",
      "url": "https://haz-map.com/Agents/20422",
      "category": "agents"
    }
  ],
  "all_links": [
    {
      "text": "Search PubMed",
      "url": "https://www.ncbi.nlm.nih.gov/pubmed?term=n-Butyl+chloride%20AND%20human%5Bmh%5D%20AND%20%28Occupational%20Diseases%20%5Bmh%5D%20OR%20Occupational%20Exposure%20%5Bmh%5D%29%20%20AND%20%28tox%5Bsb%5D%29&cmd=search"
    },
    {
      "text": "Solvents, acute toxic effect",
      "url": "https://haz-map.com/Diseases/326"
    }
  ]
}