{
  "metadata": {
    "scraped_from": "https://haz-map.com/Agents/5719",
    "entity_name": "Isopropyl carbamate",
    "category": "agents",
    "uuid": "a655e43c-e3f5-42a1-84b6-8edebf3051e8",
    "scraped_at": "2025-07-23T19:55:25.853628"
  },
  "parsed_at": "2025-07-24T01:13:15.637123",
  "title": "Isopropyl carbamate",
  "sections": {
    "general": {
      "agent_name": {
        "original_name": "Agent Name",
        "value": "Isopropyl carbamate",
        "links": [],
        "cross_references": [
          {
            "type": "name_match",
            "text": "isopropyl carbamate",
            "confidence": 1.0,
            "uuid": "a655e43c-e3f5-42a1-84b6-8edebf3051e8",
            "name": "Isopropyl carbamate",
            "url": "https://haz-map.com/Agents/5719",
            "category": "agents"
          }
        ]
      },
      "cas_number": {
        "original_name": "CAS Number",
        "value": "1746-77-6",
        "links": [],
        "cross_references": []
      },
      "formula": {
        "original_name": "Formula",
        "value": "C4-H9-N-O2",
        "links": [],
        "cross_references": []
      },
      "major_category": {
        "original_name": "Major Category",
        "value": "Other Classes",
        "links": [],
        "cross_references": []
      },
      "synonyms": {
        "original_name": "Synonyms",
        "value": "Carbamic acid, 1-methylethyl ester; Carbamic acid, isopropyl ester; Isopropyl-N-carbamate; Isopropylester kyseliny karbaminove [Czech]; [ChemIDplus]",
        "links": [],
        "cross_references": []
      },
      "category": {
        "original_name": "Category",
        "value": "Carbamic Acid Esters",
        "links": [],
        "cross_references": []
      },
      "description": {
        "original_name": "Description",
        "value": "Solid; [HSDB]",
        "links": [],
        "cross_references": []
      },
      "comments": {
        "original_name": "Comments",
        "value": "A mutagen and tumorigen; Causes somnolence in subcutaneous, lethal-dose studies of mice; [RTECS] May cause irritation; [MSDSonline]",
        "links": [],
        "cross_references": []
      },
      "biomedical_references": {
        "original_name": "Biomedical References",
        "value": "Search PubMed",
        "links": [
          {
            "text": "Search PubMed",
            "url": "https://www.ncbi.nlm.nih.gov/pubmed?term=Isopropyl+carbamate%20AND%20human%5Bmh%5D%20AND%20%28Occupational%20Diseases%20%5Bmh%5D%20OR%20Occupational%20Exposure%20%5Bmh%5D%29%20%20AND%20%28tox%5Bsb%5D%29&cmd=search"
          }
        ],
        "cross_references": []
      }
    },
    "exposure_assessment": {
      "vapor_pressure": {
        "original_name": "Vapor Pressure",
        "value": "0.167 mm Hg",
        "links": [],
        "cross_references": []
      },
      "explanatory_notes": {
        "original_name": "Explanatory Notes",
        "value": "VP from ChemIDplus;",
        "links": [],
        "cross_references": []
      }
    },
    "diseases_processes_and_activities_linked_to_this_agent": {
      "other_information": {
        "original_name": "Other Information",
        "value": "No other related information on this agent was found.",
        "links": [],
        "cross_references": []
      }
    }
  },
  "cross_references": [
    {
      "type": "name_match",
      "text": "isopropyl carbamate",
      "confidence": 1.0,
      "uuid": "a655e43c-e3f5-42a1-84b6-8edebf3051e8",
      "name": "Isopropyl carbamate",
      "url": "https://haz-map.com/Agents/5719",
      "category": "agents"
    }
  ],
  "all_links": [
    {
      "text": "Search PubMed",
      "url": "https://www.ncbi.nlm.nih.gov/pubmed?term=Isopropyl+carbamate%20AND%20human%5Bmh%5D%20AND%20%28Occupational%20Diseases%20%5Bmh%5D%20OR%20Occupational%20Exposure%20%5Bmh%5D%29%20%20AND%20%28tox%5Bsb%5D%29&cmd=search"
    }
  ]
}