{
  "metadata": {
    "scraped_from": "https://haz-map.com/Agents/3969",
    "entity_name": "Bis(2-ethylhexyl) terephthalate",
    "category": "agents",
    "uuid": "a65f207e-5aa2-4688-bcaa-d1fdb52ef0ed",
    "scraped_at": "2025-07-23T19:35:24.057638"
  },
  "parsed_at": "2025-07-24T00:51:23.230257",
  "title": "Bis(2-ethylhexyl) terephthalate",
  "sections": {
    "general": {
      "agent_name": {
        "original_name": "Agent Name",
        "value": "Bis(2-ethylhexyl) terephthalate",
        "links": [],
        "cross_references": [
          {
            "type": "name_match",
            "text": "ht",
            "confidence": 1.0,
            "uuid": "764df367-8d53-4a11-81a2-31ccfe122a8d",
            "name": "HT",
            "url": "https://haz-map.com/Agents/2168",
            "category": "agents"
          },
          {
            "type": "name_match",
            "text": "bis(2-ethylhexyl) terephthalate",
            "confidence": 1.0,
            "uuid": "a65f207e-5aa2-4688-bcaa-d1fdb52ef0ed",
            "name": "Bis(2-ethylhexyl) terephthalate",
            "url": "https://haz-map.com/Agents/3969",
            "category": "agents"
          }
        ]
      },
      "cas_number": {
        "original_name": "CAS Number",
        "value": "6422-86-2",
        "links": [],
        "cross_references": []
      },
      "formula": {
        "original_name": "Formula",
        "value": "C24-H38-O4",
        "links": [],
        "cross_references": []
      },
      "major_category": {
        "original_name": "Major Category",
        "value": "Plastics & Rubber",
        "links": [],
        "cross_references": []
      },
      "synonyms": {
        "original_name": "Synonyms",
        "value": "1,4-Benzenedicarboxylic acid, bis(2-ethylhexyl) ester; Di-(2-ethylhexyl) terephthalate; Kodaflex DOTP; Terephthalic acid, bis(2-ethylhexyl) ester; [ChemIDplus]",
        "links": [],
        "cross_references": [
          {
            "type": "name_match",
            "text": "benzene",
            "confidence": 1.0,
            "uuid": "b05124de-5f34-4c14-8f04-ccb20c3780d9",
            "name": "Benzene",
            "url": "https://haz-map.com/Agents/5",
            "category": "agents"
          },
          {
            "type": "name_match",
            "text": "ht",
            "confidence": 1.0,
            "uuid": "764df367-8d53-4a11-81a2-31ccfe122a8d",
            "name": "HT",
            "url": "https://haz-map.com/Agents/2168",
            "category": "agents"
          },
          {
            "type": "name_match",
            "text": "phthalic acid",
            "confidence": 1.0,
            "uuid": "f19ac6b5-df06-48aa-81e6-825cdcfe8f9c",
            "name": "Phthalic acid",
            "url": "https://haz-map.com/Agents/6702",
            "category": "agents"
          },
          {
            "type": "name_match",
            "text": "terephthalic acid",
            "confidence": 1.0,
            "uuid": "6d5bf488-180c-4517-97eb-f977b65b383a",
            "name": "Terephthalic acid",
            "url": "https://haz-map.com/Agents/7324",
            "category": "agents"
          }
        ]
      },
      "category": {
        "original_name": "Category",
        "value": "Other Plasticizers",
        "links": [],
        "cross_references": []
      },
      "description": {
        "original_name": "Description",
        "value": "Liquid; [MSDSonline]",
        "links": [],
        "cross_references": []
      },
      "sourcesuses": {
        "original_name": "Sources/Uses",
        "value": "Used as plasticizer and as a softener for nitrile-butadiene rubber, chloroprene rubber, and isobutylene-isoprene rubber; [HSDB]",
        "links": [],
        "cross_references": [
          {
            "type": "name_match",
            "text": "isoprene",
            "confidence": 1.0,
            "uuid": "663c0f5b-0e75-4944-b1ed-340abc84b61b",
            "name": "Isoprene",
            "url": "https://haz-map.com/Agents/1572",
            "category": "agents"
          },
          {
            "type": "name_match",
            "text": "isobutylene",
            "confidence": 1.0,
            "uuid": "6a2033c7-081c-4035-b361-f4b2f5e0d7fb",
            "name": "Isobutylene",
            "url": "https://haz-map.com/Agents/5678",
            "category": "agents"
          },
          {
            "type": "name_match",
            "text": "butadiene",
            "confidence": 1.0,
            "uuid": "f4fdb4ce-e062-4db5-8e5d-eba44b8a05be",
            "name": "Butadiene",
            "url": "https://haz-map.com/Agents/12505",
            "category": "agents"
          }
        ]
      },
      "comments": {
        "original_name": "Comments",
        "value": "May cause irritation; [MSDSonline]",
        "links": [],
        "cross_references": []
      },
      "biomedical_references": {
        "original_name": "Biomedical References",
        "value": "Search PubMed",
        "links": [
          {
            "text": "Search PubMed",
            "url": "https://www.ncbi.nlm.nih.gov/pubmed?term=Bis(2-ethylhexyl)+terephthalate%20AND%20human%5Bmh%5D%20AND%20%28Occupational%20Diseases%20%5Bmh%5D%20OR%20Occupational%20Exposure%20%5Bmh%5D%29%20%20AND%20%28tox%5Bsb%5D%29&cmd=search"
          }
        ],
        "cross_references": []
      }
    },
    "exposure_assessment": {
      "vapor_pressure": {
        "original_name": "Vapor Pressure",
        "value": "2.14E-05 mm Hg",
        "links": [],
        "cross_references": []
      }
    },
    "diseases_processes_and_activities_linked_to_this_agent": {
      "other_information": {
        "original_name": "Other Information",
        "value": "No other related information on this agent was found.",
        "links": [],
        "cross_references": []
      }
    }
  },
  "cross_references": [
    {
      "type": "name_match",
      "text": "benzene",
      "confidence": 1.0,
      "uuid": "b05124de-5f34-4c14-8f04-ccb20c3780d9",
      "name": "Benzene",
      "url": "https://haz-map.com/Agents/5",
      "category": "agents"
    },
    {
      "type": "name_match",
      "text": "isoprene",
      "confidence": 1.0,
      "uuid": "663c0f5b-0e75-4944-b1ed-340abc84b61b",
      "name": "Isoprene",
      "url": "https://haz-map.com/Agents/1572",
      "category": "agents"
    },
    {
      "type": "name_match",
      "text": "ht",
      "confidence": 1.0,
      "uuid": "764df367-8d53-4a11-81a2-31ccfe122a8d",
      "name": "HT",
      "url": "https://haz-map.com/Agents/2168",
      "category": "agents"
    },
    {
      "type": "name_match",
      "text": "bis(2-ethylhexyl) terephthalate",
      "confidence": 1.0,
      "uuid": "a65f207e-5aa2-4688-bcaa-d1fdb52ef0ed",
      "name": "Bis(2-ethylhexyl) terephthalate",
      "url": "https://haz-map.com/Agents/3969",
      "category": "agents"
    },
    {
      "type": "name_match",
      "text": "isobutylene",
      "confidence": 1.0,
      "uuid": "6a2033c7-081c-4035-b361-f4b2f5e0d7fb",
      "name": "Isobutylene",
      "url": "https://haz-map.com/Agents/5678",
      "category": "agents"
    },
    {
      "type": "name_match",
      "text": "phthalic acid",
      "confidence": 1.0,
      "uuid": "f19ac6b5-df06-48aa-81e6-825cdcfe8f9c",
      "name": "Phthalic acid",
      "url": "https://haz-map.com/Agents/6702",
      "category": "agents"
    },
    {
      "type": "name_match",
      "text": "terephthalic acid",
      "confidence": 1.0,
      "uuid": "6d5bf488-180c-4517-97eb-f977b65b383a",
      "name": "Terephthalic acid",
      "url": "https://haz-map.com/Agents/7324",
      "category": "agents"
    },
    {
      "type": "name_match",
      "text": "butadiene",
      "confidence": 1.0,
      "uuid": "f4fdb4ce-e062-4db5-8e5d-eba44b8a05be",
      "name": "Butadiene",
      "url": "https://haz-map.com/Agents/12505",
      "category": "agents"
    }
  ],
  "all_links": [
    {
      "text": "Search PubMed",
      "url": "https://www.ncbi.nlm.nih.gov/pubmed?term=Bis(2-ethylhexyl)+terephthalate%20AND%20human%5Bmh%5D%20AND%20%28Occupational%20Diseases%20%5Bmh%5D%20OR%20Occupational%20Exposure%20%5Bmh%5D%29%20%20AND%20%28tox%5Bsb%5D%29&cmd=search"
    }
  ]
}