{
  "metadata": {
    "scraped_from": "https://haz-map.com/Agents/3334",
    "entity_name": "5-Amino-o-cresol",
    "category": "agents",
    "uuid": "a68b978e-ed66-4e06-8205-5ffe7d1610fd",
    "scraped_at": "2025-07-23T19:27:46.551028"
  },
  "parsed_at": "2025-07-24T01:14:05.678870",
  "title": "5-Amino-o-cresol",
  "sections": {
    "general": {
      "agent_name": {
        "original_name": "Agent Name",
        "value": "5-Amino-o-cresol",
        "links": [],
        "cross_references": [
          {
            "type": "name_match",
            "text": "5-amino-o-cresol",
            "confidence": 1.0,
            "uuid": "a68b978e-ed66-4e06-8205-5ffe7d1610fd",
            "name": "5-Amino-o-cresol",
            "url": "https://haz-map.com/Agents/3334",
            "category": "agents"
          },
          {
            "type": "name_match",
            "text": "o-cresol",
            "confidence": 1.0,
            "uuid": "79705508-f40f-4274-9fce-92bc3b99c914",
            "name": "o-Cresol",
            "url": "https://haz-map.com/Agents/16208",
            "category": "agents"
          }
        ]
      },
      "cas_number": {
        "original_name": "CAS Number",
        "value": "2835-95-2",
        "links": [],
        "cross_references": []
      },
      "formula": {
        "original_name": "Formula",
        "value": "C7-H9-N-O",
        "links": [],
        "cross_references": []
      },
      "major_category": {
        "original_name": "Major Category",
        "value": "Nitrogen Compounds",
        "links": [],
        "cross_references": [
          {
            "type": "name_match",
            "text": "nitrogen",
            "confidence": 1.0,
            "uuid": "db5e90a9-06d2-45b9-8b81-f345a89b0bc0",
            "name": "Nitrogen",
            "url": "https://haz-map.com/Agents/1072",
            "category": "agents"
          }
        ]
      },
      "synonyms": {
        "original_name": "Synonyms",
        "value": "4-Amino-2-hydroxy-1-methylbenzene; Phenol, 5-amino-2-methyl-; 2-Hydroxy-p-toluidine; 3-Amino-6-methylphenol; 3-Hydroxy-4-methylaniline; 4-Amino-2-hydroxytoluene; 5-Amino-2-methylphenol; 6-Methyl-3-aminophenol; [ChemIDplus]",
        "links": [],
        "cross_references": [
          {
            "type": "name_match",
            "text": "benzene",
            "confidence": 1.0,
            "uuid": "b05124de-5f34-4c14-8f04-ccb20c3780d9",
            "name": "Benzene",
            "url": "https://haz-map.com/Agents/5",
            "category": "agents"
          },
          {
            "type": "name_match",
            "text": "toluene",
            "confidence": 1.0,
            "uuid": "0a34d5de-e924-4c47-aff5-7ae8e48c6772",
            "name": "Toluene",
            "url": "https://haz-map.com/Agents/83",
            "category": "agents"
          },
          {
            "type": "name_match",
            "text": "phenol",
            "confidence": 1.0,
            "uuid": "03141a03-a7df-4f51-9a37-adde1a7c4b31",
            "name": "Phenol",
            "url": "https://haz-map.com/Agents/84",
            "category": "agents"
          },
          {
            "type": "name_match",
            "text": "aniline",
            "confidence": 1.0,
            "uuid": "e4932692-8d9c-4a98-8c5c-81e55b12aedf",
            "name": "Aniline",
            "url": "https://haz-map.com/Agents/296",
            "category": "agents"
          },
          {
            "type": "name_match",
            "text": "p-toluidine",
            "confidence": 1.0,
            "uuid": "0bec36ed-78fe-4ab4-ae71-02439e6b5bee",
            "name": "p-Toluidine",
            "url": "https://haz-map.com/Agents/439",
            "category": "agents"
          },
          {
            "type": "name_match",
            "text": "3-aminophenol",
            "confidence": 1.0,
            "uuid": "15da8d95-5fa0-44a8-878b-95fa0e83317c",
            "name": "3-Aminophenol",
            "url": "https://haz-map.com/Agents/3216",
            "category": "agents"
          }
        ]
      },
      "category": {
        "original_name": "Category",
        "value": "Amino Phenols",
        "links": [],
        "cross_references": [
          {
            "type": "name_match",
            "text": "phenol",
            "confidence": 1.0,
            "uuid": "03141a03-a7df-4f51-9a37-adde1a7c4b31",
            "name": "Phenol",
            "url": "https://haz-map.com/Agents/84",
            "category": "agents"
          }
        ]
      },
      "description": {
        "original_name": "Description",
        "value": "Brown solid; [CAMEO] Slightly beige powder; [MSDSonline]",
        "links": [],
        "cross_references": [
          {
            "type": "name_match",
            "text": "ht",
            "confidence": 1.0,
            "uuid": "764df367-8d53-4a11-81a2-31ccfe122a8d",
            "name": "HT",
            "url": "https://haz-map.com/Agents/2168",
            "category": "agents"
          }
        ]
      },
      "sourcesuses": {
        "original_name": "Sources/Uses",
        "value": "Used as a coupler in oxidative hair dyeing; [HSDB]",
        "links": [],
        "cross_references": []
      },
      "comments": {
        "original_name": "Comments",
        "value": "A mutagen; Causes somnolence and ataxia in lethal-dose feeding studies of rats; [RTECS] Induces goiter, hypothyroidism, and liver injury in feeding studies of rats for 13 weeks; No difference in chromosomal aberrations between controls and subjects who dyed their hair with 2-hydroxy-4-aminotoluene 13 times at intervals of 3-6 weeks; Very weak skin sensitizer in guinea pigs; Did not induce photosensensitization in guinea pigs; [HSDB] A skin, eye, and mucous membrane irritant; [CAMEO] An irritant; [MSDSonline]",
        "links": [],
        "cross_references": [
          {
            "type": "name_match",
            "text": "toluene",
            "confidence": 1.0,
            "uuid": "0a34d5de-e924-4c47-aff5-7ae8e48c6772",
            "name": "Toluene",
            "url": "https://haz-map.com/Agents/83",
            "category": "agents"
          }
        ]
      },
      "biomedical_references": {
        "original_name": "Biomedical References",
        "value": "Search PubMed",
        "links": [
          {
            "text": "Search PubMed",
            "url": "https://www.ncbi.nlm.nih.gov/pubmed?term=5-Amino-o-cresol%20AND%20human%5Bmh%5D%20AND%20%28Occupational%20Diseases%20%5Bmh%5D%20OR%20Occupational%20Exposure%20%5Bmh%5D%29%20%20AND%20%28tox%5Bsb%5D%29&cmd=search"
          }
        ],
        "cross_references": []
      }
    },
    "exposure_assessment": {
      "vapor_pressure": {
        "original_name": "Vapor Pressure",
        "value": "0.00026 mm Hg",
        "links": [],
        "cross_references": []
      }
    },
    "adverse_effects": {
      "neurotoxin": {
        "original_name": "Neurotoxin",
        "value": "Other CNS neurotoxin",
        "links": [],
        "cross_references": []
      },
      "hepatotoxin": {
        "original_name": "Hepatotoxin",
        "value": "Hepatoxic (a) from occupational exposure (secondary effect) or (b) in animal studies or in humans after ingestion",
        "links": [],
        "cross_references": []
      }
    },
    "diseases_processes_and_activities_linked_to_this_agent": {
      "processes": {
        "original_name": "Processes",
        "value": "Industrial Processes with risk of exposure: Dressing Hair",
        "links": [
          {
            "text": "Dressing Hair",
            "url": "https://haz-map.com/Processes/258"
          }
        ],
        "cross_references": []
      }
    }
  },
  "cross_references": [
    {
      "type": "name_match",
      "text": "benzene",
      "confidence": 1.0,
      "uuid": "b05124de-5f34-4c14-8f04-ccb20c3780d9",
      "name": "Benzene",
      "url": "https://haz-map.com/Agents/5",
      "category": "agents"
    },
    {
      "type": "name_match",
      "text": "toluene",
      "confidence": 1.0,
      "uuid": "0a34d5de-e924-4c47-aff5-7ae8e48c6772",
      "name": "Toluene",
      "url": "https://haz-map.com/Agents/83",
      "category": "agents"
    },
    {
      "type": "name_match",
      "text": "phenol",
      "confidence": 1.0,
      "uuid": "03141a03-a7df-4f51-9a37-adde1a7c4b31",
      "name": "Phenol",
      "url": "https://haz-map.com/Agents/84",
      "category": "agents"
    },
    {
      "type": "name_match",
      "text": "aniline",
      "confidence": 1.0,
      "uuid": "e4932692-8d9c-4a98-8c5c-81e55b12aedf",
      "name": "Aniline",
      "url": "https://haz-map.com/Agents/296",
      "category": "agents"
    },
    {
      "type": "name_match",
      "text": "p-toluidine",
      "confidence": 1.0,
      "uuid": "0bec36ed-78fe-4ab4-ae71-02439e6b5bee",
      "name": "p-Toluidine",
      "url": "https://haz-map.com/Agents/439",
      "category": "agents"
    },
    {
      "type": "name_match",
      "text": "nitrogen",
      "confidence": 1.0,
      "uuid": "db5e90a9-06d2-45b9-8b81-f345a89b0bc0",
      "name": "Nitrogen",
      "url": "https://haz-map.com/Agents/1072",
      "category": "agents"
    },
    {
      "type": "name_match",
      "text": "ht",
      "confidence": 1.0,
      "uuid": "764df367-8d53-4a11-81a2-31ccfe122a8d",
      "name": "HT",
      "url": "https://haz-map.com/Agents/2168",
      "category": "agents"
    },
    {
      "type": "name_match",
      "text": "3-aminophenol",
      "confidence": 1.0,
      "uuid": "15da8d95-5fa0-44a8-878b-95fa0e83317c",
      "name": "3-Aminophenol",
      "url": "https://haz-map.com/Agents/3216",
      "category": "agents"
    },
    {
      "type": "name_match",
      "text": "5-amino-o-cresol",
      "confidence": 1.0,
      "uuid": "a68b978e-ed66-4e06-8205-5ffe7d1610fd",
      "name": "5-Amino-o-cresol",
      "url": "https://haz-map.com/Agents/3334",
      "category": "agents"
    },
    {
      "type": "name_match",
      "text": "o-cresol",
      "confidence": 1.0,
      "uuid": "79705508-f40f-4274-9fce-92bc3b99c914",
      "name": "o-Cresol",
      "url": "https://haz-map.com/Agents/16208",
      "category": "agents"
    }
  ],
  "all_links": [
    {
      "text": "Search PubMed",
      "url": "https://www.ncbi.nlm.nih.gov/pubmed?term=5-Amino-o-cresol%20AND%20human%5Bmh%5D%20AND%20%28Occupational%20Diseases%20%5Bmh%5D%20OR%20Occupational%20Exposure%20%5Bmh%5D%29%20%20AND%20%28tox%5Bsb%5D%29&cmd=search"
    },
    {
      "text": "Dressing Hair",
      "url": "https://haz-map.com/Processes/258"
    }
  ]
}