{
  "metadata": {
    "scraped_from": "https://haz-map.com/Agents/19772",
    "entity_name": "3-Chloro-1-butyne",
    "category": "agents",
    "uuid": "a6ab0819-5780-42a1-b4b1-c55d3eba0686",
    "scraped_at": "2025-07-23T22:12:43.724544"
  },
  "parsed_at": "2025-07-24T01:05:57.703785",
  "title": "3-Chloro-1-butyne",
  "sections": {
    "general": {
      "agent_name": {
        "original_name": "Agent Name",
        "value": "3-Chloro-1-butyne",
        "links": [],
        "cross_references": [
          {
            "type": "name_match",
            "text": "1-butyne",
            "confidence": 1.0,
            "uuid": "4f745f3b-afae-4679-abe2-3475a2fa7ff5",
            "name": "1-Butyne",
            "url": "https://haz-map.com/Agents/9491",
            "category": "agents"
          },
          {
            "type": "name_match",
            "text": "3-chloro-1-butyne",
            "confidence": 1.0,
            "uuid": "a6ab0819-5780-42a1-b4b1-c55d3eba0686",
            "name": "3-Chloro-1-butyne",
            "url": "https://haz-map.com/Agents/19772",
            "category": "agents"
          }
        ]
      },
      "cas_number": {
        "original_name": "CAS Number",
        "value": "21020-24-6",
        "links": [],
        "cross_references": []
      },
      "formula": {
        "original_name": "Formula",
        "value": "C4-H5-Cl",
        "links": [],
        "cross_references": []
      },
      "major_category": {
        "original_name": "Major Category",
        "value": "Other Classes",
        "links": [],
        "cross_references": []
      },
      "synonyms": {
        "original_name": "Synonyms",
        "value": "1-Butyne, 3-chloro-; 3-Chlorobut-1-yne; [ChemIDplus] UN1993",
        "links": [],
        "cross_references": [
          {
            "type": "name_match",
            "text": "1-butyne",
            "confidence": 1.0,
            "uuid": "4f745f3b-afae-4679-abe2-3475a2fa7ff5",
            "name": "1-Butyne",
            "url": "https://haz-map.com/Agents/9491",
            "category": "agents"
          }
        ]
      },
      "category": {
        "original_name": "Category",
        "value": "Halogenated Aliphatics, Unsaturated",
        "links": [],
        "cross_references": []
      },
      "description": {
        "original_name": "Description",
        "value": "Clear colorless liquid; [TCI America MSDS]",
        "links": [],
        "cross_references": []
      },
      "comments": {
        "original_name": "Comments",
        "value": "A lachrymator; [TCI America MSDS] See \"1-Butyne\" and \"1,4-Dichloro-2-butyne.\"",
        "links": [],
        "cross_references": [
          {
            "type": "name_match",
            "text": "2-butyne",
            "confidence": 1.0,
            "uuid": "d604893d-f414-428f-af44-ba926e496aa9",
            "name": "2-Butyne",
            "url": "https://haz-map.com/Agents/8620",
            "category": "agents"
          },
          {
            "type": "name_match",
            "text": "1-butyne",
            "confidence": 1.0,
            "uuid": "4f745f3b-afae-4679-abe2-3475a2fa7ff5",
            "name": "1-Butyne",
            "url": "https://haz-map.com/Agents/9491",
            "category": "agents"
          },
          {
            "type": "name_match",
            "text": "1,4-dichloro-2-butyne",
            "confidence": 1.0,
            "uuid": "15c99331-b032-44f9-bcf7-bf774bcc9ac1",
            "name": "1,4-Dichloro-2-butyne",
            "url": "https://haz-map.com/Agents/9750",
            "category": "agents"
          }
        ]
      },
      "biomedical_references": {
        "original_name": "Biomedical References",
        "value": "Search PubMed",
        "links": [
          {
            "text": "Search PubMed",
            "url": "https://www.ncbi.nlm.nih.gov/pubmed?term=3-Chloro-1-butyne%20AND%20human%5Bmh%5D%20AND%20%28Occupational%20Diseases%20%5Bmh%5D%20OR%20Occupational%20Exposure%20%5Bmh%5D%29%20%20AND%20%28tox%5Bsb%5D%29&cmd=search"
          }
        ],
        "cross_references": []
      }
    },
    "exposure_assessment": {
      "vapor_pressure": {
        "original_name": "Vapor Pressure",
        "value": "140 mm Hg",
        "links": [],
        "cross_references": []
      },
      "explanatory_notes": {
        "original_name": "Explanatory Notes",
        "value": "The Guide in the Emergency Response Guidebook is for \"Flammable liquid, n.o.s.\"",
        "links": [],
        "cross_references": []
      }
    },
    "adverse_effects": {
      "lachrymator": {
        "original_name": "Lachrymator",
        "value": "Yes",
        "links": [],
        "cross_references": []
      }
    },
    "diseases_processes_and_activities_linked_to_this_agent": {
      "other_information": {
        "original_name": "Other Information",
        "value": "No other related information on this agent was found.",
        "links": [],
        "cross_references": []
      }
    }
  },
  "cross_references": [
    {
      "type": "name_match",
      "text": "2-butyne",
      "confidence": 1.0,
      "uuid": "d604893d-f414-428f-af44-ba926e496aa9",
      "name": "2-Butyne",
      "url": "https://haz-map.com/Agents/8620",
      "category": "agents"
    },
    {
      "type": "name_match",
      "text": "1-butyne",
      "confidence": 1.0,
      "uuid": "4f745f3b-afae-4679-abe2-3475a2fa7ff5",
      "name": "1-Butyne",
      "url": "https://haz-map.com/Agents/9491",
      "category": "agents"
    },
    {
      "type": "name_match",
      "text": "1,4-dichloro-2-butyne",
      "confidence": 1.0,
      "uuid": "15c99331-b032-44f9-bcf7-bf774bcc9ac1",
      "name": "1,4-Dichloro-2-butyne",
      "url": "https://haz-map.com/Agents/9750",
      "category": "agents"
    },
    {
      "type": "name_match",
      "text": "3-chloro-1-butyne",
      "confidence": 1.0,
      "uuid": "a6ab0819-5780-42a1-b4b1-c55d3eba0686",
      "name": "3-Chloro-1-butyne",
      "url": "https://haz-map.com/Agents/19772",
      "category": "agents"
    }
  ],
  "all_links": [
    {
      "text": "Search PubMed",
      "url": "https://www.ncbi.nlm.nih.gov/pubmed?term=3-Chloro-1-butyne%20AND%20human%5Bmh%5D%20AND%20%28Occupational%20Diseases%20%5Bmh%5D%20OR%20Occupational%20Exposure%20%5Bmh%5D%29%20%20AND%20%28tox%5Bsb%5D%29&cmd=search"
    }
  ]
}