{
  "metadata": {
    "scraped_from": "https://haz-map.com/Agents/7143",
    "entity_name": "Sodium palmitate",
    "category": "agents",
    "uuid": "a6ce4f49-d2b1-4c43-af54-c280e9385f9f",
    "scraped_at": "2025-07-23T20:09:29.537589"
  },
  "parsed_at": "2025-07-24T01:18:49.408925",
  "title": "Sodium palmitate",
  "sections": {
    "general": {
      "agent_name": {
        "original_name": "Agent Name",
        "value": "Sodium palmitate",
        "links": [],
        "cross_references": [
          {
            "type": "name_match",
            "text": "sodium",
            "confidence": 1.0,
            "uuid": "1adffc42-a4d8-44d5-81d6-7dbd96ef8a6f",
            "name": "Sodium",
            "url": "https://haz-map.com/Agents/1527",
            "category": "agents"
          },
          {
            "type": "name_match",
            "text": "sodium palmitate",
            "confidence": 1.0,
            "uuid": "a6ce4f49-d2b1-4c43-af54-c280e9385f9f",
            "name": "Sodium palmitate",
            "url": "https://haz-map.com/Agents/7143",
            "category": "agents"
          }
        ]
      },
      "cas_number": {
        "original_name": "CAS Number",
        "value": "408-35-5",
        "links": [],
        "cross_references": []
      },
      "formula": {
        "original_name": "Formula",
        "value": "C16-H32-O2.Na",
        "links": [],
        "cross_references": []
      },
      "major_category": {
        "original_name": "Major Category",
        "value": "Other Uses",
        "links": [],
        "cross_references": []
      },
      "synonyms": {
        "original_name": "Synonyms",
        "value": "Hexadecanoic acid, sodium salt; Palmitic acid sodium salt; Sodium hexadecanoate; Sodium pentadecanecarboxylate; [ChemIDplus]",
        "links": [],
        "cross_references": [
          {
            "type": "name_match",
            "text": "sodium",
            "confidence": 1.0,
            "uuid": "1adffc42-a4d8-44d5-81d6-7dbd96ef8a6f",
            "name": "Sodium",
            "url": "https://haz-map.com/Agents/1527",
            "category": "agents"
          },
          {
            "type": "name_match",
            "text": "pentadecane",
            "confidence": 1.0,
            "uuid": "c94bad99-ad05-4452-a705-4d5deee091ba",
            "name": "Pentadecane",
            "url": "https://haz-map.com/Agents/1786",
            "category": "agents"
          },
          {
            "type": "name_match",
            "text": "palmitic acid",
            "confidence": 1.0,
            "uuid": "9a0987be-5bc6-483b-8daf-6ed89325a82c",
            "name": "Palmitic acid",
            "url": "https://haz-map.com/Agents/6518",
            "category": "agents"
          }
        ]
      },
      "category": {
        "original_name": "Category",
        "value": "Emulsifiers/Surfactants",
        "links": [],
        "cross_references": []
      },
      "description": {
        "original_name": "Description",
        "value": "White to yellow solid; [Hawley] White powder; [MSDSonline]",
        "links": [],
        "cross_references": []
      },
      "sourcesuses": {
        "original_name": "Sources/Uses",
        "value": "Used as polymerization catalyst (synthetic rubbers) and emulsifier; Used in laundry and toilet soaps, detergents, cosmetics, pharmaceuticals, and printing inks; [Hawley]",
        "links": [],
        "cross_references": [
          {
            "type": "name_match",
            "text": "pharmaceuticals",
            "confidence": 1.0,
            "uuid": "713c3c30-b67e-4a2f-a90f-b32f8a306332",
            "name": "PHARMACEUTICALS",
            "url": "https://haz-map.com/Agents/1000",
            "category": "agents"
          }
        ]
      },
      "comments": {
        "original_name": "Comments",
        "value": "May cause irritation; [MSDSonline]",
        "links": [],
        "cross_references": []
      },
      "biomedical_references": {
        "original_name": "Biomedical References",
        "value": "Search PubMed",
        "links": [
          {
            "text": "Search PubMed",
            "url": "https://www.ncbi.nlm.nih.gov/pubmed?term=Sodium+palmitate%20AND%20human%5Bmh%5D%20AND%20%28Occupational%20Diseases%20%5Bmh%5D%20OR%20Occupational%20Exposure%20%5Bmh%5D%29%20%20AND%20%28tox%5Bsb%5D%29&cmd=search"
          }
        ],
        "cross_references": []
      }
    },
    "exposure_assessment": {
      "vapor_pressure": {
        "original_name": "Vapor Pressure",
        "value": "5.46E-12 mm Hg",
        "links": [],
        "cross_references": []
      }
    },
    "diseases_processes_and_activities_linked_to_this_agent": {
      "other_information": {
        "original_name": "Other Information",
        "value": "No other related information on this agent was found.",
        "links": [],
        "cross_references": []
      }
    }
  },
  "cross_references": [
    {
      "type": "name_match",
      "text": "pharmaceuticals",
      "confidence": 1.0,
      "uuid": "713c3c30-b67e-4a2f-a90f-b32f8a306332",
      "name": "PHARMACEUTICALS",
      "url": "https://haz-map.com/Agents/1000",
      "category": "agents"
    },
    {
      "type": "name_match",
      "text": "sodium",
      "confidence": 1.0,
      "uuid": "1adffc42-a4d8-44d5-81d6-7dbd96ef8a6f",
      "name": "Sodium",
      "url": "https://haz-map.com/Agents/1527",
      "category": "agents"
    },
    {
      "type": "name_match",
      "text": "pentadecane",
      "confidence": 1.0,
      "uuid": "c94bad99-ad05-4452-a705-4d5deee091ba",
      "name": "Pentadecane",
      "url": "https://haz-map.com/Agents/1786",
      "category": "agents"
    },
    {
      "type": "name_match",
      "text": "palmitic acid",
      "confidence": 1.0,
      "uuid": "9a0987be-5bc6-483b-8daf-6ed89325a82c",
      "name": "Palmitic acid",
      "url": "https://haz-map.com/Agents/6518",
      "category": "agents"
    },
    {
      "type": "name_match",
      "text": "sodium palmitate",
      "confidence": 1.0,
      "uuid": "a6ce4f49-d2b1-4c43-af54-c280e9385f9f",
      "name": "Sodium palmitate",
      "url": "https://haz-map.com/Agents/7143",
      "category": "agents"
    }
  ],
  "all_links": [
    {
      "text": "Search PubMed",
      "url": "https://www.ncbi.nlm.nih.gov/pubmed?term=Sodium+palmitate%20AND%20human%5Bmh%5D%20AND%20%28Occupational%20Diseases%20%5Bmh%5D%20OR%20Occupational%20Exposure%20%5Bmh%5D%29%20%20AND%20%28tox%5Bsb%5D%29&cmd=search"
    }
  ]
}