{
  "metadata": {
    "scraped_from": "https://haz-map.com/Agents/16564",
    "entity_name": "Phenylcyclohexane",
    "category": "agents",
    "uuid": "a6dbbb48-2608-4369-a42a-2c42510e50b2",
    "scraped_at": "2025-07-23T21:38:33.513354"
  },
  "parsed_at": "2025-07-24T01:01:04.307822",
  "title": "Phenylcyclohexane",
  "sections": {
    "general": {
      "agent_name": {
        "original_name": "Agent Name",
        "value": "Phenylcyclohexane",
        "links": [],
        "cross_references": [
          {
            "type": "name_match",
            "text": "cyclohexane",
            "confidence": 1.0,
            "uuid": "366fabd7-ac2f-461c-969f-62dfe3bf2377",
            "name": "Cyclohexane",
            "url": "https://haz-map.com/Agents/384",
            "category": "agents"
          },
          {
            "type": "name_match",
            "text": "phenylcyclohexane",
            "confidence": 1.0,
            "uuid": "a6dbbb48-2608-4369-a42a-2c42510e50b2",
            "name": "Phenylcyclohexane",
            "url": "https://haz-map.com/Agents/16564",
            "category": "agents"
          }
        ]
      },
      "cas_number": {
        "original_name": "CAS Number",
        "value": "827-52-1",
        "links": [],
        "cross_references": []
      },
      "formula": {
        "original_name": "Formula",
        "value": "C12-H16",
        "links": [],
        "cross_references": []
      },
      "major_category": {
        "original_name": "Major Category",
        "value": "Other Classes",
        "links": [],
        "cross_references": []
      },
      "synonyms": {
        "original_name": "Synonyms",
        "value": "1,1'-Biphenyl, 1,2,3,4,5,6-hexahydro-; 4-Cyclohexylbenzene; Cyclohexane, phenyl-; Cyclohexylbenzene; Santosol 360; Benzene, cyclohexyl-; [ChemIDplus] UN3082",
        "links": [],
        "cross_references": [
          {
            "type": "name_match",
            "text": "benzene",
            "confidence": 1.0,
            "uuid": "b05124de-5f34-4c14-8f04-ccb20c3780d9",
            "name": "Benzene",
            "url": "https://haz-map.com/Agents/5",
            "category": "agents"
          },
          {
            "type": "name_match",
            "text": "biphenyl",
            "confidence": 1.0,
            "uuid": "740f90cb-888a-4a3b-b9ae-30768927fec2",
            "name": "Biphenyl",
            "url": "https://haz-map.com/Agents/306",
            "category": "agents"
          },
          {
            "type": "name_match",
            "text": "cyclohexane",
            "confidence": 1.0,
            "uuid": "366fabd7-ac2f-461c-969f-62dfe3bf2377",
            "name": "Cyclohexane",
            "url": "https://haz-map.com/Agents/384",
            "category": "agents"
          }
        ]
      },
      "category": {
        "original_name": "Category",
        "value": "Aromatic Hydrocarbons",
        "links": [],
        "cross_references": [
          {
            "type": "name_match",
            "text": "carbon",
            "confidence": 1.0,
            "uuid": "b53f8815-ee80-40ef-b4aa-3b000e17dab5",
            "name": "Carbon",
            "url": "https://haz-map.com/Agents/1891",
            "category": "agents"
          },
          {
            "type": "fuzzy_match",
            "text": "aromatic hydrocarbons",
            "matched_name": "Aromatic hydrocarbons, C9-C11",
            "confidence": 0.7509578544061303,
            "uuid": "1e86d79b-784d-40c4-8412-39a4432a7a75",
            "category": "agents",
            "url": "https://haz-map.com/Agents/20258"
          },
          {
            "type": "fuzzy_match",
            "text": "hydrocarbons",
            "matched_name": "Hydrocarbons, C>3",
            "confidence": 0.7100840336134454,
            "uuid": "8eaa37ac-3931-44e4-9242-2734127fd661",
            "category": "agents",
            "url": "https://haz-map.com/Agents/14795"
          }
        ]
      },
      "description": {
        "original_name": "Description",
        "value": "Colorless liquid with a mild odor; [Alfa Aesar MSDS]",
        "links": [],
        "cross_references": []
      },
      "sourcesuses": {
        "original_name": "Sources/Uses",
        "value": "\"Pyrolysis product of phencyclidine.\" [ChemIDplus]",
        "links": [],
        "cross_references": []
      },
      "comments": {
        "original_name": "Comments",
        "value": "A severe skin irritant; Causes somnolence and effects on food intake in dermal lethal-dose studies of rabbits; [RTECS] A skin and strong eye irritant; [Alfa Aesar MSDS] See \"Biphenyl.\"",
        "links": [],
        "cross_references": [
          {
            "type": "name_match",
            "text": "biphenyl",
            "confidence": 1.0,
            "uuid": "740f90cb-888a-4a3b-b9ae-30768927fec2",
            "name": "Biphenyl",
            "url": "https://haz-map.com/Agents/306",
            "category": "agents"
          }
        ]
      },
      "biomedical_references": {
        "original_name": "Biomedical References",
        "value": "Search PubMed",
        "links": [
          {
            "text": "Search PubMed",
            "url": "https://www.ncbi.nlm.nih.gov/pubmed?term=Phenylcyclohexane%20AND%20human%5Bmh%5D%20AND%20%28Occupational%20Diseases%20%5Bmh%5D%20OR%20Occupational%20Exposure%20%5Bmh%5D%29%20%20AND%20%28tox%5Bsb%5D%29&cmd=search"
          }
        ],
        "cross_references": []
      }
    },
    "exposure_assessment": {
      "vapor_pressure": {
        "original_name": "Vapor Pressure",
        "value": "0.0399 mm Hg",
        "links": [],
        "cross_references": []
      },
      "explanatory_notes": {
        "original_name": "Explanatory Notes",
        "value": "The Guide in the Emergency Response Guidebook is for \"Environmentally hazardous substances, liquid, n.o.s.\" VP from ChemIDplus;",
        "links": [],
        "cross_references": [
          {
            "type": "name_match",
            "text": "iron",
            "confidence": 1.0,
            "uuid": "a6101f16-ec31-4d6c-af41-cbdbda5b1c7c",
            "name": "Iron",
            "url": "https://haz-map.com/Agents/1993",
            "category": "agents"
          }
        ]
      }
    },
    "diseases_processes_and_activities_linked_to_this_agent": {
      "other_information": {
        "original_name": "Other Information",
        "value": "No other related information on this agent was found.",
        "links": [],
        "cross_references": []
      }
    }
  },
  "cross_references": [
    {
      "type": "name_match",
      "text": "benzene",
      "confidence": 1.0,
      "uuid": "b05124de-5f34-4c14-8f04-ccb20c3780d9",
      "name": "Benzene",
      "url": "https://haz-map.com/Agents/5",
      "category": "agents"
    },
    {
      "type": "name_match",
      "text": "biphenyl",
      "confidence": 1.0,
      "uuid": "740f90cb-888a-4a3b-b9ae-30768927fec2",
      "name": "Biphenyl",
      "url": "https://haz-map.com/Agents/306",
      "category": "agents"
    },
    {
      "type": "name_match",
      "text": "cyclohexane",
      "confidence": 1.0,
      "uuid": "366fabd7-ac2f-461c-969f-62dfe3bf2377",
      "name": "Cyclohexane",
      "url": "https://haz-map.com/Agents/384",
      "category": "agents"
    },
    {
      "type": "name_match",
      "text": "carbon",
      "confidence": 1.0,
      "uuid": "b53f8815-ee80-40ef-b4aa-3b000e17dab5",
      "name": "Carbon",
      "url": "https://haz-map.com/Agents/1891",
      "category": "agents"
    },
    {
      "type": "name_match",
      "text": "iron",
      "confidence": 1.0,
      "uuid": "a6101f16-ec31-4d6c-af41-cbdbda5b1c7c",
      "name": "Iron",
      "url": "https://haz-map.com/Agents/1993",
      "category": "agents"
    },
    {
      "type": "name_match",
      "text": "phenylcyclohexane",
      "confidence": 1.0,
      "uuid": "a6dbbb48-2608-4369-a42a-2c42510e50b2",
      "name": "Phenylcyclohexane",
      "url": "https://haz-map.com/Agents/16564",
      "category": "agents"
    },
    {
      "type": "fuzzy_match",
      "text": "aromatic hydrocarbons",
      "matched_name": "Aromatic hydrocarbons, C9-C11",
      "confidence": 0.7509578544061303,
      "uuid": "1e86d79b-784d-40c4-8412-39a4432a7a75",
      "category": "agents",
      "url": "https://haz-map.com/Agents/20258"
    },
    {
      "type": "fuzzy_match",
      "text": "hydrocarbons",
      "matched_name": "Hydrocarbons, C>3",
      "confidence": 0.7100840336134454,
      "uuid": "8eaa37ac-3931-44e4-9242-2734127fd661",
      "category": "agents",
      "url": "https://haz-map.com/Agents/14795"
    }
  ],
  "all_links": [
    {
      "text": "Search PubMed",
      "url": "https://www.ncbi.nlm.nih.gov/pubmed?term=Phenylcyclohexane%20AND%20human%5Bmh%5D%20AND%20%28Occupational%20Diseases%20%5Bmh%5D%20OR%20Occupational%20Exposure%20%5Bmh%5D%29%20%20AND%20%28tox%5Bsb%5D%29&cmd=search"
    }
  ]
}