{
  "metadata": {
    "scraped_from": "https://haz-map.com/Agents/19586",
    "entity_name": "2-Chloropentane",
    "category": "agents",
    "uuid": "a72fb477-8db3-4f52-bd22-e59308b16dc0",
    "scraped_at": "2025-07-23T22:08:58.064467"
  },
  "parsed_at": "2025-07-24T01:06:57.040153",
  "title": "2-Chloropentane",
  "sections": {
    "general": {
      "agent_name": {
        "original_name": "Agent Name",
        "value": "2-Chloropentane",
        "links": [],
        "cross_references": [
          {
            "type": "name_match",
            "text": "2-chloropentane",
            "confidence": 1.0,
            "uuid": "a72fb477-8db3-4f52-bd22-e59308b16dc0",
            "name": "2-Chloropentane",
            "url": "https://haz-map.com/Agents/19586",
            "category": "agents"
          }
        ]
      },
      "cas_number": {
        "original_name": "CAS Number",
        "value": "625-29-6",
        "links": [],
        "cross_references": []
      },
      "formula": {
        "original_name": "Formula",
        "value": "C5-H11-Cl",
        "links": [],
        "cross_references": []
      },
      "major_category": {
        "original_name": "Major Category",
        "value": "Solvents",
        "links": [],
        "cross_references": []
      },
      "synonyms": {
        "original_name": "Synonyms",
        "value": "1-Methylbutyl chloride; Pentane, 2-chloro-; [ChemIDplus]",
        "links": [],
        "cross_references": []
      },
      "category": {
        "original_name": "Category",
        "value": "Chlorinated Aliphatics",
        "links": [],
        "cross_references": [
          {
            "type": "name_match",
            "text": "chlorin",
            "confidence": 1.0,
            "uuid": "4a566fec-ec7e-42b0-9f14-ec586335e694",
            "name": "Chlorin",
            "url": "https://haz-map.com/Agents/20422",
            "category": "agents"
          }
        ]
      },
      "comments": {
        "original_name": "Comments",
        "value": "An irritant; [Sigma-Aldrich MSDS] See \"n-Butyl chloride.\"",
        "links": [],
        "cross_references": [
          {
            "type": "name_match",
            "text": "n-butyl chloride",
            "confidence": 1.0,
            "uuid": "a643fb94-6f9a-4a51-bdb7-db4d8f6b499a",
            "name": "n-Butyl chloride",
            "url": "https://haz-map.com/Agents/4304",
            "category": "agents"
          }
        ]
      },
      "biomedical_references": {
        "original_name": "Biomedical References",
        "value": "Search PubMed",
        "links": [
          {
            "text": "Search PubMed",
            "url": "https://www.ncbi.nlm.nih.gov/pubmed?term=2-Chloropentane%20AND%20human%5Bmh%5D%20AND%20%28Occupational%20Diseases%20%5Bmh%5D%20OR%20Occupational%20Exposure%20%5Bmh%5D%29%20%20AND%20%28tox%5Bsb%5D%29&cmd=search"
          }
        ],
        "cross_references": []
      }
    },
    "exposure_assessment": {
      "vapor_pressure": {
        "original_name": "Vapor Pressure",
        "value": "48.7 mm Hg",
        "links": [],
        "cross_references": []
      }
    },
    "adverse_effects": {
      "neurotoxin": {
        "original_name": "Neurotoxin",
        "value": "Acute solvent syndrome",
        "links": [],
        "cross_references": []
      }
    },
    "diseases_processes_and_activities_linked_to_this_agent": {
      "diseases": {
        "original_name": "Diseases",
        "value": "Occupational diseases associated with exposure to this agent: Solvents, acute toxic effect",
        "links": [
          {
            "text": "Solvents, acute toxic effect",
            "url": "https://haz-map.com/Diseases/326"
          }
        ],
        "cross_references": [
          {
            "type": "url_match",
            "text": "Solvents, acute toxic effect",
            "url": "https://haz-map.com/Diseases/326",
            "confidence": 1.0,
            "uuid": "581e90e3-9d0c-45f0-aa6c-3468c28da129",
            "name": "Solvents, acute toxic effect",
            "category": "diseases"
          }
        ]
      }
    }
  },
  "cross_references": [
    {
      "type": "url_match",
      "text": "Solvents, acute toxic effect",
      "url": "https://haz-map.com/Diseases/326",
      "confidence": 1.0,
      "uuid": "581e90e3-9d0c-45f0-aa6c-3468c28da129",
      "name": "Solvents, acute toxic effect",
      "category": "diseases"
    },
    {
      "type": "name_match",
      "text": "n-butyl chloride",
      "confidence": 1.0,
      "uuid": "a643fb94-6f9a-4a51-bdb7-db4d8f6b499a",
      "name": "n-Butyl chloride",
      "url": "https://haz-map.com/Agents/4304",
      "category": "agents"
    },
    {
      "type": "name_match",
      "text": "2-chloropentane",
      "confidence": 1.0,
      "uuid": "a72fb477-8db3-4f52-bd22-e59308b16dc0",
      "name": "2-Chloropentane",
      "url": "https://haz-map.com/Agents/19586",
      "category": "agents"
    },
    {
      "type": "name_match",
      "text": "chlorin",
      "confidence": 1.0,
      "uuid": "4a566fec-ec7e-42b0-9f14-ec586335e694",
      "name": "Chlorin",
      "url": "https://haz-map.com/Agents/20422",
      "category": "agents"
    }
  ],
  "all_links": [
    {
      "text": "Search PubMed",
      "url": "https://www.ncbi.nlm.nih.gov/pubmed?term=2-Chloropentane%20AND%20human%5Bmh%5D%20AND%20%28Occupational%20Diseases%20%5Bmh%5D%20OR%20Occupational%20Exposure%20%5Bmh%5D%29%20%20AND%20%28tox%5Bsb%5D%29&cmd=search"
    },
    {
      "text": "Solvents, acute toxic effect",
      "url": "https://haz-map.com/Diseases/326"
    }
  ]
}