{
  "metadata": {
    "scraped_from": "https://haz-map.com/Agents/1361",
    "entity_name": "Perfluorobutyl ethylene",
    "category": "agents",
    "uuid": "a73533c8-b29f-44b3-b3c7-8acc4af0d777",
    "scraped_at": "2025-07-23T18:57:22.399731"
  },
  "parsed_at": "2025-07-24T00:58:34.861778",
  "title": "Perfluorobutyl ethylene",
  "sections": {
    "general": {
      "agent_name": {
        "original_name": "Agent Name",
        "value": "Perfluorobutyl ethylene",
        "links": [],
        "cross_references": [
          {
            "type": "name_match",
            "text": "ethylene",
            "confidence": 1.0,
            "uuid": "958eacc0-5135-4b62-bb93-6df972bf552f",
            "name": "Ethylene",
            "url": "https://haz-map.com/Agents/1076",
            "category": "agents"
          },
          {
            "type": "name_match",
            "text": "perfluorobutyl ethylene",
            "confidence": 1.0,
            "uuid": "a73533c8-b29f-44b3-b3c7-8acc4af0d777",
            "name": "Perfluorobutyl ethylene",
            "url": "https://haz-map.com/Agents/1361",
            "category": "agents"
          }
        ]
      },
      "cas_number": {
        "original_name": "CAS Number",
        "value": "19430-93-4",
        "links": [],
        "cross_references": []
      },
      "formula": {
        "original_name": "Formula",
        "value": "C6-H3-F9",
        "links": [],
        "cross_references": []
      },
      "major_category": {
        "original_name": "Major Category",
        "value": "Other Classes",
        "links": [],
        "cross_references": []
      },
      "synonyms": {
        "original_name": "Synonyms",
        "value": "(Perfluorobutyl)ethene; 3,3,4,4,5,5,6,6,6-Nonafluoro-1-hexene; 3,3,4,4,5,5,6,6-Nonafluoro-1-hexene; Perfluorobutylethylene; 1-Hexene, 3,3,4,4,5,5,6,6,6-nonafluoro-; 3,3,4,4,5,5,6,6,6-Nonafluorohexene; [ChemIDplus]",
        "links": [],
        "cross_references": [
          {
            "type": "name_match",
            "text": "ethylene",
            "confidence": 1.0,
            "uuid": "958eacc0-5135-4b62-bb93-6df972bf552f",
            "name": "Ethylene",
            "url": "https://haz-map.com/Agents/1076",
            "category": "agents"
          },
          {
            "type": "name_match",
            "text": "1-hexene",
            "confidence": 1.0,
            "uuid": "ce08fefc-c3d0-4d7c-bb65-9be201e452f6",
            "name": "1-Hexene",
            "url": "https://haz-map.com/Agents/1648",
            "category": "agents"
          },
          {
            "type": "name_match",
            "text": "hexene",
            "confidence": 1.0,
            "uuid": "592a6801-2d0b-441f-b3f6-6d67971256b7",
            "name": "Hexene",
            "url": "https://haz-map.com/Agents/5534",
            "category": "agents"
          }
        ]
      },
      "category": {
        "original_name": "Category",
        "value": "Halogenated Aliphatics, Unsaturated",
        "links": [],
        "cross_references": []
      },
      "description": {
        "original_name": "Description",
        "value": "Colorless liquid with an ethereal odor;",
        "links": [],
        "cross_references": []
      },
      "sourcesuses": {
        "original_name": "Sources/Uses",
        "value": "Used as a solvent in the production of fluorine-containing polymers; [ACGIH]",
        "links": [],
        "cross_references": [
          {
            "type": "name_match",
            "text": "fluorine",
            "confidence": 1.0,
            "uuid": "bcff09a2-d008-4bb9-9ea2-9945e4426940",
            "name": "Fluorine",
            "url": "https://haz-map.com/Agents/494",
            "category": "agents"
          }
        ]
      },
      "comments": {
        "original_name": "Comments",
        "value": "Rats exposed to 10,000 ppm 6 hours per day for 28 days show mild changes to liver cells (cytoplasmic vacuolation). [ACGIH] See \"Perfluoro compounds, C5-18.\"",
        "links": [],
        "cross_references": [
          {
            "type": "name_match",
            "text": "perfluoro compounds, c5-18",
            "confidence": 1.0,
            "uuid": "b947004f-ba27-48c5-baa1-c60280842427",
            "name": "Perfluoro compounds, C5-18",
            "url": "https://haz-map.com/Agents/6594",
            "category": "agents"
          }
        ]
      },
      "biomedical_references": {
        "original_name": "Biomedical References",
        "value": "Search PubMed",
        "links": [
          {
            "text": "Search PubMed",
            "url": "https://www.ncbi.nlm.nih.gov/pubmed?term=Perfluorobutyl+ethylene%20AND%20human%5Bmh%5D%20AND%20%28Occupational%20Diseases%20%5Bmh%5D%20OR%20Occupational%20Exposure%20%5Bmh%5D%29%20%20AND%20%28tox%5Bsb%5D%29&cmd=search"
          }
        ],
        "cross_references": []
      }
    },
    "exposure_assessment": {
      "skin_designation_acgih": {
        "original_name": "Skin Designation (ACGIH)",
        "value": "Insufficient data",
        "links": [],
        "cross_references": []
      },
      "tlv_acgih": {
        "original_name": "TLV (ACGIH)",
        "value": "100 ppm",
        "links": [],
        "cross_references": []
      },
      "vapor_pressure": {
        "original_name": "Vapor Pressure",
        "value": "238 mm Hg",
        "links": [],
        "cross_references": []
      },
      "lethal_concentration": {
        "original_name": "Lethal Concentration",
        "value": "LC (mice) > 7,178 ppm/1h",
        "links": [],
        "cross_references": []
      },
      "explanatory_notes": {
        "original_name": "Explanatory Notes",
        "value": "VP from HSDB;",
        "links": [],
        "cross_references": []
      }
    },
    "adverse_effects": {
      "hepatotoxin": {
        "original_name": "Hepatotoxin",
        "value": "Hepatoxic (a) from occupational exposure (secondary effect) or (b) in animal studies or in humans after ingestion",
        "links": [],
        "cross_references": []
      }
    },
    "diseases_processes_and_activities_linked_to_this_agent": {
      "other_information": {
        "original_name": "Other Information",
        "value": "No other related information on this agent was found.",
        "links": [],
        "cross_references": []
      }
    }
  },
  "cross_references": [
    {
      "type": "name_match",
      "text": "fluorine",
      "confidence": 1.0,
      "uuid": "bcff09a2-d008-4bb9-9ea2-9945e4426940",
      "name": "Fluorine",
      "url": "https://haz-map.com/Agents/494",
      "category": "agents"
    },
    {
      "type": "name_match",
      "text": "ethylene",
      "confidence": 1.0,
      "uuid": "958eacc0-5135-4b62-bb93-6df972bf552f",
      "name": "Ethylene",
      "url": "https://haz-map.com/Agents/1076",
      "category": "agents"
    },
    {
      "type": "name_match",
      "text": "perfluorobutyl ethylene",
      "confidence": 1.0,
      "uuid": "a73533c8-b29f-44b3-b3c7-8acc4af0d777",
      "name": "Perfluorobutyl ethylene",
      "url": "https://haz-map.com/Agents/1361",
      "category": "agents"
    },
    {
      "type": "name_match",
      "text": "1-hexene",
      "confidence": 1.0,
      "uuid": "ce08fefc-c3d0-4d7c-bb65-9be201e452f6",
      "name": "1-Hexene",
      "url": "https://haz-map.com/Agents/1648",
      "category": "agents"
    },
    {
      "type": "name_match",
      "text": "hexene",
      "confidence": 1.0,
      "uuid": "592a6801-2d0b-441f-b3f6-6d67971256b7",
      "name": "Hexene",
      "url": "https://haz-map.com/Agents/5534",
      "category": "agents"
    },
    {
      "type": "name_match",
      "text": "perfluoro compounds, c5-18",
      "confidence": 1.0,
      "uuid": "b947004f-ba27-48c5-baa1-c60280842427",
      "name": "Perfluoro compounds, C5-18",
      "url": "https://haz-map.com/Agents/6594",
      "category": "agents"
    }
  ],
  "all_links": [
    {
      "text": "Search PubMed",
      "url": "https://www.ncbi.nlm.nih.gov/pubmed?term=Perfluorobutyl+ethylene%20AND%20human%5Bmh%5D%20AND%20%28Occupational%20Diseases%20%5Bmh%5D%20OR%20Occupational%20Exposure%20%5Bmh%5D%29%20%20AND%20%28tox%5Bsb%5D%29&cmd=search"
    }
  ]
}