{
  "metadata": {
    "scraped_from": "https://haz-map.com/Agents/4899",
    "entity_name": "Diisooctyl phosphate",
    "category": "agents",
    "uuid": "a849bf81-ac58-4ce5-b674-ff8b79a0dbf3",
    "scraped_at": "2025-07-23T19:46:21.777130"
  },
  "parsed_at": "2025-07-24T01:14:37.151085",
  "title": "Diisooctyl phosphate",
  "sections": {
    "general": {
      "agent_name": {
        "original_name": "Agent Name",
        "value": "Diisooctyl phosphate",
        "links": [],
        "cross_references": [
          {
            "type": "name_match",
            "text": "diisooctyl phosphate",
            "confidence": 1.0,
            "uuid": "a849bf81-ac58-4ce5-b674-ff8b79a0dbf3",
            "name": "Diisooctyl phosphate",
            "url": "https://haz-map.com/Agents/4899",
            "category": "agents"
          }
        ]
      },
      "cas_number": {
        "original_name": "CAS Number",
        "value": "27215-10-7",
        "links": [],
        "cross_references": []
      },
      "formula": {
        "original_name": "Formula",
        "value": "C16-H35-O4-P",
        "links": [],
        "cross_references": []
      },
      "major_category": {
        "original_name": "Major Category",
        "value": "Other Classes",
        "links": [],
        "cross_references": []
      },
      "synonyms": {
        "original_name": "Synonyms",
        "value": "Diisooctyl acid phosphate; Isooctanol, hydrogen phosphate; Phosphoric acid, diisooctyl ester; [ChemIDplus] UN1902",
        "links": [],
        "cross_references": [
          {
            "type": "name_match",
            "text": "phosphoric acid",
            "confidence": 1.0,
            "uuid": "9049e74c-22b3-4fb1-8e7f-53f17c0ec74a",
            "name": "Phosphoric acid",
            "url": "https://haz-map.com/Agents/595",
            "category": "agents"
          },
          {
            "type": "name_match",
            "text": "hydrogen",
            "confidence": 1.0,
            "uuid": "e2d9645f-5559-4d88-b820-fc4710c154f2",
            "name": "Hydrogen",
            "url": "https://haz-map.com/Agents/1070",
            "category": "agents"
          }
        ]
      },
      "category": {
        "original_name": "Category",
        "value": "Organophosphates, Other",
        "links": [],
        "cross_references": [
          {
            "type": "name_match",
            "text": "organophosphates",
            "confidence": 1.0,
            "uuid": "8d2d239c-20f9-4f02-9916-5e7667b9990c",
            "name": "ORGANOPHOSPHATES",
            "url": "https://haz-map.com/Agents/702",
            "category": "agents"
          }
        ]
      },
      "description": {
        "original_name": "Description",
        "value": "Colorless liquid; [CAMEO]",
        "links": [],
        "cross_references": []
      },
      "sourcesuses": {
        "original_name": "Sources/Uses",
        "value": "Used as a curing agent of urea-formaldehyde resin, a rust inhibitor, a mold lubricant, an antistatic agents for non-cellulose fibers, and a wetting agent for cutback asphalt; Also used for leather tanning, for bringing reclaimed rubber to workable viscosity, in soldering flux, and in flameproofing plasticizers; [HSDB]",
        "links": [],
        "cross_references": [
          {
            "type": "name_match",
            "text": "soldering",
            "confidence": 1.0,
            "uuid": "e21a4ba6-eeee-4d20-969a-9058507be5c1",
            "name": "Soldering",
            "url": "https://haz-map.com/Processes/93",
            "category": "processes"
          },
          {
            "type": "name_match",
            "text": "formaldehyde",
            "confidence": 1.0,
            "uuid": "272252b9-c18e-43df-b652-787210f00a3e",
            "name": "Formaldehyde",
            "url": "https://haz-map.com/Agents/271",
            "category": "agents"
          },
          {
            "type": "name_match",
            "text": "cellulose",
            "confidence": 1.0,
            "uuid": "b9b1b190-806c-4622-8201-8f09b0a87eca",
            "name": "Cellulose",
            "url": "https://haz-map.com/Agents/347",
            "category": "agents"
          },
          {
            "type": "name_match",
            "text": "urea",
            "confidence": 1.0,
            "uuid": "a92a6129-bddd-4f79-9a78-136812ae610f",
            "name": "Urea",
            "url": "https://haz-map.com/Agents/2078",
            "category": "agents"
          },
          {
            "type": "fuzzy_match",
            "text": "formaldehyde resin",
            "matched_name": "Melamine/formaldehyde resin",
            "confidence": 0.8,
            "uuid": "21b82aaa-c2e2-46b2-a4fc-46f42d7d6508",
            "category": "agents",
            "url": "https://haz-map.com/Agents/1012"
          }
        ]
      },
      "comments": {
        "original_name": "Comments",
        "value": "Highly irritating to skin and eyes; [HSDB] Corrosive to tissue; [CAMEO]",
        "links": [],
        "cross_references": []
      },
      "biomedical_references": {
        "original_name": "Biomedical References",
        "value": "Search PubMed",
        "links": [
          {
            "text": "Search PubMed",
            "url": "https://www.ncbi.nlm.nih.gov/pubmed?term=Diisooctyl+phosphate%20AND%20human%5Bmh%5D%20AND%20%28Occupational%20Diseases%20%5Bmh%5D%20OR%20Occupational%20Exposure%20%5Bmh%5D%29%20%20AND%20%28tox%5Bsb%5D%29&cmd=search"
          }
        ],
        "cross_references": []
      }
    },
    "exposure_assessment": {
      "vapor_pressure": {
        "original_name": "Vapor Pressure",
        "value": "4.65E-08 mm Hg",
        "links": [],
        "cross_references": []
      }
    },
    "adverse_effects": {
      "dermatotoxin": {
        "original_name": "Dermatotoxin",
        "value": "Skin burns",
        "links": [],
        "cross_references": [
          {
            "type": "name_match",
            "text": "burn",
            "confidence": 1.0,
            "uuid": "63665de5-6376-4918-8dbf-4c10c4d63837",
            "name": "burn",
            "url": "https://haz-map.com/Findings/204",
            "category": "findings"
          }
        ]
      }
    },
    "diseases_processes_and_activities_linked_to_this_agent": {
      "processes": {
        "original_name": "Processes",
        "value": "Industrial Processes with risk of exposure: Leather Tanning and Processing Molding and Core Making Soldering",
        "links": [
          {
            "text": "Leather Tanning and Processing",
            "url": "https://haz-map.com/Processes/230"
          },
          {
            "text": "Molding and Core Making",
            "url": "https://haz-map.com/Processes/22"
          },
          {
            "text": "Soldering",
            "url": "https://haz-map.com/Processes/93"
          }
        ],
        "cross_references": [
          {
            "type": "url_match",
            "text": "Molding and Core Making",
            "url": "https://haz-map.com/Processes/22",
            "confidence": 1.0,
            "uuid": "bacf6365-dcf3-4976-b887-a3a0e3fd8345",
            "name": "Molding and Core Making",
            "category": "processes"
          },
          {
            "type": "url_match",
            "text": "Soldering",
            "url": "https://haz-map.com/Processes/93",
            "confidence": 1.0,
            "uuid": "e21a4ba6-eeee-4d20-969a-9058507be5c1",
            "name": "Soldering",
            "category": "processes"
          }
        ]
      }
    }
  },
  "cross_references": [
    {
      "type": "url_match",
      "text": "Molding and Core Making",
      "url": "https://haz-map.com/Processes/22",
      "confidence": 1.0,
      "uuid": "bacf6365-dcf3-4976-b887-a3a0e3fd8345",
      "name": "Molding and Core Making",
      "category": "processes"
    },
    {
      "type": "url_match",
      "text": "Soldering",
      "url": "https://haz-map.com/Processes/93",
      "confidence": 1.0,
      "uuid": "e21a4ba6-eeee-4d20-969a-9058507be5c1",
      "name": "Soldering",
      "category": "processes"
    },
    {
      "type": "name_match",
      "text": "burn",
      "confidence": 1.0,
      "uuid": "63665de5-6376-4918-8dbf-4c10c4d63837",
      "name": "burn",
      "url": "https://haz-map.com/Findings/204",
      "category": "findings"
    },
    {
      "type": "name_match",
      "text": "formaldehyde",
      "confidence": 1.0,
      "uuid": "272252b9-c18e-43df-b652-787210f00a3e",
      "name": "Formaldehyde",
      "url": "https://haz-map.com/Agents/271",
      "category": "agents"
    },
    {
      "type": "name_match",
      "text": "cellulose",
      "confidence": 1.0,
      "uuid": "b9b1b190-806c-4622-8201-8f09b0a87eca",
      "name": "Cellulose",
      "url": "https://haz-map.com/Agents/347",
      "category": "agents"
    },
    {
      "type": "name_match",
      "text": "phosphoric acid",
      "confidence": 1.0,
      "uuid": "9049e74c-22b3-4fb1-8e7f-53f17c0ec74a",
      "name": "Phosphoric acid",
      "url": "https://haz-map.com/Agents/595",
      "category": "agents"
    },
    {
      "type": "name_match",
      "text": "organophosphates",
      "confidence": 1.0,
      "uuid": "8d2d239c-20f9-4f02-9916-5e7667b9990c",
      "name": "ORGANOPHOSPHATES",
      "url": "https://haz-map.com/Agents/702",
      "category": "agents"
    },
    {
      "type": "name_match",
      "text": "hydrogen",
      "confidence": 1.0,
      "uuid": "e2d9645f-5559-4d88-b820-fc4710c154f2",
      "name": "Hydrogen",
      "url": "https://haz-map.com/Agents/1070",
      "category": "agents"
    },
    {
      "type": "name_match",
      "text": "urea",
      "confidence": 1.0,
      "uuid": "a92a6129-bddd-4f79-9a78-136812ae610f",
      "name": "Urea",
      "url": "https://haz-map.com/Agents/2078",
      "category": "agents"
    },
    {
      "type": "name_match",
      "text": "diisooctyl phosphate",
      "confidence": 1.0,
      "uuid": "a849bf81-ac58-4ce5-b674-ff8b79a0dbf3",
      "name": "Diisooctyl phosphate",
      "url": "https://haz-map.com/Agents/4899",
      "category": "agents"
    },
    {
      "type": "fuzzy_match",
      "text": "formaldehyde resin",
      "matched_name": "Melamine/formaldehyde resin",
      "confidence": 0.8,
      "uuid": "21b82aaa-c2e2-46b2-a4fc-46f42d7d6508",
      "category": "agents",
      "url": "https://haz-map.com/Agents/1012"
    }
  ],
  "all_links": [
    {
      "text": "Search PubMed",
      "url": "https://www.ncbi.nlm.nih.gov/pubmed?term=Diisooctyl+phosphate%20AND%20human%5Bmh%5D%20AND%20%28Occupational%20Diseases%20%5Bmh%5D%20OR%20Occupational%20Exposure%20%5Bmh%5D%29%20%20AND%20%28tox%5Bsb%5D%29&cmd=search"
    },
    {
      "text": "Leather Tanning and Processing",
      "url": "https://haz-map.com/Processes/230"
    },
    {
      "text": "Molding and Core Making",
      "url": "https://haz-map.com/Processes/22"
    },
    {
      "text": "Soldering",
      "url": "https://haz-map.com/Processes/93"
    }
  ]
}