{
  "metadata": {
    "scraped_from": "https://haz-map.com/Agents/5043",
    "entity_name": "N-Lauroylethanolamine",
    "category": "agents",
    "uuid": "a8ae9c23-be88-446f-b925-f1ce97063f96",
    "scraped_at": "2025-07-23T19:48:29.690792"
  },
  "parsed_at": "2025-07-24T00:51:15.735765",
  "title": "N-Lauroylethanolamine",
  "sections": {
    "general": {
      "agent_name": {
        "original_name": "Agent Name",
        "value": "N-Lauroylethanolamine",
        "links": [],
        "cross_references": [
          {
            "type": "name_match",
            "text": "ethanolamine",
            "confidence": 1.0,
            "uuid": "16354994-9346-496d-9e19-23d8a4473ab4",
            "name": "Ethanolamine",
            "url": "https://haz-map.com/Agents/288",
            "category": "agents"
          },
          {
            "type": "name_match",
            "text": "n-lauroylethanolamine",
            "confidence": 1.0,
            "uuid": "a8ae9c23-be88-446f-b925-f1ce97063f96",
            "name": "N-Lauroylethanolamine",
            "url": "https://haz-map.com/Agents/5043",
            "category": "agents"
          }
        ]
      },
      "alternative_name": {
        "original_name": "Alternative Name",
        "value": "Dodecanamide, N-(2-hydroxyethyl)-",
        "links": [],
        "cross_references": []
      },
      "cas_number": {
        "original_name": "CAS Number",
        "value": "142-78-9",
        "links": [],
        "cross_references": []
      },
      "formula": {
        "original_name": "Formula",
        "value": "C14-H29-N-O2",
        "links": [],
        "cross_references": []
      },
      "major_category": {
        "original_name": "Major Category",
        "value": "Nitrogen Compounds",
        "links": [],
        "cross_references": [
          {
            "type": "name_match",
            "text": "nitrogen",
            "confidence": 1.0,
            "uuid": "db5e90a9-06d2-45b9-8b81-f345a89b0bc0",
            "name": "Nitrogen",
            "url": "https://haz-map.com/Agents/1072",
            "category": "agents"
          }
        ]
      },
      "synonyms": {
        "original_name": "Synonyms",
        "value": "Dodecanamide, N-(2-hydroxyethyl)-; N-(2-Hydroxyethyl)dodecanamide; 2-Dodecanamidoethanol; Amisol LDE; Amisol LME; Comperlan LM; Copramyl; Crillon LME; Cyclomide LM; Lauramide MEA; Lauric N-(2-hydroxyethyl)amide; Lauric acid ethanolamide; Lauric acid monoethanolamide; Lauric acid monoethanolamine; Lauric ethylolamide; Lauric monoethanolamide; Lauridit LM; Lauroyl monoethanolamide; Laurylamidoethanol; Laurylethanolamide; N-(2-Hydroxyethyl)lauramide; Rewomid L 203; Rolamid CM; Stabilor CMH; Steinamid L 203; Ultrapole H; Vistalan; [ChemIDplus]",
        "links": [],
        "cross_references": [
          {
            "type": "name_match",
            "text": "ethanolamine",
            "confidence": 1.0,
            "uuid": "16354994-9346-496d-9e19-23d8a4473ab4",
            "name": "Ethanolamine",
            "url": "https://haz-map.com/Agents/288",
            "category": "agents"
          },
          {
            "type": "name_match",
            "text": "lauric acid",
            "confidence": 1.0,
            "uuid": "43b506b3-9881-4099-9951-2172b5c36577",
            "name": "Lauric acid",
            "url": "https://haz-map.com/Agents/5046",
            "category": "agents"
          },
          {
            "type": "name_match",
            "text": "uric acid",
            "confidence": 1.0,
            "uuid": "bd67e9b1-899e-4f1c-95f0-d25380f3c966",
            "name": "Uric acid",
            "url": "https://haz-map.com/Agents/18587",
            "category": "agents"
          }
        ]
      },
      "category": {
        "original_name": "Category",
        "value": "Ethanolamines",
        "links": [],
        "cross_references": [
          {
            "type": "name_match",
            "text": "ethanolamine",
            "confidence": 1.0,
            "uuid": "16354994-9346-496d-9e19-23d8a4473ab4",
            "name": "Ethanolamine",
            "url": "https://haz-map.com/Agents/288",
            "category": "agents"
          }
        ]
      },
      "description": {
        "original_name": "Description",
        "value": "Cream-colored solid; [CAMEO]",
        "links": [],
        "cross_references": []
      },
      "sourcesuses": {
        "original_name": "Sources/Uses",
        "value": "Ultrapoles is the trademark for several alkanolamine condensates that are surface-active agents; Ultrapoles are used as detergents and in detergents, wetting and foaming agents, foam stabilizers, cosmetic preparations, emollients, and thickening agents; [HSDB]",
        "links": [],
        "cross_references": []
      },
      "comments": {
        "original_name": "Comments",
        "value": "Emergency treatment: \"Detergents and soaps-anionic and nonionic\"; [HSDB] Highly irritating to eye--risk of serious damage; [IUCLID] May cause irritation; [MSDSonline]",
        "links": [],
        "cross_references": []
      },
      "biomedical_references": {
        "original_name": "Biomedical References",
        "value": "Search PubMed",
        "links": [
          {
            "text": "Search PubMed",
            "url": "https://www.ncbi.nlm.nih.gov/pubmed?term=N-Lauroylethanolamine%20AND%20human%5Bmh%5D%20AND%20%28Occupational%20Diseases%20%5Bmh%5D%20OR%20Occupational%20Exposure%20%5Bmh%5D%29%20%20AND%20%28tox%5Bsb%5D%29&cmd=search"
          }
        ],
        "cross_references": []
      }
    },
    "exposure_assessment": {
      "vapor_pressure": {
        "original_name": "Vapor Pressure",
        "value": "6.57E-09 mm Hg",
        "links": [],
        "cross_references": []
      }
    },
    "diseases_processes_and_activities_linked_to_this_agent": {
      "other_information": {
        "original_name": "Other Information",
        "value": "No other related information on this agent was found.",
        "links": [],
        "cross_references": []
      }
    }
  },
  "cross_references": [
    {
      "type": "name_match",
      "text": "ethanolamine",
      "confidence": 1.0,
      "uuid": "16354994-9346-496d-9e19-23d8a4473ab4",
      "name": "Ethanolamine",
      "url": "https://haz-map.com/Agents/288",
      "category": "agents"
    },
    {
      "type": "name_match",
      "text": "nitrogen",
      "confidence": 1.0,
      "uuid": "db5e90a9-06d2-45b9-8b81-f345a89b0bc0",
      "name": "Nitrogen",
      "url": "https://haz-map.com/Agents/1072",
      "category": "agents"
    },
    {
      "type": "name_match",
      "text": "n-lauroylethanolamine",
      "confidence": 1.0,
      "uuid": "a8ae9c23-be88-446f-b925-f1ce97063f96",
      "name": "N-Lauroylethanolamine",
      "url": "https://haz-map.com/Agents/5043",
      "category": "agents"
    },
    {
      "type": "name_match",
      "text": "lauric acid",
      "confidence": 1.0,
      "uuid": "43b506b3-9881-4099-9951-2172b5c36577",
      "name": "Lauric acid",
      "url": "https://haz-map.com/Agents/5046",
      "category": "agents"
    },
    {
      "type": "name_match",
      "text": "uric acid",
      "confidence": 1.0,
      "uuid": "bd67e9b1-899e-4f1c-95f0-d25380f3c966",
      "name": "Uric acid",
      "url": "https://haz-map.com/Agents/18587",
      "category": "agents"
    }
  ],
  "all_links": [
    {
      "text": "Search PubMed",
      "url": "https://www.ncbi.nlm.nih.gov/pubmed?term=N-Lauroylethanolamine%20AND%20human%5Bmh%5D%20AND%20%28Occupational%20Diseases%20%5Bmh%5D%20OR%20Occupational%20Exposure%20%5Bmh%5D%29%20%20AND%20%28tox%5Bsb%5D%29&cmd=search"
    }
  ]
}