{
  "metadata": {
    "scraped_from": "https://haz-map.com/Agents/16071",
    "entity_name": "N-Phenylethanolamine",
    "category": "agents",
    "uuid": "a8b5ad1a-2016-483b-bce0-aea400b1feeb",
    "scraped_at": "2025-07-23T21:34:20.211282"
  },
  "parsed_at": "2025-07-24T00:53:22.634907",
  "title": "N-Phenylethanolamine",
  "sections": {
    "general": {
      "agent_name": {
        "original_name": "Agent Name",
        "value": "N-Phenylethanolamine",
        "links": [],
        "cross_references": [
          {
            "type": "name_match",
            "text": "ethanolamine",
            "confidence": 1.0,
            "uuid": "16354994-9346-496d-9e19-23d8a4473ab4",
            "name": "Ethanolamine",
            "url": "https://haz-map.com/Agents/288",
            "category": "agents"
          },
          {
            "type": "name_match",
            "text": "n-phenylethanolamine",
            "confidence": 1.0,
            "uuid": "a8b5ad1a-2016-483b-bce0-aea400b1feeb",
            "name": "N-Phenylethanolamine",
            "url": "https://haz-map.com/Agents/16071",
            "category": "agents"
          },
          {
            "type": "name_match",
            "text": "phenylethanolamine",
            "confidence": 1.0,
            "uuid": "9eaa0dd0-4ad3-49a7-808b-c15b83418652",
            "name": "Phenylethanolamine",
            "url": "https://haz-map.com/Agents/19512",
            "category": "agents"
          }
        ]
      },
      "cas_number": {
        "original_name": "CAS Number",
        "value": "122-98-5",
        "links": [],
        "cross_references": []
      },
      "formula": {
        "original_name": "Formula",
        "value": "C8-H11-N-O",
        "links": [],
        "cross_references": []
      },
      "major_category": {
        "original_name": "Major Category",
        "value": "Nitrogen Compounds",
        "links": [],
        "cross_references": [
          {
            "type": "name_match",
            "text": "nitrogen",
            "confidence": 1.0,
            "uuid": "db5e90a9-06d2-45b9-8b81-f345a89b0bc0",
            "name": "Nitrogen",
            "url": "https://haz-map.com/Agents/1072",
            "category": "agents"
          }
        ]
      },
      "synonyms": {
        "original_name": "Synonyms",
        "value": "(beta-Hydroxyethyl)aniline; 2-(Phenylamino)ethanol; 2-Anilinoethanol; Aniline, N-(2-hydroxyethyl)-; Aniline, N-(beta-hydroxyethyl)-; Benzenamine, N-(2-hydroxyethyl)-; Emery 5700; Ethanol, 2-(phenylamino)-; N-(2-Hydroxyethyl)aniline; N-(2-Hydroxyethyl)phenylamine; N-(beta-Hydroxyethyl)aniline; Phenyl ethanolamine; Phenylethanolamine; beta-Anilinoethanol; Ethanol, 2-anilino-; [ChemIDplus] PEA; [Acros Organics MSDS]",
        "links": [],
        "cross_references": [
          {
            "type": "name_match",
            "text": "ethanolamine",
            "confidence": 1.0,
            "uuid": "16354994-9346-496d-9e19-23d8a4473ab4",
            "name": "Ethanolamine",
            "url": "https://haz-map.com/Agents/288",
            "category": "agents"
          },
          {
            "type": "name_match",
            "text": "aniline",
            "confidence": 1.0,
            "uuid": "e4932692-8d9c-4a98-8c5c-81e55b12aedf",
            "name": "Aniline",
            "url": "https://haz-map.com/Agents/296",
            "category": "agents"
          },
          {
            "type": "name_match",
            "text": "emery",
            "confidence": 1.0,
            "uuid": "9c489b3c-513f-41aa-b898-a2242b92d2b4",
            "name": "Emery",
            "url": "https://haz-map.com/Agents/478",
            "category": "agents"
          },
          {
            "type": "name_match",
            "text": "phenylethanolamine",
            "confidence": 1.0,
            "uuid": "9eaa0dd0-4ad3-49a7-808b-c15b83418652",
            "name": "Phenylethanolamine",
            "url": "https://haz-map.com/Agents/19512",
            "category": "agents"
          }
        ]
      },
      "category": {
        "original_name": "Category",
        "value": "Ethanolamines",
        "links": [],
        "cross_references": [
          {
            "type": "name_match",
            "text": "ethanolamine",
            "confidence": 1.0,
            "uuid": "16354994-9346-496d-9e19-23d8a4473ab4",
            "name": "Ethanolamine",
            "url": "https://haz-map.com/Agents/288",
            "category": "agents"
          }
        ]
      },
      "description": {
        "original_name": "Description",
        "value": "Melting point =11 deg C; [ChemIDplus] Clear brown liquid; [Acros Organics MSDS]",
        "links": [],
        "cross_references": []
      },
      "comments": {
        "original_name": "Comments",
        "value": "A moderate to severe eye and mild skin irritant; Causes ataxia and coma in intravenous lethal-dose studies of rabbits; [RTECS] A severe skin and eye irritant; Highly toxic by skin absorption; [Acros Organics MSDS] See \"2-Methylaminoethanol.\" See \"Phenylethanolamine.\"",
        "links": [],
        "cross_references": [
          {
            "type": "name_match",
            "text": "ethanolamine",
            "confidence": 1.0,
            "uuid": "16354994-9346-496d-9e19-23d8a4473ab4",
            "name": "Ethanolamine",
            "url": "https://haz-map.com/Agents/288",
            "category": "agents"
          },
          {
            "type": "name_match",
            "text": "2-methylaminoethanol",
            "confidence": 1.0,
            "uuid": "daf1137b-5315-4437-aa24-b9d0788d1ddf",
            "name": "2-Methylaminoethanol",
            "url": "https://haz-map.com/Agents/3134",
            "category": "agents"
          },
          {
            "type": "name_match",
            "text": "phenylethanolamine",
            "confidence": 1.0,
            "uuid": "9eaa0dd0-4ad3-49a7-808b-c15b83418652",
            "name": "Phenylethanolamine",
            "url": "https://haz-map.com/Agents/19512",
            "category": "agents"
          }
        ]
      },
      "biomedical_references": {
        "original_name": "Biomedical References",
        "value": "Search PubMed",
        "links": [
          {
            "text": "Search PubMed",
            "url": "https://www.ncbi.nlm.nih.gov/pubmed?term=N-Phenylethanolamine%20AND%20human%5Bmh%5D%20AND%20%28Occupational%20Diseases%20%5Bmh%5D%20OR%20Occupational%20Exposure%20%5Bmh%5D%29%20%20AND%20%28tox%5Bsb%5D%29&cmd=search"
          }
        ],
        "cross_references": []
      }
    },
    "diseases_processes_and_activities_linked_to_this_agent": {
      "other_information": {
        "original_name": "Other Information",
        "value": "No other related information on this agent was found.",
        "links": [],
        "cross_references": []
      }
    }
  },
  "cross_references": [
    {
      "type": "name_match",
      "text": "ethanolamine",
      "confidence": 1.0,
      "uuid": "16354994-9346-496d-9e19-23d8a4473ab4",
      "name": "Ethanolamine",
      "url": "https://haz-map.com/Agents/288",
      "category": "agents"
    },
    {
      "type": "name_match",
      "text": "aniline",
      "confidence": 1.0,
      "uuid": "e4932692-8d9c-4a98-8c5c-81e55b12aedf",
      "name": "Aniline",
      "url": "https://haz-map.com/Agents/296",
      "category": "agents"
    },
    {
      "type": "name_match",
      "text": "emery",
      "confidence": 1.0,
      "uuid": "9c489b3c-513f-41aa-b898-a2242b92d2b4",
      "name": "Emery",
      "url": "https://haz-map.com/Agents/478",
      "category": "agents"
    },
    {
      "type": "name_match",
      "text": "nitrogen",
      "confidence": 1.0,
      "uuid": "db5e90a9-06d2-45b9-8b81-f345a89b0bc0",
      "name": "Nitrogen",
      "url": "https://haz-map.com/Agents/1072",
      "category": "agents"
    },
    {
      "type": "name_match",
      "text": "2-methylaminoethanol",
      "confidence": 1.0,
      "uuid": "daf1137b-5315-4437-aa24-b9d0788d1ddf",
      "name": "2-Methylaminoethanol",
      "url": "https://haz-map.com/Agents/3134",
      "category": "agents"
    },
    {
      "type": "name_match",
      "text": "n-phenylethanolamine",
      "confidence": 1.0,
      "uuid": "a8b5ad1a-2016-483b-bce0-aea400b1feeb",
      "name": "N-Phenylethanolamine",
      "url": "https://haz-map.com/Agents/16071",
      "category": "agents"
    },
    {
      "type": "name_match",
      "text": "phenylethanolamine",
      "confidence": 1.0,
      "uuid": "9eaa0dd0-4ad3-49a7-808b-c15b83418652",
      "name": "Phenylethanolamine",
      "url": "https://haz-map.com/Agents/19512",
      "category": "agents"
    }
  ],
  "all_links": [
    {
      "text": "Search PubMed",
      "url": "https://www.ncbi.nlm.nih.gov/pubmed?term=N-Phenylethanolamine%20AND%20human%5Bmh%5D%20AND%20%28Occupational%20Diseases%20%5Bmh%5D%20OR%20Occupational%20Exposure%20%5Bmh%5D%29%20%20AND%20%28tox%5Bsb%5D%29&cmd=search"
    }
  ]
}