{
  "metadata": {
    "scraped_from": "https://haz-map.com/Agents/1451",
    "entity_name": "Lewisite",
    "category": "agents",
    "uuid": "a8d07e92-7373-4de4-ab0d-14fcf4c3df58",
    "scraped_at": "2025-07-23T18:59:19.832235"
  },
  "parsed_at": "2025-07-24T01:18:21.454078",
  "title": "Lewisite",
  "sections": {
    "general": {
      "agent_name": {
        "original_name": "Agent Name",
        "value": "Lewisite",
        "links": [],
        "cross_references": [
          {
            "type": "name_match",
            "text": "lewisite",
            "confidence": 1.0,
            "uuid": "a8d07e92-7373-4de4-ab0d-14fcf4c3df58",
            "name": "Lewisite",
            "url": "https://haz-map.com/Agents/1451",
            "category": "agents"
          }
        ]
      },
      "cas_number": {
        "original_name": "CAS Number",
        "value": "541-25-3",
        "links": [],
        "cross_references": []
      },
      "formula": {
        "original_name": "Formula",
        "value": "C2-H2-As-Cl3",
        "links": [],
        "cross_references": []
      },
      "major_category": {
        "original_name": "Major Category",
        "value": "Toxic Gases & Vapors",
        "links": [],
        "cross_references": []
      },
      "synonyms": {
        "original_name": "Synonyms",
        "value": "(2-Chloroethenyl)arsonous dichloride; 1-Chloro-2-di-chloroarsinoethane; 2-Chlorovinyldichloroarsine; Arsine, (2-chlorovinyl)dichloro-; Chlorovinyl dichloroarsine; Chlorovinylarsine dichloride; Dichloro(2-chlorovinyl)arsine; Lewisite (L-1); Lewisite (arsenic compound); Lewisite 1; beta-Chlorovinylbichloroarsine; beta-Chlorovinyldichloroarsine; Arsonous dichloride, (2-chloroethenyl)-; Arsonous dichloride, As-(2-chloroethenyl)-; [ChemIDplus] UN2810",
        "links": [],
        "cross_references": [
          {
            "type": "name_match",
            "text": "arsine",
            "confidence": 1.0,
            "uuid": "9cbc23fa-8b7b-4fc4-b893-37c76e241fda",
            "name": "Arsine",
            "url": "https://haz-map.com/Agents/80",
            "category": "agents"
          },
          {
            "type": "name_match",
            "text": "ethane",
            "confidence": 1.0,
            "uuid": "5162cc8c-dfb9-4060-81ac-38a8cec7f9dd",
            "name": "Ethane",
            "url": "https://haz-map.com/Agents/1075",
            "category": "agents"
          },
          {
            "type": "name_match",
            "text": "arsenic",
            "confidence": 1.0,
            "uuid": "2bf78711-4881-4b55-9b7c-df80529b3991",
            "name": "Arsenic",
            "url": "https://haz-map.com/Agents/1147",
            "category": "agents"
          },
          {
            "type": "name_match",
            "text": "lewisite",
            "confidence": 1.0,
            "uuid": "a8d07e92-7373-4de4-ab0d-14fcf4c3df58",
            "name": "Lewisite",
            "url": "https://haz-map.com/Agents/1451",
            "category": "agents"
          }
        ]
      },
      "category": {
        "original_name": "Category",
        "value": "Chemical Weapons",
        "links": [],
        "cross_references": [
          {
            "type": "name_match",
            "text": "mica",
            "confidence": 1.0,
            "uuid": "433f26f1-c399-4596-b179-ce3843cfd465",
            "name": "Mica",
            "url": "https://haz-map.com/Agents/621",
            "category": "agents"
          }
        ]
      },
      "description": {
        "original_name": "Description",
        "value": "Pure: Colorless odorless liquid; Impure: Brown with an odor like geraniums; [U.S. Army ECBC MSDS]",
        "links": [],
        "cross_references": []
      },
      "sourcesuses": {
        "original_name": "Sources/Uses",
        "value": "Chemical warfare;",
        "links": [],
        "cross_references": [
          {
            "type": "name_match",
            "text": "mica",
            "confidence": 1.0,
            "uuid": "433f26f1-c399-4596-b179-ce3843cfd465",
            "name": "Mica",
            "url": "https://haz-map.com/Agents/621",
            "category": "agents"
          }
        ]
      },
      "comments": {
        "original_name": "Comments",
        "value": "Like mustard, it damages the eyes, skin, and lungs; however, Lewisite causes immediate pain; it causes redness in 15-30 minutes and blisters within several hours after exposure to the liquid. Unlike mustard, it does not cause immunosuppression. British anti-Lewisite (BAL) is an antidote if used soon after exposure. Lewisite is extremely irritating to the eyes and respiratory tract. High doses can cause pulmonary edema. It can cause hypotension and shock. It may cause hemolytic anemia. [ccc.apgea.army.mil] Lewisite can injure capillaries leading to extravasation of fluid, hypovolemia, and shock. Blood tests may show leukocytosis and the chest x-ray pulmonary edema. [Weinstein, p. 138] Contact with skin or eyes causes immediate pain and lachrymation, with maximum effects at 4-8 hours post-exposure; Vapor exposure (60-330 mg/m3) causes skin discoloration and blistering with maximum effects at 36-48 hours post-exposure; Concentrations of 10 mg/m3/15min causes inflammation of eyes and swelling of eyelids; Inhalation of 500 mg/m3/5min is potentially lethal; Severe exposure may cause pulmonary edema, respiratory failure, liver necrosis, arsenic poisoning, and blindness; [HSDB] See \"Arsenic\" and the linked occupational diseases.",
        "links": [],
        "cross_references": [
          {
            "type": "name_match",
            "text": "anemia",
            "confidence": 1.0,
            "uuid": "be5db7c0-2652-4940-a3d9-d0afb3e2b182",
            "name": "anemia",
            "url": "https://haz-map.com/Findings/54",
            "category": "findings"
          },
          {
            "type": "name_match",
            "text": "leukocytosis",
            "confidence": 1.0,
            "uuid": "ab646b3b-c2ed-427d-8956-d67ba0e4ec89",
            "name": "leukocytosis",
            "url": "https://haz-map.com/Findings/55",
            "category": "findings"
          },
          {
            "type": "name_match",
            "text": "shock",
            "confidence": 1.0,
            "uuid": "184088a3-33cc-4d64-b02e-bfb90ba4cbe5",
            "name": "shock",
            "url": "https://haz-map.com/Findings/76",
            "category": "findings"
          },
          {
            "type": "name_match",
            "text": "pulmonary edema",
            "confidence": 1.0,
            "uuid": "ee39114e-c922-40fd-9588-a532de404962",
            "name": "pulmonary edema",
            "url": "https://haz-map.com/Findings/186",
            "category": "findings"
          },
          {
            "type": "name_match",
            "text": "lead",
            "confidence": 1.0,
            "uuid": "24246eba-13d7-456a-a142-ceae0f1df43f",
            "name": "Lead",
            "url": "https://haz-map.com/Agents/10",
            "category": "agents"
          },
          {
            "type": "name_match",
            "text": "arsenic",
            "confidence": 1.0,
            "uuid": "2bf78711-4881-4b55-9b7c-df80529b3991",
            "name": "Arsenic",
            "url": "https://haz-map.com/Agents/1147",
            "category": "agents"
          },
          {
            "type": "name_match",
            "text": "lewisite",
            "confidence": 1.0,
            "uuid": "a8d07e92-7373-4de4-ab0d-14fcf4c3df58",
            "name": "Lewisite",
            "url": "https://haz-map.com/Agents/1451",
            "category": "agents"
          },
          {
            "type": "fuzzy_match",
            "text": "hemolytic anemia",
            "matched_name": "Hemolytic anemia, acute",
            "confidence": 0.7763975155279503,
            "uuid": "5036f7f9-e7c4-4f96-9fdb-89dd68e6462e",
            "category": "diseases",
            "url": "https://haz-map.com/Diseases/226"
          }
        ]
      },
      "reference_link_1": {
        "original_name": "Reference Link #1",
        "value": "ATSDR - Medical Management: Blister Agents: Lewisite (L) and Mustard-Lewisite Mixture (HL)",
        "links": [
          {
            "text": "ATSDR - Medical Management: Blister Agents: Lewisite (L) and Mustard-Lewisite Mixture (HL)",
            "url": "http://www.atsdr.cdc.gov/mmg/mmg.asp?id=922&tid=190"
          }
        ],
        "cross_references": [
          {
            "type": "name_match",
            "text": "lewisite",
            "confidence": 1.0,
            "uuid": "a8d07e92-7373-4de4-ab0d-14fcf4c3df58",
            "name": "Lewisite",
            "url": "https://haz-map.com/Agents/1451",
            "category": "agents"
          }
        ]
      },
      "biomedical_references": {
        "original_name": "Biomedical References",
        "value": "Search PubMed",
        "links": [
          {
            "text": "Search PubMed",
            "url": "https://www.ncbi.nlm.nih.gov/pubmed?term=Lewisite%20AND%20human%5Bmh%5D%20AND%20%28Occupational%20Diseases%20%5Bmh%5D%20OR%20Occupational%20Exposure%20%5Bmh%5D%29%20%20AND%20%28tox%5Bsb%5D%29&cmd=search"
          }
        ],
        "cross_references": []
      }
    },
    "exposure_assessment": {
      "tih": {
        "original_name": "TIH",
        "value": "Yes",
        "links": [],
        "cross_references": []
      },
      "vapor_pressure": {
        "original_name": "Vapor Pressure",
        "value": "0.58 mm Hg",
        "links": [],
        "cross_references": []
      },
      "lethal_concentration": {
        "original_name": "Lethal Concentration",
        "value": "LCLo (human) = 6 ppm/30min",
        "links": [],
        "cross_references": []
      },
      "explanatory_notes": {
        "original_name": "Explanatory Notes",
        "value": "VP from HSDB;",
        "links": [],
        "cross_references": []
      }
    },
    "adverse_effects": {
      "anemia": {
        "original_name": "Anemia",
        "value": "Hemolytic anemia",
        "links": [],
        "cross_references": [
          {
            "type": "name_match",
            "text": "anemia",
            "confidence": 1.0,
            "uuid": "be5db7c0-2652-4940-a3d9-d0afb3e2b182",
            "name": "anemia",
            "url": "https://haz-map.com/Findings/54",
            "category": "findings"
          },
          {
            "type": "fuzzy_match",
            "text": "hemolytic anemia",
            "matched_name": "Hemolytic anemia, acute",
            "confidence": 0.7763975155279503,
            "uuid": "5036f7f9-e7c4-4f96-9fdb-89dd68e6462e",
            "category": "diseases",
            "url": "https://haz-map.com/Diseases/226"
          }
        ]
      },
      "lachrymator": {
        "original_name": "Lachrymator",
        "value": "Yes",
        "links": [],
        "cross_references": []
      },
      "toxic_pneumonitis": {
        "original_name": "Toxic Pneumonitis",
        "value": "Yes",
        "links": [],
        "cross_references": []
      },
      "hepatotoxin": {
        "original_name": "Hepatotoxin",
        "value": "Hepatoxic (a) from occupational exposure (secondary effect) or (b) in animal studies or in humans after ingestion",
        "links": [],
        "cross_references": []
      },
      "dermatotoxin": {
        "original_name": "Dermatotoxin",
        "value": "Skin burns",
        "links": [],
        "cross_references": [
          {
            "type": "name_match",
            "text": "burn",
            "confidence": 1.0,
            "uuid": "63665de5-6376-4918-8dbf-4c10c4d63837",
            "name": "burn",
            "url": "https://haz-map.com/Findings/204",
            "category": "findings"
          }
        ]
      }
    },
    "diseases_processes_and_activities_linked_to_this_agent": {
      "diseases": {
        "original_name": "Diseases",
        "value": "Occupational diseases associated with exposure to this agent: Pneumonitis, toxic",
        "links": [
          {
            "text": "Pneumonitis, toxic",
            "url": "https://haz-map.com/Diseases/306"
          }
        ],
        "cross_references": [
          {
            "type": "url_match",
            "text": "Pneumonitis, toxic",
            "url": "https://haz-map.com/Diseases/306",
            "confidence": 1.0,
            "uuid": "cd799281-0284-450d-bb82-ed6b675616ac",
            "name": "Pneumonitis, toxic",
            "category": "diseases"
          }
        ]
      }
    }
  },
  "cross_references": [
    {
      "type": "url_match",
      "text": "Pneumonitis, toxic",
      "url": "https://haz-map.com/Diseases/306",
      "confidence": 1.0,
      "uuid": "cd799281-0284-450d-bb82-ed6b675616ac",
      "name": "Pneumonitis, toxic",
      "category": "diseases"
    },
    {
      "type": "name_match",
      "text": "anemia",
      "confidence": 1.0,
      "uuid": "be5db7c0-2652-4940-a3d9-d0afb3e2b182",
      "name": "anemia",
      "url": "https://haz-map.com/Findings/54",
      "category": "findings"
    },
    {
      "type": "name_match",
      "text": "leukocytosis",
      "confidence": 1.0,
      "uuid": "ab646b3b-c2ed-427d-8956-d67ba0e4ec89",
      "name": "leukocytosis",
      "url": "https://haz-map.com/Findings/55",
      "category": "findings"
    },
    {
      "type": "name_match",
      "text": "shock",
      "confidence": 1.0,
      "uuid": "184088a3-33cc-4d64-b02e-bfb90ba4cbe5",
      "name": "shock",
      "url": "https://haz-map.com/Findings/76",
      "category": "findings"
    },
    {
      "type": "name_match",
      "text": "pulmonary edema",
      "confidence": 1.0,
      "uuid": "ee39114e-c922-40fd-9588-a532de404962",
      "name": "pulmonary edema",
      "url": "https://haz-map.com/Findings/186",
      "category": "findings"
    },
    {
      "type": "name_match",
      "text": "burn",
      "confidence": 1.0,
      "uuid": "63665de5-6376-4918-8dbf-4c10c4d63837",
      "name": "burn",
      "url": "https://haz-map.com/Findings/204",
      "category": "findings"
    },
    {
      "type": "name_match",
      "text": "lead",
      "confidence": 1.0,
      "uuid": "24246eba-13d7-456a-a142-ceae0f1df43f",
      "name": "Lead",
      "url": "https://haz-map.com/Agents/10",
      "category": "agents"
    },
    {
      "type": "name_match",
      "text": "arsine",
      "confidence": 1.0,
      "uuid": "9cbc23fa-8b7b-4fc4-b893-37c76e241fda",
      "name": "Arsine",
      "url": "https://haz-map.com/Agents/80",
      "category": "agents"
    },
    {
      "type": "name_match",
      "text": "mica",
      "confidence": 1.0,
      "uuid": "433f26f1-c399-4596-b179-ce3843cfd465",
      "name": "Mica",
      "url": "https://haz-map.com/Agents/621",
      "category": "agents"
    },
    {
      "type": "name_match",
      "text": "ethane",
      "confidence": 1.0,
      "uuid": "5162cc8c-dfb9-4060-81ac-38a8cec7f9dd",
      "name": "Ethane",
      "url": "https://haz-map.com/Agents/1075",
      "category": "agents"
    },
    {
      "type": "name_match",
      "text": "arsenic",
      "confidence": 1.0,
      "uuid": "2bf78711-4881-4b55-9b7c-df80529b3991",
      "name": "Arsenic",
      "url": "https://haz-map.com/Agents/1147",
      "category": "agents"
    },
    {
      "type": "name_match",
      "text": "lewisite",
      "confidence": 1.0,
      "uuid": "a8d07e92-7373-4de4-ab0d-14fcf4c3df58",
      "name": "Lewisite",
      "url": "https://haz-map.com/Agents/1451",
      "category": "agents"
    },
    {
      "type": "fuzzy_match",
      "text": "hemolytic anemia",
      "matched_name": "Hemolytic anemia, acute",
      "confidence": 0.7763975155279503,
      "uuid": "5036f7f9-e7c4-4f96-9fdb-89dd68e6462e",
      "category": "diseases",
      "url": "https://haz-map.com/Diseases/226"
    }
  ],
  "all_links": [
    {
      "text": "ATSDR - Medical Management: Blister Agents: Lewisite (L) and Mustard-Lewisite Mixture (HL)",
      "url": "http://www.atsdr.cdc.gov/mmg/mmg.asp?id=922&tid=190"
    },
    {
      "text": "Search PubMed",
      "url": "https://www.ncbi.nlm.nih.gov/pubmed?term=Lewisite%20AND%20human%5Bmh%5D%20AND%20%28Occupational%20Diseases%20%5Bmh%5D%20OR%20Occupational%20Exposure%20%5Bmh%5D%29%20%20AND%20%28tox%5Bsb%5D%29&cmd=search"
    },
    {
      "text": "Pneumonitis, toxic",
      "url": "https://haz-map.com/Diseases/306"
    }
  ]
}