{
  "metadata": {
    "scraped_from": "https://haz-map.com/Agents/1383",
    "entity_name": "Boron trifluoride etherate",
    "category": "agents",
    "uuid": "a8ea496a-1db1-4c46-8957-318c107cb1f4",
    "scraped_at": "2025-07-23T18:57:50.965389"
  },
  "parsed_at": "2025-07-24T01:03:56.973546",
  "title": "Boron trifluoride etherate",
  "sections": {
    "general": {
      "agent_name": {
        "original_name": "Agent Name",
        "value": "Boron trifluoride etherate",
        "links": [],
        "cross_references": [
          {
            "type": "name_match",
            "text": "boron trifluoride",
            "confidence": 1.0,
            "uuid": "c55f73da-b5a4-492a-81d6-66cc6d2edaea",
            "name": "Boron trifluoride",
            "url": "https://haz-map.com/Agents/313",
            "category": "agents"
          },
          {
            "type": "name_match",
            "text": "boron trifluoride etherate",
            "confidence": 1.0,
            "uuid": "a8ea496a-1db1-4c46-8957-318c107cb1f4",
            "name": "Boron trifluoride etherate",
            "url": "https://haz-map.com/Agents/1383",
            "category": "agents"
          },
          {
            "type": "name_match",
            "text": "boron",
            "confidence": 1.0,
            "uuid": "539de4b5-2187-4144-ac60-98c577b00bca",
            "name": "Boron",
            "url": "https://haz-map.com/Agents/2001",
            "category": "agents"
          }
        ]
      },
      "alternative_name": {
        "original_name": "Alternative Name",
        "value": "Boron trifluoride diethyl ether",
        "links": [],
        "cross_references": [
          {
            "type": "name_match",
            "text": "boron trifluoride",
            "confidence": 1.0,
            "uuid": "c55f73da-b5a4-492a-81d6-66cc6d2edaea",
            "name": "Boron trifluoride",
            "url": "https://haz-map.com/Agents/313",
            "category": "agents"
          },
          {
            "type": "name_match",
            "text": "ethyl ether",
            "confidence": 1.0,
            "uuid": "c95edddc-9ad3-44f8-bafa-78e0bd19db3a",
            "name": "Ethyl ether",
            "url": "https://haz-map.com/Agents/455",
            "category": "agents"
          },
          {
            "type": "name_match",
            "text": "boron",
            "confidence": 1.0,
            "uuid": "539de4b5-2187-4144-ac60-98c577b00bca",
            "name": "Boron",
            "url": "https://haz-map.com/Agents/2001",
            "category": "agents"
          }
        ]
      },
      "cas_number": {
        "original_name": "CAS Number",
        "value": "109-63-7",
        "links": [],
        "cross_references": []
      },
      "formula": {
        "original_name": "Formula",
        "value": "C4-H10-B-F3-O",
        "links": [],
        "cross_references": []
      },
      "major_category": {
        "original_name": "Major Category",
        "value": "Metals",
        "links": [],
        "cross_references": []
      },
      "synonyms": {
        "original_name": "Synonyms",
        "value": "Borone trifluoride diethyl etherate; Bf3-ether complex; Borane, trifluoro-, cmpd with 1,1'-oxybis(ethane) (1:1); Boron fluoride - diethyl ether compound; Boron fluoride - ethyl ether complex; Boron fluoride - ethyl etherate; Boron fluoride diethyl ether complex; Boron fluoride diethyl etherate; Boron fluoride etherate; Boron fluoride ethyl ether; Boron fluoride monoetherate; Boron trifluoride - diethyl ether complex; Boron trifluoride - diethyl ether complex (1:1); Boron trifluoride - diethyl etherate; Boron trifluoride - ether complex; Boron trifluoride - ethyl ether; Boron trifluoride - ethyl ether (1:1); Boron trifluoride - ethyl ether complex; Boron trifluoride - ethyl etherate; Boron trifluoride etherate; Boron trifluoride ethyl etherate (1:1); Diethyl ether trifluoroborane complex; Ether, diethyl, borofluoride; Ethyl ether - boron trifluoride complex; Ethyl ether borofluoride; Ethyl ether, cmpd with boron fluoride (BF3) (1:1); Trifluorobon etherate; Trifluoroborane diethyl etherate; Trifluoroborane-1,1'-oxybis(ethane) (1:1); Trifluoroboron-diethyl ether complex; [ChemIDplus] UN2604",
        "links": [],
        "cross_references": [
          {
            "type": "name_match",
            "text": "boron trifluoride",
            "confidence": 1.0,
            "uuid": "c55f73da-b5a4-492a-81d6-66cc6d2edaea",
            "name": "Boron trifluoride",
            "url": "https://haz-map.com/Agents/313",
            "category": "agents"
          },
          {
            "type": "name_match",
            "text": "ethyl ether",
            "confidence": 1.0,
            "uuid": "c95edddc-9ad3-44f8-bafa-78e0bd19db3a",
            "name": "Ethyl ether",
            "url": "https://haz-map.com/Agents/455",
            "category": "agents"
          },
          {
            "type": "name_match",
            "text": "ethane",
            "confidence": 1.0,
            "uuid": "5162cc8c-dfb9-4060-81ac-38a8cec7f9dd",
            "name": "Ethane",
            "url": "https://haz-map.com/Agents/1075",
            "category": "agents"
          },
          {
            "type": "name_match",
            "text": "boron trifluoride etherate",
            "confidence": 1.0,
            "uuid": "a8ea496a-1db1-4c46-8957-318c107cb1f4",
            "name": "Boron trifluoride etherate",
            "url": "https://haz-map.com/Agents/1383",
            "category": "agents"
          },
          {
            "type": "name_match",
            "text": "boron",
            "confidence": 1.0,
            "uuid": "539de4b5-2187-4144-ac60-98c577b00bca",
            "name": "Boron",
            "url": "https://haz-map.com/Agents/2001",
            "category": "agents"
          },
          {
            "type": "name_match",
            "text": "borane",
            "confidence": 1.0,
            "uuid": "a5e38655-49dd-4cdf-bbc0-f37c42350b45",
            "name": "Borane",
            "url": "https://haz-map.com/Agents/8317",
            "category": "agents"
          }
        ]
      },
      "category": {
        "original_name": "Category",
        "value": "Metalloid Compounds (Boron)",
        "links": [],
        "cross_references": [
          {
            "type": "name_match",
            "text": "boron",
            "confidence": 1.0,
            "uuid": "539de4b5-2187-4144-ac60-98c577b00bca",
            "name": "Boron",
            "url": "https://haz-map.com/Agents/2001",
            "category": "agents"
          }
        ]
      },
      "description": {
        "original_name": "Description",
        "value": "Fuming, colorless liquid; [HSDB] Stable but highly flammable, pale yellow liquid; [ACGIH]",
        "links": [],
        "cross_references": []
      },
      "sourcesuses": {
        "original_name": "Sources/Uses",
        "value": "Used as a catalyst in chemical reactions (acetylation, alkylation, polymerization, dehydration, and condensation); [Merck Index #1349] Boron trifluoride ethers are effective reagents used as a source of boron trifluoride in the production of semiconductors and organic compounds; [ACGIH]",
        "links": [],
        "cross_references": [
          {
            "type": "name_match",
            "text": "boron trifluoride",
            "confidence": 1.0,
            "uuid": "c55f73da-b5a4-492a-81d6-66cc6d2edaea",
            "name": "Boron trifluoride",
            "url": "https://haz-map.com/Agents/313",
            "category": "agents"
          },
          {
            "type": "name_match",
            "text": "mica",
            "confidence": 1.0,
            "uuid": "433f26f1-c399-4596-b179-ce3843cfd465",
            "name": "Mica",
            "url": "https://haz-map.com/Agents/621",
            "category": "agents"
          },
          {
            "type": "name_match",
            "text": "boron",
            "confidence": 1.0,
            "uuid": "539de4b5-2187-4144-ac60-98c577b00bca",
            "name": "Boron",
            "url": "https://haz-map.com/Agents/2001",
            "category": "agents"
          },
          {
            "type": "fuzzy_match",
            "text": "organic compounds",
            "matched_name": "Tin, organic compounds",
            "confidence": 0.8196969696969697,
            "uuid": "e027d413-8869-4308-9eb2-27d768b011ea",
            "category": "agents",
            "url": "https://haz-map.com/Agents/656"
          }
        ]
      },
      "comments": {
        "original_name": "Comments",
        "value": "TLV Basis = respiratory tract irritation and pneumonitis; \"Boron trifluoride is the key toxic exposure for workers handling or producing these materials.\" Reacts exothermically with water to release highly flammable ethers and corrosive boron trifluoride hydrates; [ACGIH] Corrosive to skin; [Quick CPC] Decomposes to form hydrogen fluoride in presence of moisture in air; [CAMEO]",
        "links": [],
        "cross_references": [
          {
            "type": "name_match",
            "text": "hydrogen fluoride",
            "confidence": 1.0,
            "uuid": "11518e08-6e66-4392-ba19-617530b5be32",
            "name": "Hydrogen fluoride",
            "url": "https://haz-map.com/Agents/61",
            "category": "agents"
          },
          {
            "type": "name_match",
            "text": "boron trifluoride",
            "confidence": 1.0,
            "uuid": "c55f73da-b5a4-492a-81d6-66cc6d2edaea",
            "name": "Boron trifluoride",
            "url": "https://haz-map.com/Agents/313",
            "category": "agents"
          },
          {
            "type": "name_match",
            "text": "mica",
            "confidence": 1.0,
            "uuid": "433f26f1-c399-4596-b179-ce3843cfd465",
            "name": "Mica",
            "url": "https://haz-map.com/Agents/621",
            "category": "agents"
          },
          {
            "type": "name_match",
            "text": "hydrogen",
            "confidence": 1.0,
            "uuid": "e2d9645f-5559-4d88-b820-fc4710c154f2",
            "name": "Hydrogen",
            "url": "https://haz-map.com/Agents/1070",
            "category": "agents"
          },
          {
            "type": "name_match",
            "text": "boron",
            "confidence": 1.0,
            "uuid": "539de4b5-2187-4144-ac60-98c577b00bca",
            "name": "Boron",
            "url": "https://haz-map.com/Agents/2001",
            "category": "agents"
          },
          {
            "type": "name_match",
            "text": "water",
            "confidence": 1.0,
            "uuid": "6f2a7557-dfd2-49bc-9b4b-a93cd8e225d4",
            "name": "Water",
            "url": "https://haz-map.com/Agents/18668",
            "category": "agents"
          }
        ]
      },
      "biomedical_references": {
        "original_name": "Biomedical References",
        "value": "Search PubMed",
        "links": [
          {
            "text": "Search PubMed",
            "url": "https://www.ncbi.nlm.nih.gov/pubmed?term=Boron+trifluoride+etherate%20AND%20human%5Bmh%5D%20AND%20%28Occupational%20Diseases%20%5Bmh%5D%20OR%20Occupational%20Exposure%20%5Bmh%5D%29%20%20AND%20%28tox%5Bsb%5D%29&cmd=search"
          }
        ],
        "cross_references": []
      }
    },
    "exposure_assessment": {
      "tlv_acgih": {
        "original_name": "TLV (ACGIH)",
        "value": "0.1 ppm, as BF3",
        "links": [],
        "cross_references": []
      },
      "ceiling_acgih": {
        "original_name": "Ceiling (ACGIH)",
        "value": "0.7 ppm",
        "links": [],
        "cross_references": []
      },
      "vapor_pressure": {
        "original_name": "Vapor Pressure",
        "value": "4.2 mm Hg",
        "links": [],
        "cross_references": []
      },
      "explanatory_notes": {
        "original_name": "Explanatory Notes",
        "value": "Flash point = 47.8 deg C; Explosive limits by volume in air: lower (5.1%); upper (36.0%); [ACGIH]",
        "links": [],
        "cross_references": [
          {
            "type": "name_match",
            "text": "ash",
            "confidence": 1.0,
            "uuid": "68b360f1-5ad0-4337-bea0-d7adca2961b5",
            "name": "Ash",
            "url": "https://haz-map.com/Agents/965",
            "category": "agents"
          }
        ]
      },
      "nfpa": {
        "original_name": "NFPA",
        "value": "high ambient temp required",
        "links": [],
        "cross_references": []
      }
    },
    "adverse_effects": {
      "toxic_pneumonitis": {
        "original_name": "Toxic Pneumonitis",
        "value": "Yes",
        "links": [],
        "cross_references": []
      },
      "dermatotoxin": {
        "original_name": "Dermatotoxin",
        "value": "Skin burns",
        "links": [],
        "cross_references": [
          {
            "type": "name_match",
            "text": "burn",
            "confidence": 1.0,
            "uuid": "63665de5-6376-4918-8dbf-4c10c4d63837",
            "name": "burn",
            "url": "https://haz-map.com/Findings/204",
            "category": "findings"
          }
        ]
      }
    },
    "diseases_processes_and_activities_linked_to_this_agent": {
      "other_information": {
        "original_name": "Other Information",
        "value": "No other related information on this agent was found.",
        "links": [],
        "cross_references": []
      }
    }
  },
  "cross_references": [
    {
      "type": "name_match",
      "text": "burn",
      "confidence": 1.0,
      "uuid": "63665de5-6376-4918-8dbf-4c10c4d63837",
      "name": "burn",
      "url": "https://haz-map.com/Findings/204",
      "category": "findings"
    },
    {
      "type": "name_match",
      "text": "hydrogen fluoride",
      "confidence": 1.0,
      "uuid": "11518e08-6e66-4392-ba19-617530b5be32",
      "name": "Hydrogen fluoride",
      "url": "https://haz-map.com/Agents/61",
      "category": "agents"
    },
    {
      "type": "name_match",
      "text": "boron trifluoride",
      "confidence": 1.0,
      "uuid": "c55f73da-b5a4-492a-81d6-66cc6d2edaea",
      "name": "Boron trifluoride",
      "url": "https://haz-map.com/Agents/313",
      "category": "agents"
    },
    {
      "type": "name_match",
      "text": "ethyl ether",
      "confidence": 1.0,
      "uuid": "c95edddc-9ad3-44f8-bafa-78e0bd19db3a",
      "name": "Ethyl ether",
      "url": "https://haz-map.com/Agents/455",
      "category": "agents"
    },
    {
      "type": "name_match",
      "text": "mica",
      "confidence": 1.0,
      "uuid": "433f26f1-c399-4596-b179-ce3843cfd465",
      "name": "Mica",
      "url": "https://haz-map.com/Agents/621",
      "category": "agents"
    },
    {
      "type": "name_match",
      "text": "ash",
      "confidence": 1.0,
      "uuid": "68b360f1-5ad0-4337-bea0-d7adca2961b5",
      "name": "Ash",
      "url": "https://haz-map.com/Agents/965",
      "category": "agents"
    },
    {
      "type": "name_match",
      "text": "hydrogen",
      "confidence": 1.0,
      "uuid": "e2d9645f-5559-4d88-b820-fc4710c154f2",
      "name": "Hydrogen",
      "url": "https://haz-map.com/Agents/1070",
      "category": "agents"
    },
    {
      "type": "name_match",
      "text": "ethane",
      "confidence": 1.0,
      "uuid": "5162cc8c-dfb9-4060-81ac-38a8cec7f9dd",
      "name": "Ethane",
      "url": "https://haz-map.com/Agents/1075",
      "category": "agents"
    },
    {
      "type": "name_match",
      "text": "boron trifluoride etherate",
      "confidence": 1.0,
      "uuid": "a8ea496a-1db1-4c46-8957-318c107cb1f4",
      "name": "Boron trifluoride etherate",
      "url": "https://haz-map.com/Agents/1383",
      "category": "agents"
    },
    {
      "type": "name_match",
      "text": "boron",
      "confidence": 1.0,
      "uuid": "539de4b5-2187-4144-ac60-98c577b00bca",
      "name": "Boron",
      "url": "https://haz-map.com/Agents/2001",
      "category": "agents"
    },
    {
      "type": "name_match",
      "text": "borane",
      "confidence": 1.0,
      "uuid": "a5e38655-49dd-4cdf-bbc0-f37c42350b45",
      "name": "Borane",
      "url": "https://haz-map.com/Agents/8317",
      "category": "agents"
    },
    {
      "type": "name_match",
      "text": "water",
      "confidence": 1.0,
      "uuid": "6f2a7557-dfd2-49bc-9b4b-a93cd8e225d4",
      "name": "Water",
      "url": "https://haz-map.com/Agents/18668",
      "category": "agents"
    },
    {
      "type": "fuzzy_match",
      "text": "organic compounds",
      "matched_name": "Tin, organic compounds",
      "confidence": 0.8196969696969697,
      "uuid": "e027d413-8869-4308-9eb2-27d768b011ea",
      "category": "agents",
      "url": "https://haz-map.com/Agents/656"
    }
  ],
  "all_links": [
    {
      "text": "Search PubMed",
      "url": "https://www.ncbi.nlm.nih.gov/pubmed?term=Boron+trifluoride+etherate%20AND%20human%5Bmh%5D%20AND%20%28Occupational%20Diseases%20%5Bmh%5D%20OR%20Occupational%20Exposure%20%5Bmh%5D%29%20%20AND%20%28tox%5Bsb%5D%29&cmd=search"
    }
  ]
}