{
  "metadata": {
    "scraped_from": "https://haz-map.com/Agents/5004",
    "entity_name": "t-Butylphenyl diphenyl phosphate",
    "category": "agents",
    "uuid": "a91d5668-dba9-4c7f-a9e7-1875849be1f9",
    "scraped_at": "2025-07-23T19:47:53.002541"
  },
  "parsed_at": "2025-07-24T00:57:08.612614",
  "title": "t-Butylphenyl diphenyl phosphate",
  "sections": {
    "general": {
      "agent_name": {
        "original_name": "Agent Name",
        "value": "t-Butylphenyl diphenyl phosphate",
        "links": [],
        "cross_references": [
          {
            "type": "name_match",
            "text": "t-butylphenyl diphenyl phosphate",
            "confidence": 1.0,
            "uuid": "a91d5668-dba9-4c7f-a9e7-1875849be1f9",
            "name": "t-Butylphenyl diphenyl phosphate",
            "url": "https://haz-map.com/Agents/5004",
            "category": "agents"
          }
        ]
      },
      "cas_number": {
        "original_name": "CAS Number",
        "value": "56803-37-3",
        "links": [],
        "cross_references": []
      },
      "formula": {
        "original_name": "Formula",
        "value": "C22-H23-O4-P",
        "links": [],
        "cross_references": []
      },
      "major_category": {
        "original_name": "Major Category",
        "value": "Other Classes",
        "links": [],
        "cross_references": []
      },
      "synonyms": {
        "original_name": "Synonyms",
        "value": "Phosphoric acid, (1,1-dimethylethyl)phenyl diphenyl ester; tert-Butylphenyl diphenyl phosphate; Phosphate, tert-butylphenyl diphenyl; [ChemIDplus]",
        "links": [],
        "cross_references": [
          {
            "type": "name_match",
            "text": "phosphoric acid",
            "confidence": 1.0,
            "uuid": "9049e74c-22b3-4fb1-8e7f-53f17c0ec74a",
            "name": "Phosphoric acid",
            "url": "https://haz-map.com/Agents/595",
            "category": "agents"
          },
          {
            "type": "name_match",
            "text": "t-butylphenyl diphenyl phosphate",
            "confidence": 1.0,
            "uuid": "a91d5668-dba9-4c7f-a9e7-1875849be1f9",
            "name": "t-Butylphenyl diphenyl phosphate",
            "url": "https://haz-map.com/Agents/5004",
            "category": "agents"
          }
        ]
      },
      "category": {
        "original_name": "Category",
        "value": "Organophosphates, Other",
        "links": [],
        "cross_references": [
          {
            "type": "name_match",
            "text": "organophosphates",
            "confidence": 1.0,
            "uuid": "8d2d239c-20f9-4f02-9916-5e7667b9990c",
            "name": "ORGANOPHOSPHATES",
            "url": "https://haz-map.com/Agents/702",
            "category": "agents"
          }
        ]
      },
      "description": {
        "original_name": "Description",
        "value": "Clear colorless liquid; [CAMEO]",
        "links": [],
        "cross_references": []
      },
      "sourcesuses": {
        "original_name": "Sources/Uses",
        "value": "Used as flame retardant plasticizer for polyvinyl chloride, cellulosics, and other vinyl polymers; [HSDB]",
        "links": [],
        "cross_references": [
          {
            "type": "name_match",
            "text": "vinyl chloride",
            "confidence": 1.0,
            "uuid": "7b74b11d-1ba5-4dde-8d86-ed88645b5ce1",
            "name": "Vinyl chloride",
            "url": "https://haz-map.com/Agents/15",
            "category": "agents"
          },
          {
            "type": "name_match",
            "text": "polyvinyl chloride",
            "confidence": 1.0,
            "uuid": "b11c91ba-ec9a-445f-a605-51f00a75c949",
            "name": "Polyvinyl chloride",
            "url": "https://haz-map.com/Agents/849",
            "category": "agents"
          }
        ]
      },
      "comments": {
        "original_name": "Comments",
        "value": "See \"Isopropylphenyl diphenyl phosphate,\" \"Triorthocresyl phosphate,\" and \"Triphenyl phosphate.\"",
        "links": [],
        "cross_references": [
          {
            "type": "name_match",
            "text": "triorthocresyl phosphate",
            "confidence": 1.0,
            "uuid": "23e4ea47-015f-4ee8-ab13-1631915e2a4e",
            "name": "Triorthocresyl phosphate",
            "url": "https://haz-map.com/Agents/669",
            "category": "agents"
          },
          {
            "type": "name_match",
            "text": "triphenyl phosphate",
            "confidence": 1.0,
            "uuid": "4b3b4687-f04c-479e-bf25-29d6001c3e01",
            "name": "Triphenyl phosphate",
            "url": "https://haz-map.com/Agents/671",
            "category": "agents"
          },
          {
            "type": "name_match",
            "text": "isopropylphenyl diphenyl phosphate",
            "confidence": 1.0,
            "uuid": "55c98a59-772f-433f-a962-776f0b0de611",
            "name": "Isopropylphenyl diphenyl phosphate",
            "url": "https://haz-map.com/Agents/5730",
            "category": "agents"
          }
        ]
      },
      "biomedical_references": {
        "original_name": "Biomedical References",
        "value": "Search PubMed",
        "links": [
          {
            "text": "Search PubMed",
            "url": "https://www.ncbi.nlm.nih.gov/pubmed?term=t-Butylphenyl+diphenyl+phosphate%20AND%20human%5Bmh%5D%20AND%20%28Occupational%20Diseases%20%5Bmh%5D%20OR%20Occupational%20Exposure%20%5Bmh%5D%29%20%20AND%20%28tox%5Bsb%5D%29&cmd=search"
          }
        ],
        "cross_references": []
      }
    },
    "exposure_assessment": {
      "vapor_pressure": {
        "original_name": "Vapor Pressure",
        "value": "1.4E-06 mm Hg",
        "links": [],
        "cross_references": []
      }
    },
    "diseases_processes_and_activities_linked_to_this_agent": {
      "other_information": {
        "original_name": "Other Information",
        "value": "No other related information on this agent was found.",
        "links": [],
        "cross_references": []
      }
    }
  },
  "cross_references": [
    {
      "type": "name_match",
      "text": "vinyl chloride",
      "confidence": 1.0,
      "uuid": "7b74b11d-1ba5-4dde-8d86-ed88645b5ce1",
      "name": "Vinyl chloride",
      "url": "https://haz-map.com/Agents/15",
      "category": "agents"
    },
    {
      "type": "name_match",
      "text": "phosphoric acid",
      "confidence": 1.0,
      "uuid": "9049e74c-22b3-4fb1-8e7f-53f17c0ec74a",
      "name": "Phosphoric acid",
      "url": "https://haz-map.com/Agents/595",
      "category": "agents"
    },
    {
      "type": "name_match",
      "text": "triorthocresyl phosphate",
      "confidence": 1.0,
      "uuid": "23e4ea47-015f-4ee8-ab13-1631915e2a4e",
      "name": "Triorthocresyl phosphate",
      "url": "https://haz-map.com/Agents/669",
      "category": "agents"
    },
    {
      "type": "name_match",
      "text": "triphenyl phosphate",
      "confidence": 1.0,
      "uuid": "4b3b4687-f04c-479e-bf25-29d6001c3e01",
      "name": "Triphenyl phosphate",
      "url": "https://haz-map.com/Agents/671",
      "category": "agents"
    },
    {
      "type": "name_match",
      "text": "organophosphates",
      "confidence": 1.0,
      "uuid": "8d2d239c-20f9-4f02-9916-5e7667b9990c",
      "name": "ORGANOPHOSPHATES",
      "url": "https://haz-map.com/Agents/702",
      "category": "agents"
    },
    {
      "type": "name_match",
      "text": "polyvinyl chloride",
      "confidence": 1.0,
      "uuid": "b11c91ba-ec9a-445f-a605-51f00a75c949",
      "name": "Polyvinyl chloride",
      "url": "https://haz-map.com/Agents/849",
      "category": "agents"
    },
    {
      "type": "name_match",
      "text": "t-butylphenyl diphenyl phosphate",
      "confidence": 1.0,
      "uuid": "a91d5668-dba9-4c7f-a9e7-1875849be1f9",
      "name": "t-Butylphenyl diphenyl phosphate",
      "url": "https://haz-map.com/Agents/5004",
      "category": "agents"
    },
    {
      "type": "name_match",
      "text": "isopropylphenyl diphenyl phosphate",
      "confidence": 1.0,
      "uuid": "55c98a59-772f-433f-a962-776f0b0de611",
      "name": "Isopropylphenyl diphenyl phosphate",
      "url": "https://haz-map.com/Agents/5730",
      "category": "agents"
    }
  ],
  "all_links": [
    {
      "text": "Search PubMed",
      "url": "https://www.ncbi.nlm.nih.gov/pubmed?term=t-Butylphenyl+diphenyl+phosphate%20AND%20human%5Bmh%5D%20AND%20%28Occupational%20Diseases%20%5Bmh%5D%20OR%20Occupational%20Exposure%20%5Bmh%5D%29%20%20AND%20%28tox%5Bsb%5D%29&cmd=search"
    }
  ]
}