{
  "metadata": {
    "scraped_from": "https://haz-map.com/Agents/15638",
    "entity_name": "Metrizamide",
    "category": "agents",
    "uuid": "a99d0442-44fb-4048-9307-64c841222e30",
    "scraped_at": "2025-07-23T21:31:19.013646"
  },
  "parsed_at": "2025-07-24T00:53:05.350833",
  "title": "Metrizamide",
  "sections": {
    "general": {
      "agent_name": {
        "original_name": "Agent Name",
        "value": "Metrizamide",
        "links": [],
        "cross_references": [
          {
            "type": "name_match",
            "text": "metrizamide",
            "confidence": 1.0,
            "uuid": "a99d0442-44fb-4048-9307-64c841222e30",
            "name": "Metrizamide",
            "url": "https://haz-map.com/Agents/15638",
            "category": "agents"
          }
        ]
      },
      "cas_number": {
        "original_name": "CAS Number",
        "value": "31112-62-6",
        "links": [],
        "cross_references": []
      },
      "formula": {
        "original_name": "Formula",
        "value": "C18-H22-I3-N3-O8",
        "links": [],
        "cross_references": []
      },
      "major_category": {
        "original_name": "Major Category",
        "value": "Other Uses",
        "links": [],
        "cross_references": []
      },
      "synonyms": {
        "original_name": "Synonyms",
        "value": "2-((3-(Acetylamino)-5-(acetylmethylamino)-2,4,6-triiodobenzoyl)amino)-2-deoxy-D-glucose; 2-(3-Acetamido-2,4,6-triiodo-5-(N-methylacetamido)benzamido)-2-deoxy-D-glucopyranose; 2-(3-Acetamido-2,4,6-triiodo-5-(N-methylacetamido)benzamido)-2-deoxy-D-glucose; 2-(3-Acetamido-5-N-methyl-acetamido-2,4,6-triiodobenzamido)-2-deoxy-D-glucose; 3-Acetylamino-5-N-methyl-acetylamino-2,4,6-triiodobenzoyl glucosamine; Amipaque; D-Glucose, 2-((3-(acetylamino)-5-(acetylmethylamino)-2,4,6-triiodobenzoyl)amino)-2-deoxy-; Metrizamida [INN-Spanish]; Metrizamidum [INN-Latin]; Telebrix 300; WIN 39103; D-Glucose, 2-(3-acetamido-2,4,6-triiodo-5-(N-methylacetamido)benzamido)-2-deoxy-; [ChemIDplus]",
        "links": [],
        "cross_references": [
          {
            "type": "name_match",
            "text": "glucosamine",
            "confidence": 1.0,
            "uuid": "c12d5ccb-1cb5-437e-8cd2-492d6d2ef27f",
            "name": "Glucosamine",
            "url": "https://haz-map.com/Agents/14412",
            "category": "agents"
          },
          {
            "type": "name_match",
            "text": "glucose",
            "confidence": 1.0,
            "uuid": "329d86ed-6744-4566-825c-5247ed1a8f75",
            "name": "Glucose",
            "url": "https://haz-map.com/Agents/14413",
            "category": "agents"
          }
        ]
      },
      "category": {
        "original_name": "Category",
        "value": "Biochemical Research",
        "links": [],
        "cross_references": [
          {
            "type": "name_match",
            "text": "mica",
            "confidence": 1.0,
            "uuid": "433f26f1-c399-4596-b179-ce3843cfd465",
            "name": "Mica",
            "url": "https://haz-map.com/Agents/621",
            "category": "agents"
          }
        ]
      },
      "description": {
        "original_name": "Description",
        "value": "White solid; [Merck Index] White powder; [Sigma-Aldrich MSDS]",
        "links": [],
        "cross_references": []
      },
      "sourcesuses": {
        "original_name": "Sources/Uses",
        "value": "Used as a radiopaque x-ray contrast medium; [Merck Index] \"A solute for density gradient centrifugation offering higher maximum solution density without the problems of increased viscosity. It is also used as a resorbable, non-ionic contrast medium.\" [ChemIDplus]",
        "links": [],
        "cross_references": []
      },
      "comments": {
        "original_name": "Comments",
        "value": "May cause irritation; Targets the vascular system; [Sigma-Aldrich MSDS]",
        "links": [],
        "cross_references": []
      },
      "biomedical_references": {
        "original_name": "Biomedical References",
        "value": "Search PubMed",
        "links": [
          {
            "text": "Search PubMed",
            "url": "https://www.ncbi.nlm.nih.gov/pubmed?term=Metrizamide%20AND%20human%5Bmh%5D%20AND%20%28Occupational%20Diseases%20%5Bmh%5D%20OR%20Occupational%20Exposure%20%5Bmh%5D%29%20%20AND%20%28tox%5Bsb%5D%29&cmd=search"
          }
        ],
        "cross_references": []
      }
    },
    "exposure_assessment": {
      "vapor_pressure": {
        "original_name": "Vapor Pressure",
        "value": "4.2E-27 mm Hg",
        "links": [],
        "cross_references": []
      }
    },
    "diseases_processes_and_activities_linked_to_this_agent": {
      "other_information": {
        "original_name": "Other Information",
        "value": "No other related information on this agent was found.",
        "links": [],
        "cross_references": []
      }
    }
  },
  "cross_references": [
    {
      "type": "name_match",
      "text": "mica",
      "confidence": 1.0,
      "uuid": "433f26f1-c399-4596-b179-ce3843cfd465",
      "name": "Mica",
      "url": "https://haz-map.com/Agents/621",
      "category": "agents"
    },
    {
      "type": "name_match",
      "text": "glucosamine",
      "confidence": 1.0,
      "uuid": "c12d5ccb-1cb5-437e-8cd2-492d6d2ef27f",
      "name": "Glucosamine",
      "url": "https://haz-map.com/Agents/14412",
      "category": "agents"
    },
    {
      "type": "name_match",
      "text": "glucose",
      "confidence": 1.0,
      "uuid": "329d86ed-6744-4566-825c-5247ed1a8f75",
      "name": "Glucose",
      "url": "https://haz-map.com/Agents/14413",
      "category": "agents"
    },
    {
      "type": "name_match",
      "text": "metrizamide",
      "confidence": 1.0,
      "uuid": "a99d0442-44fb-4048-9307-64c841222e30",
      "name": "Metrizamide",
      "url": "https://haz-map.com/Agents/15638",
      "category": "agents"
    }
  ],
  "all_links": [
    {
      "text": "Search PubMed",
      "url": "https://www.ncbi.nlm.nih.gov/pubmed?term=Metrizamide%20AND%20human%5Bmh%5D%20AND%20%28Occupational%20Diseases%20%5Bmh%5D%20OR%20Occupational%20Exposure%20%5Bmh%5D%29%20%20AND%20%28tox%5Bsb%5D%29&cmd=search"
    }
  ]
}