{
  "metadata": {
    "scraped_from": "https://haz-map.com/Agents/19488",
    "entity_name": "2,5-Dimethoxyaniline",
    "category": "agents",
    "uuid": "a9c6e3be-f5ff-456d-bc34-0d400205c7ff",
    "scraped_at": "2025-07-23T22:07:09.390729"
  },
  "parsed_at": "2025-07-24T00:57:25.119262",
  "title": "2,5-Dimethoxyaniline",
  "sections": {
    "general": {
      "agent_name": {
        "original_name": "Agent Name",
        "value": "2,5-Dimethoxyaniline",
        "links": [],
        "cross_references": [
          {
            "type": "name_match",
            "text": "aniline",
            "confidence": 1.0,
            "uuid": "e4932692-8d9c-4a98-8c5c-81e55b12aedf",
            "name": "Aniline",
            "url": "https://haz-map.com/Agents/296",
            "category": "agents"
          },
          {
            "type": "name_match",
            "text": "2,5-dimethoxyaniline",
            "confidence": 1.0,
            "uuid": "a9c6e3be-f5ff-456d-bc34-0d400205c7ff",
            "name": "2,5-Dimethoxyaniline",
            "url": "https://haz-map.com/Agents/19488",
            "category": "agents"
          }
        ]
      },
      "cas_number": {
        "original_name": "CAS Number",
        "value": "102-56-7",
        "links": [],
        "cross_references": []
      },
      "formula": {
        "original_name": "Formula",
        "value": "C8-H11-N-O2",
        "links": [],
        "cross_references": []
      },
      "major_category": {
        "original_name": "Major Category",
        "value": "Nitrogen Compounds",
        "links": [],
        "cross_references": [
          {
            "type": "name_match",
            "text": "nitrogen",
            "confidence": 1.0,
            "uuid": "db5e90a9-06d2-45b9-8b81-f345a89b0bc0",
            "name": "Nitrogen",
            "url": "https://haz-map.com/Agents/1072",
            "category": "agents"
          }
        ]
      },
      "synonyms": {
        "original_name": "Synonyms",
        "value": "1-Amino-2,5-dimethoxybenzene; 2,5-Dimethoxybenzenamine; Aminohydroquinone dimethyl ether; C.I. 35811; Aniline, 2,5-dimethoxy-; Benzenamine, 2,5-dimethoxy-; [ChemIDplus] UN2811",
        "links": [],
        "cross_references": [
          {
            "type": "name_match",
            "text": "benzene",
            "confidence": 1.0,
            "uuid": "b05124de-5f34-4c14-8f04-ccb20c3780d9",
            "name": "Benzene",
            "url": "https://haz-map.com/Agents/5",
            "category": "agents"
          },
          {
            "type": "name_match",
            "text": "aniline",
            "confidence": 1.0,
            "uuid": "e4932692-8d9c-4a98-8c5c-81e55b12aedf",
            "name": "Aniline",
            "url": "https://haz-map.com/Agents/296",
            "category": "agents"
          },
          {
            "type": "name_match",
            "text": "quinone",
            "confidence": 1.0,
            "uuid": "d01e66c3-ad06-4707-8d42-3c6655001c1a",
            "name": "Quinone",
            "url": "https://haz-map.com/Agents/303",
            "category": "agents"
          },
          {
            "type": "name_match",
            "text": "ethyl ether",
            "confidence": 1.0,
            "uuid": "c95edddc-9ad3-44f8-bafa-78e0bd19db3a",
            "name": "Ethyl ether",
            "url": "https://haz-map.com/Agents/455",
            "category": "agents"
          },
          {
            "type": "name_match",
            "text": "hydroquinone",
            "confidence": 1.0,
            "uuid": "814158df-432a-4bfa-b22a-481088e15397",
            "name": "Hydroquinone",
            "url": "https://haz-map.com/Agents/518",
            "category": "agents"
          },
          {
            "type": "name_match",
            "text": "dimethyl ether",
            "confidence": 1.0,
            "uuid": "a12a0b82-a115-4243-98a7-3e9a2c4700ed",
            "name": "Dimethyl ether",
            "url": "https://haz-map.com/Agents/1483",
            "category": "agents"
          },
          {
            "type": "name_match",
            "text": "hydroquinone dimethyl ether",
            "confidence": 1.0,
            "uuid": "bed740c5-e34d-48c0-829c-b332d70ad3f5",
            "name": "Hydroquinone dimethyl ether",
            "url": "https://haz-map.com/Agents/5576",
            "category": "agents"
          }
        ]
      },
      "category": {
        "original_name": "Category",
        "value": "Amines, Aromatic",
        "links": [],
        "cross_references": []
      },
      "description": {
        "original_name": "Description",
        "value": "Brown powder; [Alfa Aesar MSDS]",
        "links": [],
        "cross_references": []
      },
      "sourcesuses": {
        "original_name": "Sources/Uses",
        "value": "Used as an intermediate; [ExPub: ECHA REACH Registrations]",
        "links": [],
        "cross_references": []
      },
      "comments": {
        "original_name": "Comments",
        "value": "Causes somnolence, methemoglobinemia, liver and kidney changes, and general anesthesia in acute oral studies of mice; [RTECS] May cause irritation; May induce methemoglobinemia; Toxic by ingestion, inhalation, and skin absorption; Prolonged or repeated exposure may cause organ injury; [Alfa Aesar MSDS]",
        "links": [],
        "cross_references": [
          {
            "type": "name_match",
            "text": "methemoglobin",
            "confidence": 1.0,
            "uuid": "afb7ebf5-d2a3-4e60-8d2e-3a19456344ee",
            "name": "Methemoglobin",
            "url": "https://haz-map.com/Agents/15467",
            "category": "agents"
          },
          {
            "type": "fuzzy_match",
            "text": "methemoglobinemia",
            "matched_name": "Methemoglobinemia, acute",
            "confidence": 0.7208333333333333,
            "uuid": "473a44bd-cf11-4710-a769-e8e2b25ba317",
            "category": "diseases",
            "url": "https://haz-map.com/Diseases/210"
          }
        ]
      },
      "biomedical_references": {
        "original_name": "Biomedical References",
        "value": "Search PubMed",
        "links": [
          {
            "text": "Search PubMed",
            "url": "https://www.ncbi.nlm.nih.gov/pubmed?term=2%2c5-Dimethoxyaniline%20AND%20human%5Bmh%5D%20AND%20%28Occupational%20Diseases%20%5Bmh%5D%20OR%20Occupational%20Exposure%20%5Bmh%5D%29%20%20AND%20%28tox%5Bsb%5D%29&cmd=search"
          }
        ],
        "cross_references": []
      }
    },
    "exposure_assessment": {
      "vapor_pressure": {
        "original_name": "Vapor Pressure",
        "value": "0.00828 mm Hg",
        "links": [],
        "cross_references": []
      },
      "explanatory_notes": {
        "original_name": "Explanatory Notes",
        "value": "The Guide in the Emergency Response Guidebook is for \"Toxic solid, organic, n.o.s.\"",
        "links": [],
        "cross_references": []
      },
      "nfpa": {
        "original_name": "NFPA",
        "value": "must be preheated",
        "links": [],
        "cross_references": []
      }
    },
    "adverse_effects": {
      "methemoglobinemia": {
        "original_name": "Methemoglobinemia",
        "value": "MetHgb is secondary toxic effect",
        "links": [],
        "cross_references": []
      },
      "neurotoxin": {
        "original_name": "Neurotoxin",
        "value": "Other CNS neurotoxin",
        "links": [],
        "cross_references": []
      }
    },
    "diseases_processes_and_activities_linked_to_this_agent": {
      "other_information": {
        "original_name": "Other Information",
        "value": "No other related information on this agent was found.",
        "links": [],
        "cross_references": []
      }
    }
  },
  "cross_references": [
    {
      "type": "name_match",
      "text": "benzene",
      "confidence": 1.0,
      "uuid": "b05124de-5f34-4c14-8f04-ccb20c3780d9",
      "name": "Benzene",
      "url": "https://haz-map.com/Agents/5",
      "category": "agents"
    },
    {
      "type": "name_match",
      "text": "aniline",
      "confidence": 1.0,
      "uuid": "e4932692-8d9c-4a98-8c5c-81e55b12aedf",
      "name": "Aniline",
      "url": "https://haz-map.com/Agents/296",
      "category": "agents"
    },
    {
      "type": "name_match",
      "text": "quinone",
      "confidence": 1.0,
      "uuid": "d01e66c3-ad06-4707-8d42-3c6655001c1a",
      "name": "Quinone",
      "url": "https://haz-map.com/Agents/303",
      "category": "agents"
    },
    {
      "type": "name_match",
      "text": "ethyl ether",
      "confidence": 1.0,
      "uuid": "c95edddc-9ad3-44f8-bafa-78e0bd19db3a",
      "name": "Ethyl ether",
      "url": "https://haz-map.com/Agents/455",
      "category": "agents"
    },
    {
      "type": "name_match",
      "text": "hydroquinone",
      "confidence": 1.0,
      "uuid": "814158df-432a-4bfa-b22a-481088e15397",
      "name": "Hydroquinone",
      "url": "https://haz-map.com/Agents/518",
      "category": "agents"
    },
    {
      "type": "name_match",
      "text": "nitrogen",
      "confidence": 1.0,
      "uuid": "db5e90a9-06d2-45b9-8b81-f345a89b0bc0",
      "name": "Nitrogen",
      "url": "https://haz-map.com/Agents/1072",
      "category": "agents"
    },
    {
      "type": "name_match",
      "text": "dimethyl ether",
      "confidence": 1.0,
      "uuid": "a12a0b82-a115-4243-98a7-3e9a2c4700ed",
      "name": "Dimethyl ether",
      "url": "https://haz-map.com/Agents/1483",
      "category": "agents"
    },
    {
      "type": "name_match",
      "text": "hydroquinone dimethyl ether",
      "confidence": 1.0,
      "uuid": "bed740c5-e34d-48c0-829c-b332d70ad3f5",
      "name": "Hydroquinone dimethyl ether",
      "url": "https://haz-map.com/Agents/5576",
      "category": "agents"
    },
    {
      "type": "name_match",
      "text": "methemoglobin",
      "confidence": 1.0,
      "uuid": "afb7ebf5-d2a3-4e60-8d2e-3a19456344ee",
      "name": "Methemoglobin",
      "url": "https://haz-map.com/Agents/15467",
      "category": "agents"
    },
    {
      "type": "name_match",
      "text": "2,5-dimethoxyaniline",
      "confidence": 1.0,
      "uuid": "a9c6e3be-f5ff-456d-bc34-0d400205c7ff",
      "name": "2,5-Dimethoxyaniline",
      "url": "https://haz-map.com/Agents/19488",
      "category": "agents"
    },
    {
      "type": "fuzzy_match",
      "text": "methemoglobinemia",
      "matched_name": "Methemoglobinemia, acute",
      "confidence": 0.7208333333333333,
      "uuid": "473a44bd-cf11-4710-a769-e8e2b25ba317",
      "category": "diseases",
      "url": "https://haz-map.com/Diseases/210"
    }
  ],
  "all_links": [
    {
      "text": "Search PubMed",
      "url": "https://www.ncbi.nlm.nih.gov/pubmed?term=2%2c5-Dimethoxyaniline%20AND%20human%5Bmh%5D%20AND%20%28Occupational%20Diseases%20%5Bmh%5D%20OR%20Occupational%20Exposure%20%5Bmh%5D%29%20%20AND%20%28tox%5Bsb%5D%29&cmd=search"
    }
  ]
}