{
  "metadata": {
    "scraped_from": "https://haz-map.com/Agents/15057",
    "entity_name": "Lactose",
    "category": "agents",
    "uuid": "a9f8c81c-bfa0-43e4-a9eb-6e39fa70ab2c",
    "scraped_at": "2025-07-23T21:27:54.015316"
  },
  "parsed_at": "2025-07-24T00:54:28.828648",
  "title": "Lactose",
  "sections": {
    "general": {
      "agent_name": {
        "original_name": "Agent Name",
        "value": "Lactose",
        "links": [],
        "cross_references": [
          {
            "type": "name_match",
            "text": "lactose",
            "confidence": 1.0,
            "uuid": "a9f8c81c-bfa0-43e4-a9eb-6e39fa70ab2c",
            "name": "Lactose",
            "url": "https://haz-map.com/Agents/15057",
            "category": "agents"
          }
        ]
      },
      "cas_number": {
        "original_name": "CAS Number",
        "value": "63-42-3",
        "links": [],
        "cross_references": []
      },
      "formula": {
        "original_name": "Formula",
        "value": "C12-H22-O11",
        "links": [],
        "cross_references": []
      },
      "major_category": {
        "original_name": "Major Category",
        "value": "Biological Agents",
        "links": [],
        "cross_references": []
      },
      "synonyms": {
        "original_name": "Synonyms",
        "value": "(+)-Lactose; 4-(beta-D-Galactosido)-D-glucose; 4-O-beta-D-Galactopyranosyl-D-glucose; AHL; Aletobiose; D-Glucose, 4-O-beta-D-galactopyranosyl-; D-Lactose; Fast-flo; Fast-flo Lactose; Galactinum; Lactin; Lactin (carbohydrate); Lactobiose; Lactose Fast-flo; Lactose, anhydrous; Milk sugar; Pharmatose 21; Pharmatose 450M; Saccharum lactin; Tablettose; Zeparox EP; D-(+)-Lactose; [ChemIDplus]",
        "links": [],
        "cross_references": [
          {
            "type": "name_match",
            "text": "glucose",
            "confidence": 1.0,
            "uuid": "329d86ed-6744-4566-825c-5247ed1a8f75",
            "name": "Glucose",
            "url": "https://haz-map.com/Agents/14413",
            "category": "agents"
          },
          {
            "type": "name_match",
            "text": "lactose",
            "confidence": 1.0,
            "uuid": "a9f8c81c-bfa0-43e4-a9eb-6e39fa70ab2c",
            "name": "Lactose",
            "url": "https://haz-map.com/Agents/15057",
            "category": "agents"
          }
        ]
      },
      "category": {
        "original_name": "Category",
        "value": "Disaccharides",
        "links": [],
        "cross_references": []
      },
      "description": {
        "original_name": "Description",
        "value": "White solid; [CAMEO]",
        "links": [],
        "cross_references": []
      },
      "sourcesuses": {
        "original_name": "Sources/Uses",
        "value": "Found in the milk of mammals; Used as a nutrient, pharmaceutic aid, and chromatographic adsorbent; [Merck Index] Used in digestive aids, weight control products, bacteriology, confectionery, and to make margarine, butter, penicillin, yeast, edible protein, and riboflavin; [HSDB] Used as a flavoring agent, formulation aid, lubricant or release agent, nutritive sweetener, malting or fermenting aid, oxidizing or reducing agent, solvent, surface-active agent, and stabilizer or thickener for foods; [FDA] Permitted for use as an inert ingredient in non-food pesticide products; [EPA]",
        "links": [],
        "cross_references": [
          {
            "type": "name_match",
            "text": "penicillin",
            "confidence": 1.0,
            "uuid": "b224d4d5-7bcd-4a40-b1a6-93fb3292b0ef",
            "name": "Penicillin",
            "url": "https://haz-map.com/Agents/1299",
            "category": "agents"
          },
          {
            "type": "name_match",
            "text": "ht",
            "confidence": 1.0,
            "uuid": "764df367-8d53-4a11-81a2-31ccfe122a8d",
            "name": "HT",
            "url": "https://haz-map.com/Agents/2168",
            "category": "agents"
          },
          {
            "type": "name_match",
            "text": "riboflavin",
            "confidence": 1.0,
            "uuid": "e4b5083e-5285-44c6-8d22-b921bc664fb0",
            "name": "Riboflavin",
            "url": "https://haz-map.com/Agents/17111",
            "category": "agents"
          }
        ]
      },
      "comments": {
        "original_name": "Comments",
        "value": "Occurs in alpha and beta forms (alpha is predominant form of commerce); [Merck Index] May cause irritation; [Sigma-Aldrich MSDS]",
        "links": [],
        "cross_references": []
      },
      "biomedical_references": {
        "original_name": "Biomedical References",
        "value": "Search PubMed",
        "links": [
          {
            "text": "Search PubMed",
            "url": "https://www.ncbi.nlm.nih.gov/pubmed?term=Lactose%20AND%20human%5Bmh%5D%20AND%20%28Occupational%20Diseases%20%5Bmh%5D%20OR%20Occupational%20Exposure%20%5Bmh%5D%29%20%20AND%20%28tox%5Bsb%5D%29&cmd=search"
          }
        ],
        "cross_references": []
      }
    },
    "exposure_assessment": {
      "vapor_pressure": {
        "original_name": "Vapor Pressure",
        "value": "8.09E-17 mm Hg",
        "links": [],
        "cross_references": []
      }
    },
    "diseases_processes_and_activities_linked_to_this_agent": {
      "other_information": {
        "original_name": "Other Information",
        "value": "No other related information on this agent was found.",
        "links": [],
        "cross_references": []
      }
    }
  },
  "cross_references": [
    {
      "type": "name_match",
      "text": "penicillin",
      "confidence": 1.0,
      "uuid": "b224d4d5-7bcd-4a40-b1a6-93fb3292b0ef",
      "name": "Penicillin",
      "url": "https://haz-map.com/Agents/1299",
      "category": "agents"
    },
    {
      "type": "name_match",
      "text": "ht",
      "confidence": 1.0,
      "uuid": "764df367-8d53-4a11-81a2-31ccfe122a8d",
      "name": "HT",
      "url": "https://haz-map.com/Agents/2168",
      "category": "agents"
    },
    {
      "type": "name_match",
      "text": "glucose",
      "confidence": 1.0,
      "uuid": "329d86ed-6744-4566-825c-5247ed1a8f75",
      "name": "Glucose",
      "url": "https://haz-map.com/Agents/14413",
      "category": "agents"
    },
    {
      "type": "name_match",
      "text": "lactose",
      "confidence": 1.0,
      "uuid": "a9f8c81c-bfa0-43e4-a9eb-6e39fa70ab2c",
      "name": "Lactose",
      "url": "https://haz-map.com/Agents/15057",
      "category": "agents"
    },
    {
      "type": "name_match",
      "text": "riboflavin",
      "confidence": 1.0,
      "uuid": "e4b5083e-5285-44c6-8d22-b921bc664fb0",
      "name": "Riboflavin",
      "url": "https://haz-map.com/Agents/17111",
      "category": "agents"
    }
  ],
  "all_links": [
    {
      "text": "Search PubMed",
      "url": "https://www.ncbi.nlm.nih.gov/pubmed?term=Lactose%20AND%20human%5Bmh%5D%20AND%20%28Occupational%20Diseases%20%5Bmh%5D%20OR%20Occupational%20Exposure%20%5Bmh%5D%29%20%20AND%20%28tox%5Bsb%5D%29&cmd=search"
    }
  ]
}