{
  "metadata": {
    "scraped_from": "https://haz-map.com/Agents/11067",
    "entity_name": "4-Amino-3-hydroxybenzoic acid",
    "category": "agents",
    "uuid": "aa13691e-8dbf-420a-9033-c0e37a091fd1",
    "scraped_at": "2025-07-23T20:55:50.132831"
  },
  "parsed_at": "2025-07-24T01:09:57.004736",
  "title": "4-Amino-3-hydroxybenzoic acid",
  "sections": {
    "general": {
      "agent_name": {
        "original_name": "Agent Name",
        "value": "4-Amino-3-hydroxybenzoic acid",
        "links": [],
        "cross_references": [
          {
            "type": "name_match",
            "text": "benzoic acid",
            "confidence": 1.0,
            "uuid": "d2c5d3be-d826-4f55-bc32-7b16821aef40",
            "name": "Benzoic acid",
            "url": "https://haz-map.com/Agents/1883",
            "category": "agents"
          },
          {
            "type": "name_match",
            "text": "3-hydroxybenzoic acid",
            "confidence": 1.0,
            "uuid": "f23e5c3a-8761-4184-91ba-20a1abc5a377",
            "name": "3-Hydroxybenzoic acid",
            "url": "https://haz-map.com/Agents/10769",
            "category": "agents"
          },
          {
            "type": "name_match",
            "text": "4-amino-3-hydroxybenzoic acid",
            "confidence": 1.0,
            "uuid": "aa13691e-8dbf-420a-9033-c0e37a091fd1",
            "name": "4-Amino-3-hydroxybenzoic acid",
            "url": "https://haz-map.com/Agents/11067",
            "category": "agents"
          },
          {
            "type": "name_match",
            "text": "hydroxybenzoic acid",
            "confidence": 1.0,
            "uuid": "c0fe1112-f757-4a77-a4ed-4b5a9997c734",
            "name": "Hydroxybenzoic acid",
            "url": "https://haz-map.com/Agents/14820",
            "category": "agents"
          }
        ]
      },
      "cas_number": {
        "original_name": "CAS Number",
        "value": "2374-03-0",
        "links": [],
        "cross_references": []
      },
      "formula": {
        "original_name": "Formula",
        "value": "C7-H7-N-O3",
        "links": [],
        "cross_references": []
      },
      "major_category": {
        "original_name": "Major Category",
        "value": "Other Classes",
        "links": [],
        "cross_references": []
      },
      "category": {
        "original_name": "Category",
        "value": "Benzoic Acid Derivatives",
        "links": [],
        "cross_references": [
          {
            "type": "name_match",
            "text": "benzoic acid",
            "confidence": 1.0,
            "uuid": "d2c5d3be-d826-4f55-bc32-7b16821aef40",
            "name": "Benzoic acid",
            "url": "https://haz-map.com/Agents/1883",
            "category": "agents"
          }
        ]
      },
      "description": {
        "original_name": "Description",
        "value": "Tan powder; [Alfa Aesar MSDS]",
        "links": [],
        "cross_references": []
      },
      "comments": {
        "original_name": "Comments",
        "value": "A skin and strong eye irritant; [Alfa Aesar MSDS]",
        "links": [],
        "cross_references": []
      },
      "biomedical_references": {
        "original_name": "Biomedical References",
        "value": "Search PubMed",
        "links": [
          {
            "text": "Search PubMed",
            "url": "https://www.ncbi.nlm.nih.gov/pubmed?term=4-Amino-3-hydroxybenzoic+acid%20AND%20human%5Bmh%5D%20AND%20%28Occupational%20Diseases%20%5Bmh%5D%20OR%20Occupational%20Exposure%20%5Bmh%5D%29%20%20AND%20%28tox%5Bsb%5D%29&cmd=search"
          }
        ],
        "cross_references": []
      }
    },
    "exposure_assessment": {
      "vapor_pressure": {
        "original_name": "Vapor Pressure",
        "value": "4E-06 mm Hg",
        "links": [],
        "cross_references": []
      }
    },
    "diseases_processes_and_activities_linked_to_this_agent": {
      "other_information": {
        "original_name": "Other Information",
        "value": "No other related information on this agent was found.",
        "links": [],
        "cross_references": []
      }
    }
  },
  "cross_references": [
    {
      "type": "name_match",
      "text": "benzoic acid",
      "confidence": 1.0,
      "uuid": "d2c5d3be-d826-4f55-bc32-7b16821aef40",
      "name": "Benzoic acid",
      "url": "https://haz-map.com/Agents/1883",
      "category": "agents"
    },
    {
      "type": "name_match",
      "text": "3-hydroxybenzoic acid",
      "confidence": 1.0,
      "uuid": "f23e5c3a-8761-4184-91ba-20a1abc5a377",
      "name": "3-Hydroxybenzoic acid",
      "url": "https://haz-map.com/Agents/10769",
      "category": "agents"
    },
    {
      "type": "name_match",
      "text": "4-amino-3-hydroxybenzoic acid",
      "confidence": 1.0,
      "uuid": "aa13691e-8dbf-420a-9033-c0e37a091fd1",
      "name": "4-Amino-3-hydroxybenzoic acid",
      "url": "https://haz-map.com/Agents/11067",
      "category": "agents"
    },
    {
      "type": "name_match",
      "text": "hydroxybenzoic acid",
      "confidence": 1.0,
      "uuid": "c0fe1112-f757-4a77-a4ed-4b5a9997c734",
      "name": "Hydroxybenzoic acid",
      "url": "https://haz-map.com/Agents/14820",
      "category": "agents"
    }
  ],
  "all_links": [
    {
      "text": "Search PubMed",
      "url": "https://www.ncbi.nlm.nih.gov/pubmed?term=4-Amino-3-hydroxybenzoic+acid%20AND%20human%5Bmh%5D%20AND%20%28Occupational%20Diseases%20%5Bmh%5D%20OR%20Occupational%20Exposure%20%5Bmh%5D%29%20%20AND%20%28tox%5Bsb%5D%29&cmd=search"
    }
  ]
}