{
  "metadata": {
    "scraped_from": "https://haz-map.com/Agents/1267",
    "entity_name": "Benzyl alcohol",
    "category": "agents",
    "uuid": "aa5ddab1-d568-4556-bbb6-b1adaca0f801",
    "scraped_at": "2025-07-23T18:55:38.255907"
  },
  "parsed_at": "2025-07-24T01:02:53.702747",
  "title": "Benzyl alcohol",
  "sections": {
    "general": {
      "agent_name": {
        "original_name": "Agent Name",
        "value": "Benzyl alcohol",
        "links": [],
        "cross_references": [
          {
            "type": "name_match",
            "text": "benzyl alcohol",
            "confidence": 1.0,
            "uuid": "aa5ddab1-d568-4556-bbb6-b1adaca0f801",
            "name": "Benzyl alcohol",
            "url": "https://haz-map.com/Agents/1267",
            "category": "agents"
          }
        ]
      },
      "cas_number": {
        "original_name": "CAS Number",
        "value": "100-51-6",
        "links": [],
        "cross_references": []
      },
      "formula": {
        "original_name": "Formula",
        "value": "C7-H8-O",
        "links": [],
        "cross_references": []
      },
      "major_category": {
        "original_name": "Major Category",
        "value": "Other Classes",
        "links": [],
        "cross_references": []
      },
      "synonyms": {
        "original_name": "Synonyms",
        "value": "(Hydroxymethyl)benzene; Alcohol bencilico [INN-Spanish]; Alcoholum benzylicum [INN-Latin]; Alcool benzilico [DCIT]; Alcool benzylique; Alcool benzylique [INN-French]; Benzal alcohol; Benzenecarbinol; Benzenemethanol; Benzoyl alcohol; Benzyl alcohol; Benzyl alcohol (natural); Benzylicum; Euxyl K 100; Hydroxytoluene; Methanol, phenyl-; Phenolcarbinol; Phenylcarbinol; Phenylcarbinolum; Phenylmethanol; Phenylmethyl alcohol; alpha-Toluenol; [ChemIDplus]",
        "links": [],
        "cross_references": [
          {
            "type": "name_match",
            "text": "benzene",
            "confidence": 1.0,
            "uuid": "b05124de-5f34-4c14-8f04-ccb20c3780d9",
            "name": "Benzene",
            "url": "https://haz-map.com/Agents/5",
            "category": "agents"
          },
          {
            "type": "name_match",
            "text": "methyl alcohol",
            "confidence": 1.0,
            "uuid": "6b4db7bf-710a-48ac-9b97-40e0376a68f3",
            "name": "Methyl alcohol",
            "url": "https://haz-map.com/Agents/13",
            "category": "agents"
          },
          {
            "type": "name_match",
            "text": "toluene",
            "confidence": 1.0,
            "uuid": "0a34d5de-e924-4c47-aff5-7ae8e48c6772",
            "name": "Toluene",
            "url": "https://haz-map.com/Agents/83",
            "category": "agents"
          },
          {
            "type": "name_match",
            "text": "phenol",
            "confidence": 1.0,
            "uuid": "03141a03-a7df-4f51-9a37-adde1a7c4b31",
            "name": "Phenol",
            "url": "https://haz-map.com/Agents/84",
            "category": "agents"
          },
          {
            "type": "name_match",
            "text": "ethyl alcohol",
            "confidence": 1.0,
            "uuid": "9e039165-5b7c-44a7-afb2-dcf3c15e7a99",
            "name": "Ethyl alcohol",
            "url": "https://haz-map.com/Agents/481",
            "category": "agents"
          },
          {
            "type": "name_match",
            "text": "benzyl alcohol",
            "confidence": 1.0,
            "uuid": "aa5ddab1-d568-4556-bbb6-b1adaca0f801",
            "name": "Benzyl alcohol",
            "url": "https://haz-map.com/Agents/1267",
            "category": "agents"
          },
          {
            "type": "name_match",
            "text": "benzil",
            "confidence": 1.0,
            "uuid": "09aecf89-f193-4e35-b1cb-48004196e00d",
            "name": "Benzil",
            "url": "https://haz-map.com/Agents/12189",
            "category": "agents"
          }
        ]
      },
      "category": {
        "original_name": "Category",
        "value": "Alcohols and Polyols, Other",
        "links": [],
        "cross_references": []
      },
      "description": {
        "original_name": "Description",
        "value": "A colorless liquid with a sharp burning taste and slight odor; [ChemIDplus]",
        "links": [],
        "cross_references": [
          {
            "type": "name_match",
            "text": "burn",
            "confidence": 1.0,
            "uuid": "63665de5-6376-4918-8dbf-4c10c4d63837",
            "name": "burn",
            "url": "https://haz-map.com/Findings/204",
            "category": "findings"
          },
          {
            "type": "name_match",
            "text": "ht",
            "confidence": 1.0,
            "uuid": "764df367-8d53-4a11-81a2-31ccfe122a8d",
            "name": "HT",
            "url": "https://haz-map.com/Agents/2168",
            "category": "agents"
          }
        ]
      },
      "sourcesuses": {
        "original_name": "Sources/Uses",
        "value": "Used as a preservative, epoxy resin catalyst, and in the photographic developer C-22; [Kanerva, p. 1757] Used as a preservative, solvent, and local anesthetic; [Marks, p. 136] Used as a preservative in drugs for injection; [Kanerva, p. 462-3] Used in flavors and perfumes and as a solvent for inks and dyes; [AIHA]",
        "links": [],
        "cross_references": []
      },
      "comments": {
        "original_name": "Comments",
        "value": "Rarely causes allergic contact dermatitis; [Marks, p. 136] Occupational contact urticaria has been reported. [ PMID 11766131 ] A skin and eye irritant; Inhalation of high concentrations may cause CNS effects; May cause skin sensitization; [ICSC] No deaths in rats exposed to saturated concentrations (100-200 ppm) for 2 hours; Rapidly metabolized to hippuric acid; Has caused deaths in premature infants when given in IV solutions >4.5 mg/kg-day; [AIHA] Included in list of \"established contact allergens in humans\"; [EC: Scientific Committee on Consumer Safety: Fragrance allergens in cosmetic products (2011)]",
        "links": [
          {
            "text": "PMID 11766131",
            "url": "https://www.ncbi.nlm.nih.gov/pubmed/11766131"
          }
        ],
        "cross_references": [
          {
            "type": "name_match",
            "text": "contact urticaria",
            "confidence": 1.0,
            "uuid": "465e908f-02ad-4f45-a29b-fd09224d5874",
            "name": "Contact urticaria",
            "url": "https://haz-map.com/Diseases/266",
            "category": "diseases"
          },
          {
            "type": "name_match",
            "text": "dermatitis",
            "confidence": 1.0,
            "uuid": "fe9c05f2-b19f-4ceb-ac7a-ffb7d7a0cae0",
            "name": "dermatitis",
            "url": "https://haz-map.com/Findings/59",
            "category": "findings"
          },
          {
            "type": "name_match",
            "text": "urticaria",
            "confidence": 1.0,
            "uuid": "077e5bcd-975f-45ad-a136-d3c876b10a30",
            "name": "urticaria",
            "url": "https://haz-map.com/Findings/113",
            "category": "findings"
          },
          {
            "type": "name_match",
            "text": "hippuric acid",
            "confidence": 1.0,
            "uuid": "35923b3e-7ba4-4b83-bd9a-69e873ee9b54",
            "name": "Hippuric acid",
            "url": "https://haz-map.com/Agents/14666",
            "category": "agents"
          },
          {
            "type": "name_match",
            "text": "uric acid",
            "confidence": 1.0,
            "uuid": "bd67e9b1-899e-4f1c-95f0-d25380f3c966",
            "name": "Uric acid",
            "url": "https://haz-map.com/Agents/18587",
            "category": "agents"
          },
          {
            "type": "fuzzy_match",
            "text": "contact dermatitis",
            "matched_name": "Contact dermatitis, allergic",
            "confidence": 0.7214285714285715,
            "uuid": "c9499de0-9aa1-41bf-8753-cd5b28a63e29",
            "category": "diseases",
            "url": "https://haz-map.com/Diseases/18"
          }
        ]
      },
      "reference_link_1": {
        "original_name": "Reference Link #1",
        "value": "Photographic allergens: an update",
        "links": [
          {
            "text": "Photographic allergens: an update",
            "url": "http://www.ncbi.nlm.nih.gov/entrez/query.fcgi?cmd=Retrieve&db=PubMed&list_uids=9330822&dopt=Abstract"
          }
        ],
        "cross_references": []
      },
      "biomedical_references": {
        "original_name": "Biomedical References",
        "value": "Search PubMed",
        "links": [
          {
            "text": "Search PubMed",
            "url": "https://www.ncbi.nlm.nih.gov/pubmed?term=Benzyl+alcohol%20AND%20human%5Bmh%5D%20AND%20%28Occupational%20Diseases%20%5Bmh%5D%20OR%20Occupational%20Exposure%20%5Bmh%5D%29%20%20AND%20%28tox%5Bsb%5D%29&cmd=search"
          }
        ],
        "cross_references": []
      }
    },
    "exposure_assessment": {
      "mak": {
        "original_name": "MAK",
        "value": "5 ppm",
        "links": [],
        "cross_references": []
      },
      "vapor_pressure": {
        "original_name": "Vapor Pressure",
        "value": "0.094 mm Hg",
        "links": [],
        "cross_references": []
      },
      "odor_threshold_low": {
        "original_name": "Odor Threshold Low",
        "value": "5.5 ppm",
        "links": [],
        "cross_references": []
      },
      "lethal_concentration": {
        "original_name": "Lethal Concentration",
        "value": "LCLo (rat) = 1,000 ppm/8h",
        "links": [],
        "cross_references": []
      },
      "explanatory_notes": {
        "original_name": "Explanatory Notes",
        "value": "Flash point = 93 deg C; Odor threshold from CHEMINFO; VP from HSDB;",
        "links": [],
        "cross_references": [
          {
            "type": "name_match",
            "text": "ash",
            "confidence": 1.0,
            "uuid": "68b360f1-5ad0-4337-bea0-d7adca2961b5",
            "name": "Ash",
            "url": "https://haz-map.com/Agents/965",
            "category": "agents"
          }
        ]
      },
      "reference_link_2": {
        "original_name": "Reference Link #2",
        "value": "Occupational airborne allergic contact dermatitis in parquet layers",
        "links": [
          {
            "text": "Occupational airborne allergic contact dermatitis in parquet layers",
            "url": "http://www.ncbi.nlm.nih.gov/entrez/query.fcgi?cmd=Retrieve&db=PubMed&list_uids=8112078&dopt=Abstract"
          }
        ],
        "cross_references": [
          {
            "type": "name_match",
            "text": "dermatitis",
            "confidence": 1.0,
            "uuid": "fe9c05f2-b19f-4ceb-ac7a-ffb7d7a0cae0",
            "name": "dermatitis",
            "url": "https://haz-map.com/Findings/59",
            "category": "findings"
          },
          {
            "type": "fuzzy_match",
            "text": "contact dermatitis",
            "matched_name": "Contact dermatitis, allergic",
            "confidence": 0.7214285714285715,
            "uuid": "c9499de0-9aa1-41bf-8753-cd5b28a63e29",
            "category": "diseases",
            "url": "https://haz-map.com/Diseases/18"
          }
        ]
      },
      "nfpa": {
        "original_name": "NFPA",
        "value": "must be preheated",
        "links": [],
        "cross_references": []
      },
      "weel": {
        "original_name": "WEEL",
        "value": "10 ppm",
        "links": [],
        "cross_references": []
      }
    },
    "adverse_effects": {
      "skin_sensitizer": {
        "original_name": "Skin Sensitizer",
        "value": "Yes",
        "links": [],
        "cross_references": []
      },
      "neurotoxin": {
        "original_name": "Neurotoxin",
        "value": "Acute solvent syndrome",
        "links": [],
        "cross_references": []
      }
    },
    "diseases_processes_and_activities_linked_to_this_agent": {
      "diseases": {
        "original_name": "Diseases",
        "value": "Occupational diseases associated with exposure to this agent: Contact dermatitis, allergic Contact urticaria Solvents, acute toxic effect",
        "links": [
          {
            "text": "Contact dermatitis, allergic",
            "url": "https://haz-map.com/Diseases/18"
          },
          {
            "text": "Contact urticaria",
            "url": "https://haz-map.com/Diseases/266"
          },
          {
            "text": "Solvents, acute toxic effect",
            "url": "https://haz-map.com/Diseases/326"
          }
        ],
        "cross_references": [
          {
            "type": "url_match",
            "text": "Contact dermatitis, allergic",
            "url": "https://haz-map.com/Diseases/18",
            "confidence": 1.0,
            "uuid": "c9499de0-9aa1-41bf-8753-cd5b28a63e29",
            "name": "Contact dermatitis, allergic",
            "category": "diseases"
          },
          {
            "type": "url_match",
            "text": "Contact urticaria",
            "url": "https://haz-map.com/Diseases/266",
            "confidence": 1.0,
            "uuid": "465e908f-02ad-4f45-a29b-fd09224d5874",
            "name": "Contact urticaria",
            "category": "diseases"
          },
          {
            "type": "url_match",
            "text": "Solvents, acute toxic effect",
            "url": "https://haz-map.com/Diseases/326",
            "confidence": 1.0,
            "uuid": "581e90e3-9d0c-45f0-aa6c-3468c28da129",
            "name": "Solvents, acute toxic effect",
            "category": "diseases"
          },
          {
            "type": "name_match",
            "text": "dermatitis",
            "confidence": 1.0,
            "uuid": "fe9c05f2-b19f-4ceb-ac7a-ffb7d7a0cae0",
            "name": "dermatitis",
            "url": "https://haz-map.com/Findings/59",
            "category": "findings"
          },
          {
            "type": "name_match",
            "text": "urticaria",
            "confidence": 1.0,
            "uuid": "077e5bcd-975f-45ad-a136-d3c876b10a30",
            "name": "urticaria",
            "url": "https://haz-map.com/Findings/113",
            "category": "findings"
          }
        ]
      },
      "processes": {
        "original_name": "Processes",
        "value": "Industrial Processes with risk of exposure: Photographic Processing Plastic Composites Manufacturing Using Disinfectants or Biocides",
        "links": [
          {
            "text": "Photographic Processing",
            "url": "https://haz-map.com/Processes/231"
          },
          {
            "text": "Plastic Composites Manufacturing",
            "url": "https://haz-map.com/Processes/222"
          },
          {
            "text": "Using Disinfectants or Biocides",
            "url": "https://haz-map.com/Processes/167"
          }
        ],
        "cross_references": [
          {
            "type": "url_match",
            "text": "Plastic Composites Manufacturing",
            "url": "https://haz-map.com/Processes/222",
            "confidence": 1.0,
            "uuid": "d4461b82-dc77-4172-8e3d-0a5e3b213911",
            "name": "Plastic Composites Manufacturing",
            "category": "processes"
          },
          {
            "type": "url_match",
            "text": "Using Disinfectants or Biocides",
            "url": "https://haz-map.com/Processes/167",
            "confidence": 1.0,
            "uuid": "7accb745-ad60-4ef8-9039-8ac4febb8fd8",
            "name": "Using Disinfectants or Biocides",
            "category": "processes"
          }
        ]
      }
    }
  },
  "cross_references": [
    {
      "type": "url_match",
      "text": "Contact dermatitis, allergic",
      "url": "https://haz-map.com/Diseases/18",
      "confidence": 1.0,
      "uuid": "c9499de0-9aa1-41bf-8753-cd5b28a63e29",
      "name": "Contact dermatitis, allergic",
      "category": "diseases"
    },
    {
      "type": "url_match",
      "text": "Contact urticaria",
      "url": "https://haz-map.com/Diseases/266",
      "confidence": 1.0,
      "uuid": "465e908f-02ad-4f45-a29b-fd09224d5874",
      "name": "Contact urticaria",
      "category": "diseases"
    },
    {
      "type": "url_match",
      "text": "Solvents, acute toxic effect",
      "url": "https://haz-map.com/Diseases/326",
      "confidence": 1.0,
      "uuid": "581e90e3-9d0c-45f0-aa6c-3468c28da129",
      "name": "Solvents, acute toxic effect",
      "category": "diseases"
    },
    {
      "type": "url_match",
      "text": "Plastic Composites Manufacturing",
      "url": "https://haz-map.com/Processes/222",
      "confidence": 1.0,
      "uuid": "d4461b82-dc77-4172-8e3d-0a5e3b213911",
      "name": "Plastic Composites Manufacturing",
      "category": "processes"
    },
    {
      "type": "url_match",
      "text": "Using Disinfectants or Biocides",
      "url": "https://haz-map.com/Processes/167",
      "confidence": 1.0,
      "uuid": "7accb745-ad60-4ef8-9039-8ac4febb8fd8",
      "name": "Using Disinfectants or Biocides",
      "category": "processes"
    },
    {
      "type": "name_match",
      "text": "dermatitis",
      "confidence": 1.0,
      "uuid": "fe9c05f2-b19f-4ceb-ac7a-ffb7d7a0cae0",
      "name": "dermatitis",
      "url": "https://haz-map.com/Findings/59",
      "category": "findings"
    },
    {
      "type": "name_match",
      "text": "urticaria",
      "confidence": 1.0,
      "uuid": "077e5bcd-975f-45ad-a136-d3c876b10a30",
      "name": "urticaria",
      "url": "https://haz-map.com/Findings/113",
      "category": "findings"
    },
    {
      "type": "name_match",
      "text": "burn",
      "confidence": 1.0,
      "uuid": "63665de5-6376-4918-8dbf-4c10c4d63837",
      "name": "burn",
      "url": "https://haz-map.com/Findings/204",
      "category": "findings"
    },
    {
      "type": "name_match",
      "text": "benzene",
      "confidence": 1.0,
      "uuid": "b05124de-5f34-4c14-8f04-ccb20c3780d9",
      "name": "Benzene",
      "url": "https://haz-map.com/Agents/5",
      "category": "agents"
    },
    {
      "type": "name_match",
      "text": "methyl alcohol",
      "confidence": 1.0,
      "uuid": "6b4db7bf-710a-48ac-9b97-40e0376a68f3",
      "name": "Methyl alcohol",
      "url": "https://haz-map.com/Agents/13",
      "category": "agents"
    },
    {
      "type": "name_match",
      "text": "toluene",
      "confidence": 1.0,
      "uuid": "0a34d5de-e924-4c47-aff5-7ae8e48c6772",
      "name": "Toluene",
      "url": "https://haz-map.com/Agents/83",
      "category": "agents"
    },
    {
      "type": "name_match",
      "text": "phenol",
      "confidence": 1.0,
      "uuid": "03141a03-a7df-4f51-9a37-adde1a7c4b31",
      "name": "Phenol",
      "url": "https://haz-map.com/Agents/84",
      "category": "agents"
    },
    {
      "type": "name_match",
      "text": "ethyl alcohol",
      "confidence": 1.0,
      "uuid": "9e039165-5b7c-44a7-afb2-dcf3c15e7a99",
      "name": "Ethyl alcohol",
      "url": "https://haz-map.com/Agents/481",
      "category": "agents"
    },
    {
      "type": "name_match",
      "text": "ash",
      "confidence": 1.0,
      "uuid": "68b360f1-5ad0-4337-bea0-d7adca2961b5",
      "name": "Ash",
      "url": "https://haz-map.com/Agents/965",
      "category": "agents"
    },
    {
      "type": "name_match",
      "text": "benzyl alcohol",
      "confidence": 1.0,
      "uuid": "aa5ddab1-d568-4556-bbb6-b1adaca0f801",
      "name": "Benzyl alcohol",
      "url": "https://haz-map.com/Agents/1267",
      "category": "agents"
    },
    {
      "type": "name_match",
      "text": "ht",
      "confidence": 1.0,
      "uuid": "764df367-8d53-4a11-81a2-31ccfe122a8d",
      "name": "HT",
      "url": "https://haz-map.com/Agents/2168",
      "category": "agents"
    },
    {
      "type": "name_match",
      "text": "benzil",
      "confidence": 1.0,
      "uuid": "09aecf89-f193-4e35-b1cb-48004196e00d",
      "name": "Benzil",
      "url": "https://haz-map.com/Agents/12189",
      "category": "agents"
    },
    {
      "type": "name_match",
      "text": "hippuric acid",
      "confidence": 1.0,
      "uuid": "35923b3e-7ba4-4b83-bd9a-69e873ee9b54",
      "name": "Hippuric acid",
      "url": "https://haz-map.com/Agents/14666",
      "category": "agents"
    },
    {
      "type": "name_match",
      "text": "uric acid",
      "confidence": 1.0,
      "uuid": "bd67e9b1-899e-4f1c-95f0-d25380f3c966",
      "name": "Uric acid",
      "url": "https://haz-map.com/Agents/18587",
      "category": "agents"
    }
  ],
  "all_links": [
    {
      "text": "PMID 11766131",
      "url": "https://www.ncbi.nlm.nih.gov/pubmed/11766131"
    },
    {
      "text": "Photographic allergens: an update",
      "url": "http://www.ncbi.nlm.nih.gov/entrez/query.fcgi?cmd=Retrieve&db=PubMed&list_uids=9330822&dopt=Abstract"
    },
    {
      "text": "Search PubMed",
      "url": "https://www.ncbi.nlm.nih.gov/pubmed?term=Benzyl+alcohol%20AND%20human%5Bmh%5D%20AND%20%28Occupational%20Diseases%20%5Bmh%5D%20OR%20Occupational%20Exposure%20%5Bmh%5D%29%20%20AND%20%28tox%5Bsb%5D%29&cmd=search"
    },
    {
      "text": "Occupational airborne allergic contact dermatitis in parquet layers",
      "url": "http://www.ncbi.nlm.nih.gov/entrez/query.fcgi?cmd=Retrieve&db=PubMed&list_uids=8112078&dopt=Abstract"
    },
    {
      "text": "Contact dermatitis, allergic",
      "url": "https://haz-map.com/Diseases/18"
    },
    {
      "text": "Contact urticaria",
      "url": "https://haz-map.com/Diseases/266"
    },
    {
      "text": "Solvents, acute toxic effect",
      "url": "https://haz-map.com/Diseases/326"
    },
    {
      "text": "Photographic Processing",
      "url": "https://haz-map.com/Processes/231"
    },
    {
      "text": "Plastic Composites Manufacturing",
      "url": "https://haz-map.com/Processes/222"
    },
    {
      "text": "Using Disinfectants or Biocides",
      "url": "https://haz-map.com/Processes/167"
    }
  ]
}