{
  "metadata": {
    "scraped_from": "https://haz-map.com/Agents/19629",
    "entity_name": "2-Isopropyl-4,6-dinitrophenol",
    "category": "agents",
    "uuid": "aa6f2935-9347-4d45-b5c9-4808d0b88401",
    "scraped_at": "2025-07-23T22:09:49.799653"
  },
  "parsed_at": "2025-07-24T01:03:47.944087",
  "title": "2-Isopropyl-4,6-dinitrophenol",
  "sections": {
    "general": {
      "agent_name": {
        "original_name": "Agent Name",
        "value": "2-Isopropyl-4,6-dinitrophenol",
        "links": [],
        "cross_references": [
          {
            "type": "name_match",
            "text": "phenol",
            "confidence": 1.0,
            "uuid": "03141a03-a7df-4f51-9a37-adde1a7c4b31",
            "name": "Phenol",
            "url": "https://haz-map.com/Agents/84",
            "category": "agents"
          },
          {
            "type": "name_match",
            "text": "dinitrophenol",
            "confidence": 1.0,
            "uuid": "6335b5e4-a456-4dd1-a0ca-6671d9371e92",
            "name": "Dinitrophenol",
            "url": "https://haz-map.com/Agents/683",
            "category": "agents"
          },
          {
            "type": "name_match",
            "text": "2-isopropyl-4,6-dinitrophenol",
            "confidence": 1.0,
            "uuid": "aa6f2935-9347-4d45-b5c9-4808d0b88401",
            "name": "2-Isopropyl-4,6-dinitrophenol",
            "url": "https://haz-map.com/Agents/19629",
            "category": "agents"
          },
          {
            "type": "fuzzy_match",
            "text": "6-dinitrophenol",
            "matched_name": "2,6-Dinitrophenol",
            "confidence": 0.8697478991596639,
            "uuid": "26f21dc0-c4e0-405d-a91d-6de110e5f35a",
            "category": "agents",
            "url": "https://haz-map.com/Agents/3047"
          }
        ]
      },
      "cas_number": {
        "original_name": "CAS Number",
        "value": "118-95-6",
        "links": [],
        "cross_references": []
      },
      "formula": {
        "original_name": "Formula",
        "value": "C9-H10-N2-O5",
        "links": [],
        "cross_references": []
      },
      "major_category": {
        "original_name": "Major Category",
        "value": "Nitrogen Compounds",
        "links": [],
        "cross_references": [
          {
            "type": "name_match",
            "text": "nitrogen",
            "confidence": 1.0,
            "uuid": "db5e90a9-06d2-45b9-8b81-f345a89b0bc0",
            "name": "Nitrogen",
            "url": "https://haz-map.com/Agents/1072",
            "category": "agents"
          }
        ]
      },
      "synonyms": {
        "original_name": "Synonyms",
        "value": "2,4-Dinitro-6-isopropylphenol; 4,6-Dinitro-2-isopropylphenol; Dinitro-iso-propylphenol; DNPP; Isopropyl-4,6-dinitrophenol; Motylkopielik; Phenol, 2-isopropyl-4,6-dinitro-; Phenol, 2,4-dinitro-6-isopropyl-; Phenol, 2-(1-methylethyl)-4,6-dinitro-; [ChemIDplus]",
        "links": [],
        "cross_references": [
          {
            "type": "name_match",
            "text": "phenol",
            "confidence": 1.0,
            "uuid": "03141a03-a7df-4f51-9a37-adde1a7c4b31",
            "name": "Phenol",
            "url": "https://haz-map.com/Agents/84",
            "category": "agents"
          },
          {
            "type": "name_match",
            "text": "2,4-d",
            "confidence": 1.0,
            "uuid": "bed35f54-2d93-4ffd-a3ee-723ab365faf1",
            "name": "2,4-D",
            "url": "https://haz-map.com/Agents/389",
            "category": "agents"
          },
          {
            "type": "name_match",
            "text": "dinitrophenol",
            "confidence": 1.0,
            "uuid": "6335b5e4-a456-4dd1-a0ca-6671d9371e92",
            "name": "Dinitrophenol",
            "url": "https://haz-map.com/Agents/683",
            "category": "agents"
          },
          {
            "type": "name_match",
            "text": "2-isopropylphenol",
            "confidence": 1.0,
            "uuid": "398b4491-c25c-4579-bad0-b7cf7717a836",
            "name": "2-Isopropylphenol",
            "url": "https://haz-map.com/Agents/19630",
            "category": "agents"
          },
          {
            "type": "fuzzy_match",
            "text": "6-dinitrophenol",
            "matched_name": "2,6-Dinitrophenol",
            "confidence": 0.8697478991596639,
            "uuid": "26f21dc0-c4e0-405d-a91d-6de110e5f35a",
            "category": "agents",
            "url": "https://haz-map.com/Agents/3047"
          }
        ]
      },
      "category": {
        "original_name": "Category",
        "value": "Nitrophenols",
        "links": [],
        "cross_references": [
          {
            "type": "name_match",
            "text": "phenol",
            "confidence": 1.0,
            "uuid": "03141a03-a7df-4f51-9a37-adde1a7c4b31",
            "name": "Phenol",
            "url": "https://haz-map.com/Agents/84",
            "category": "agents"
          }
        ]
      },
      "comments": {
        "original_name": "Comments",
        "value": "Dermal lethal-dose (rabbit) for 60% mortality = 100 mg/kg; Dermal lethal-dose (rat) for 80% mortality = 300 mg/kg; [RTECS] See \"Dinitrophenol.\"",
        "links": [],
        "cross_references": [
          {
            "type": "name_match",
            "text": "phenol",
            "confidence": 1.0,
            "uuid": "03141a03-a7df-4f51-9a37-adde1a7c4b31",
            "name": "Phenol",
            "url": "https://haz-map.com/Agents/84",
            "category": "agents"
          },
          {
            "type": "name_match",
            "text": "dinitrophenol",
            "confidence": 1.0,
            "uuid": "6335b5e4-a456-4dd1-a0ca-6671d9371e92",
            "name": "Dinitrophenol",
            "url": "https://haz-map.com/Agents/683",
            "category": "agents"
          },
          {
            "type": "name_match",
            "text": "tali",
            "confidence": 1.0,
            "uuid": "8c3a0f99-2143-4122-b539-ec5cc49596b0",
            "name": "Tali",
            "url": "https://haz-map.com/Agents/1128",
            "category": "agents"
          }
        ]
      },
      "biomedical_references": {
        "original_name": "Biomedical References",
        "value": "Search PubMed",
        "links": [
          {
            "text": "Search PubMed",
            "url": "https://www.ncbi.nlm.nih.gov/pubmed?term=2-Isopropyl-4%2c6-dinitrophenol%20AND%20human%5Bmh%5D%20AND%20%28Occupational%20Diseases%20%5Bmh%5D%20OR%20Occupational%20Exposure%20%5Bmh%5D%29%20%20AND%20%28tox%5Bsb%5D%29&cmd=search"
          }
        ],
        "cross_references": []
      }
    },
    "exposure_assessment": {
      "vapor_pressure": {
        "original_name": "Vapor Pressure",
        "value": "1.66E-06 mm Hg",
        "links": [],
        "cross_references": []
      },
      "lethal_concentration": {
        "original_name": "Lethal Concentration",
        "value": "LC33 (cat) = 325 mg/m3/4hr",
        "links": [],
        "cross_references": []
      }
    },
    "diseases_processes_and_activities_linked_to_this_agent": {
      "other_information": {
        "original_name": "Other Information",
        "value": "No other related information on this agent was found.",
        "links": [],
        "cross_references": []
      }
    }
  },
  "cross_references": [
    {
      "type": "name_match",
      "text": "phenol",
      "confidence": 1.0,
      "uuid": "03141a03-a7df-4f51-9a37-adde1a7c4b31",
      "name": "Phenol",
      "url": "https://haz-map.com/Agents/84",
      "category": "agents"
    },
    {
      "type": "name_match",
      "text": "2,4-d",
      "confidence": 1.0,
      "uuid": "bed35f54-2d93-4ffd-a3ee-723ab365faf1",
      "name": "2,4-D",
      "url": "https://haz-map.com/Agents/389",
      "category": "agents"
    },
    {
      "type": "name_match",
      "text": "dinitrophenol",
      "confidence": 1.0,
      "uuid": "6335b5e4-a456-4dd1-a0ca-6671d9371e92",
      "name": "Dinitrophenol",
      "url": "https://haz-map.com/Agents/683",
      "category": "agents"
    },
    {
      "type": "name_match",
      "text": "nitrogen",
      "confidence": 1.0,
      "uuid": "db5e90a9-06d2-45b9-8b81-f345a89b0bc0",
      "name": "Nitrogen",
      "url": "https://haz-map.com/Agents/1072",
      "category": "agents"
    },
    {
      "type": "name_match",
      "text": "tali",
      "confidence": 1.0,
      "uuid": "8c3a0f99-2143-4122-b539-ec5cc49596b0",
      "name": "Tali",
      "url": "https://haz-map.com/Agents/1128",
      "category": "agents"
    },
    {
      "type": "name_match",
      "text": "2-isopropyl-4,6-dinitrophenol",
      "confidence": 1.0,
      "uuid": "aa6f2935-9347-4d45-b5c9-4808d0b88401",
      "name": "2-Isopropyl-4,6-dinitrophenol",
      "url": "https://haz-map.com/Agents/19629",
      "category": "agents"
    },
    {
      "type": "name_match",
      "text": "2-isopropylphenol",
      "confidence": 1.0,
      "uuid": "398b4491-c25c-4579-bad0-b7cf7717a836",
      "name": "2-Isopropylphenol",
      "url": "https://haz-map.com/Agents/19630",
      "category": "agents"
    },
    {
      "type": "fuzzy_match",
      "text": "6-dinitrophenol",
      "matched_name": "2,6-Dinitrophenol",
      "confidence": 0.8697478991596639,
      "uuid": "26f21dc0-c4e0-405d-a91d-6de110e5f35a",
      "category": "agents",
      "url": "https://haz-map.com/Agents/3047"
    }
  ],
  "all_links": [
    {
      "text": "Search PubMed",
      "url": "https://www.ncbi.nlm.nih.gov/pubmed?term=2-Isopropyl-4%2c6-dinitrophenol%20AND%20human%5Bmh%5D%20AND%20%28Occupational%20Diseases%20%5Bmh%5D%20OR%20Occupational%20Exposure%20%5Bmh%5D%29%20%20AND%20%28tox%5Bsb%5D%29&cmd=search"
    }
  ]
}