{
  "metadata": {
    "scraped_from": "https://haz-map.com/Agents/16019",
    "entity_name": "1-Methylaziridine",
    "category": "agents",
    "uuid": "aa93e70c-3e42-4bc7-b5e3-a4ff14f485d4",
    "scraped_at": "2025-07-23T21:33:48.511478"
  },
  "parsed_at": "2025-07-24T00:59:02.334053",
  "title": "1-Methylaziridine",
  "sections": {
    "general": {
      "agent_name": {
        "original_name": "Agent Name",
        "value": "1-Methylaziridine",
        "links": [],
        "cross_references": [
          {
            "type": "name_match",
            "text": "1-methylaziridine",
            "confidence": 1.0,
            "uuid": "aa93e70c-3e42-4bc7-b5e3-a4ff14f485d4",
            "name": "1-Methylaziridine",
            "url": "https://haz-map.com/Agents/16019",
            "category": "agents"
          }
        ]
      },
      "cas_number": {
        "original_name": "CAS Number",
        "value": "1072-44-2",
        "links": [],
        "cross_references": []
      },
      "formula": {
        "original_name": "Formula",
        "value": "C3-H7-N",
        "links": [],
        "cross_references": []
      },
      "major_category": {
        "original_name": "Major Category",
        "value": "Nitrogen Compounds",
        "links": [],
        "cross_references": [
          {
            "type": "name_match",
            "text": "nitrogen",
            "confidence": 1.0,
            "uuid": "db5e90a9-06d2-45b9-8b81-f345a89b0bc0",
            "name": "Nitrogen",
            "url": "https://haz-map.com/Agents/1072",
            "category": "agents"
          }
        ]
      },
      "synonyms": {
        "original_name": "Synonyms",
        "value": "1-Methylethylenimine; N-Methylaziridine; N-Methylethylenimine; TL 37; Aziridine, 1-methyl-; [ChemIDplus]",
        "links": [],
        "cross_references": []
      },
      "category": {
        "original_name": "Category",
        "value": "Amines, Aliphatic",
        "links": [],
        "cross_references": []
      },
      "description": {
        "original_name": "Description",
        "value": "Boiling point = 27.5 deg C; [ChemIDplus]",
        "links": [],
        "cross_references": []
      },
      "comments": {
        "original_name": "Comments",
        "value": "See \"Ethyleneimine\" and \"Propyleneimine.\"",
        "links": [],
        "cross_references": [
          {
            "type": "name_match",
            "text": "ethyleneimine",
            "confidence": 1.0,
            "uuid": "e1ebff38-07a8-4961-a722-504ebacc7a8a",
            "name": "Ethyleneimine",
            "url": "https://haz-map.com/Agents/280",
            "category": "agents"
          },
          {
            "type": "name_match",
            "text": "propyleneimine",
            "confidence": 1.0,
            "uuid": "29c0a6d2-fc22-408c-8ea5-d5b21e437156",
            "name": "Propyleneimine",
            "url": "https://haz-map.com/Agents/422",
            "category": "agents"
          },
          {
            "type": "name_match",
            "text": "ethylene",
            "confidence": 1.0,
            "uuid": "958eacc0-5135-4b62-bb93-6df972bf552f",
            "name": "Ethylene",
            "url": "https://haz-map.com/Agents/1076",
            "category": "agents"
          },
          {
            "type": "name_match",
            "text": "propylene",
            "confidence": 1.0,
            "uuid": "78ac73a1-0029-4a50-b283-561134c72041",
            "name": "Propylene",
            "url": "https://haz-map.com/Agents/1078",
            "category": "agents"
          }
        ]
      },
      "biomedical_references": {
        "original_name": "Biomedical References",
        "value": "Search PubMed",
        "links": [
          {
            "text": "Search PubMed",
            "url": "https://www.ncbi.nlm.nih.gov/pubmed?term=1-Methylaziridine%20AND%20human%5Bmh%5D%20AND%20%28Occupational%20Diseases%20%5Bmh%5D%20OR%20Occupational%20Exposure%20%5Bmh%5D%29%20%20AND%20%28tox%5Bsb%5D%29&cmd=search"
          }
        ],
        "cross_references": []
      }
    },
    "exposure_assessment": {
      "lethal_concentration": {
        "original_name": "Lethal Concentration",
        "value": "LC (mouse) > 2,000 mg/m3/10min",
        "links": [],
        "cross_references": []
      }
    },
    "diseases_processes_and_activities_linked_to_this_agent": {
      "other_information": {
        "original_name": "Other Information",
        "value": "No other related information on this agent was found.",
        "links": [],
        "cross_references": []
      }
    }
  },
  "cross_references": [
    {
      "type": "name_match",
      "text": "ethyleneimine",
      "confidence": 1.0,
      "uuid": "e1ebff38-07a8-4961-a722-504ebacc7a8a",
      "name": "Ethyleneimine",
      "url": "https://haz-map.com/Agents/280",
      "category": "agents"
    },
    {
      "type": "name_match",
      "text": "propyleneimine",
      "confidence": 1.0,
      "uuid": "29c0a6d2-fc22-408c-8ea5-d5b21e437156",
      "name": "Propyleneimine",
      "url": "https://haz-map.com/Agents/422",
      "category": "agents"
    },
    {
      "type": "name_match",
      "text": "nitrogen",
      "confidence": 1.0,
      "uuid": "db5e90a9-06d2-45b9-8b81-f345a89b0bc0",
      "name": "Nitrogen",
      "url": "https://haz-map.com/Agents/1072",
      "category": "agents"
    },
    {
      "type": "name_match",
      "text": "ethylene",
      "confidence": 1.0,
      "uuid": "958eacc0-5135-4b62-bb93-6df972bf552f",
      "name": "Ethylene",
      "url": "https://haz-map.com/Agents/1076",
      "category": "agents"
    },
    {
      "type": "name_match",
      "text": "propylene",
      "confidence": 1.0,
      "uuid": "78ac73a1-0029-4a50-b283-561134c72041",
      "name": "Propylene",
      "url": "https://haz-map.com/Agents/1078",
      "category": "agents"
    },
    {
      "type": "name_match",
      "text": "1-methylaziridine",
      "confidence": 1.0,
      "uuid": "aa93e70c-3e42-4bc7-b5e3-a4ff14f485d4",
      "name": "1-Methylaziridine",
      "url": "https://haz-map.com/Agents/16019",
      "category": "agents"
    }
  ],
  "all_links": [
    {
      "text": "Search PubMed",
      "url": "https://www.ncbi.nlm.nih.gov/pubmed?term=1-Methylaziridine%20AND%20human%5Bmh%5D%20AND%20%28Occupational%20Diseases%20%5Bmh%5D%20OR%20Occupational%20Exposure%20%5Bmh%5D%29%20%20AND%20%28tox%5Bsb%5D%29&cmd=search"
    }
  ]
}