{
  "metadata": {
    "scraped_from": "https://haz-map.com/Agents/14448",
    "entity_name": "Glycyl-glycyl-glycine",
    "category": "agents",
    "uuid": "aabaa08e-bfe2-4f93-b0ff-658a0cd8ce36",
    "scraped_at": "2025-07-23T21:23:02.316826"
  },
  "parsed_at": "2025-07-24T00:58:03.822423",
  "title": "Glycyl-glycyl-glycine",
  "sections": {
    "general": {
      "agent_name": {
        "original_name": "Agent Name",
        "value": "Glycyl-glycyl-glycine",
        "links": [],
        "cross_references": [
          {
            "type": "name_match",
            "text": "glycine",
            "confidence": 1.0,
            "uuid": "820f614c-594c-4165-b9ef-dbbd5cd636a8",
            "name": "Glycine",
            "url": "https://haz-map.com/Agents/14439",
            "category": "agents"
          },
          {
            "type": "name_match",
            "text": "glycyl-glycyl-glycine",
            "confidence": 1.0,
            "uuid": "aabaa08e-bfe2-4f93-b0ff-658a0cd8ce36",
            "name": "Glycyl-glycyl-glycine",
            "url": "https://haz-map.com/Agents/14448",
            "category": "agents"
          }
        ]
      },
      "cas_number": {
        "original_name": "CAS Number",
        "value": "556-33-2",
        "links": [],
        "cross_references": []
      },
      "formula": {
        "original_name": "Formula",
        "value": "C6-H11-N3-O4",
        "links": [],
        "cross_references": []
      },
      "major_category": {
        "original_name": "Major Category",
        "value": "Biological Agents",
        "links": [],
        "cross_references": []
      },
      "synonyms": {
        "original_name": "Synonyms",
        "value": "Diglycylglycine; Glycylglycylglycine; N-(N-Glycylglycyl)glycine; Glycine, N-(N-glycylglycyl)- (8CI)(9CI); [ChemIDplus] Triglycine; [Alfa Aesar MSDS]",
        "links": [],
        "cross_references": [
          {
            "type": "name_match",
            "text": "glycine",
            "confidence": 1.0,
            "uuid": "820f614c-594c-4165-b9ef-dbbd5cd636a8",
            "name": "Glycine",
            "url": "https://haz-map.com/Agents/14439",
            "category": "agents"
          }
        ]
      },
      "category": {
        "original_name": "Category",
        "value": "Amino Acids and Derivatives",
        "links": [],
        "cross_references": []
      },
      "description": {
        "original_name": "Description",
        "value": "Crystals; [Alfa Aesar MSDS]",
        "links": [],
        "cross_references": []
      },
      "comments": {
        "original_name": "Comments",
        "value": "May cause irritation; [Alfa Aesar MSDS]",
        "links": [],
        "cross_references": []
      },
      "biomedical_references": {
        "original_name": "Biomedical References",
        "value": "Search PubMed",
        "links": [
          {
            "text": "Search PubMed",
            "url": "https://www.ncbi.nlm.nih.gov/pubmed?term=Glycyl-glycyl-glycine%20AND%20human%5Bmh%5D%20AND%20%28Occupational%20Diseases%20%5Bmh%5D%20OR%20Occupational%20Exposure%20%5Bmh%5D%29%20%20AND%20%28tox%5Bsb%5D%29&cmd=search"
          }
        ],
        "cross_references": []
      }
    },
    "exposure_assessment": {
      "vapor_pressure": {
        "original_name": "Vapor Pressure",
        "value": "1.96E-11 mm Hg",
        "links": [],
        "cross_references": []
      }
    },
    "diseases_processes_and_activities_linked_to_this_agent": {
      "other_information": {
        "original_name": "Other Information",
        "value": "No other related information on this agent was found.",
        "links": [],
        "cross_references": []
      }
    }
  },
  "cross_references": [
    {
      "type": "name_match",
      "text": "glycine",
      "confidence": 1.0,
      "uuid": "820f614c-594c-4165-b9ef-dbbd5cd636a8",
      "name": "Glycine",
      "url": "https://haz-map.com/Agents/14439",
      "category": "agents"
    },
    {
      "type": "name_match",
      "text": "glycyl-glycyl-glycine",
      "confidence": 1.0,
      "uuid": "aabaa08e-bfe2-4f93-b0ff-658a0cd8ce36",
      "name": "Glycyl-glycyl-glycine",
      "url": "https://haz-map.com/Agents/14448",
      "category": "agents"
    }
  ],
  "all_links": [
    {
      "text": "Search PubMed",
      "url": "https://www.ncbi.nlm.nih.gov/pubmed?term=Glycyl-glycyl-glycine%20AND%20human%5Bmh%5D%20AND%20%28Occupational%20Diseases%20%5Bmh%5D%20OR%20Occupational%20Exposure%20%5Bmh%5D%29%20%20AND%20%28tox%5Bsb%5D%29&cmd=search"
    }
  ]
}