{
  "metadata": {
    "scraped_from": "https://haz-map.com/Agents/15749",
    "entity_name": "Tetramethyl-p-phenylenediamine",
    "category": "agents",
    "uuid": "aadc0316-a820-43f2-a454-3bba33985b4b",
    "scraped_at": "2025-07-23T21:31:57.349867"
  },
  "parsed_at": "2025-07-24T01:06:09.643172",
  "title": "Tetramethyl-p-phenylenediamine",
  "sections": {
    "general": {
      "agent_name": {
        "original_name": "Agent Name",
        "value": "Tetramethyl-p-phenylenediamine",
        "links": [],
        "cross_references": [
          {
            "type": "name_match",
            "text": "p-phenylenediamine",
            "confidence": 1.0,
            "uuid": "6eea604e-32b5-4d94-9c0d-591b37a6c204",
            "name": "p-Phenylenediamine",
            "url": "https://haz-map.com/Agents/229",
            "category": "agents"
          },
          {
            "type": "name_match",
            "text": "tetramethyl-p-phenylenediamine",
            "confidence": 1.0,
            "uuid": "aadc0316-a820-43f2-a454-3bba33985b4b",
            "name": "Tetramethyl-p-phenylenediamine",
            "url": "https://haz-map.com/Agents/15749",
            "category": "agents"
          }
        ]
      },
      "cas_number": {
        "original_name": "CAS Number",
        "value": "100-22-1",
        "links": [],
        "cross_references": []
      },
      "formula": {
        "original_name": "Formula",
        "value": "C10-H16-N2",
        "links": [],
        "cross_references": []
      },
      "major_category": {
        "original_name": "Major Category",
        "value": "Nitrogen Compounds",
        "links": [],
        "cross_references": [
          {
            "type": "name_match",
            "text": "nitrogen",
            "confidence": 1.0,
            "uuid": "db5e90a9-06d2-45b9-8b81-f345a89b0bc0",
            "name": "Nitrogen",
            "url": "https://haz-map.com/Agents/1072",
            "category": "agents"
          }
        ]
      },
      "synonyms": {
        "original_name": "Synonyms",
        "value": "1,4-Benzenediamine, N,N,N',N'-tetramethyl-; 1,4-Bis(dimethylamino)benzene; Benzene, 1,4-bis(dimethylamino)-; N,N,N',N'-Tetramethyl-p-fenylendiamin [Czech]; N,N,N',N'-Tetramethyl-p-phenylenediamine; N,N,N,N-Tetramethyl-1,4-benzenediamine; TL 85; Wurster's Blue; Wurster's reagent; p-Bis(dimethylamino)benzene; 1,4-Benzenediamine, N1,N1,N4,N4-tetramethyl-; p-Phenylenediamine, N,N,N',N'-tetramethyl-; [ChemIDplus] N,N,N,N-Tetramethyl-1,4-diaminobenzene; N,N,N,N-Tetramethyl-p-benzenediamine; Reagents, Wurster's; Tetramethyl-p-phenyldiamine; TMPD; TMPD (amine); TMPDA; TMPPD; [CAMEO]",
        "links": [],
        "cross_references": [
          {
            "type": "name_match",
            "text": "benzene",
            "confidence": 1.0,
            "uuid": "b05124de-5f34-4c14-8f04-ccb20c3780d9",
            "name": "Benzene",
            "url": "https://haz-map.com/Agents/5",
            "category": "agents"
          },
          {
            "type": "name_match",
            "text": "p-phenylenediamine",
            "confidence": 1.0,
            "uuid": "6eea604e-32b5-4d94-9c0d-591b37a6c204",
            "name": "p-Phenylenediamine",
            "url": "https://haz-map.com/Agents/229",
            "category": "agents"
          },
          {
            "type": "name_match",
            "text": "tetramethyl-p-phenylenediamine",
            "confidence": 1.0,
            "uuid": "aadc0316-a820-43f2-a454-3bba33985b4b",
            "name": "Tetramethyl-p-phenylenediamine",
            "url": "https://haz-map.com/Agents/15749",
            "category": "agents"
          }
        ]
      },
      "category": {
        "original_name": "Category",
        "value": "Amines, Aromatic",
        "links": [],
        "cross_references": []
      },
      "description": {
        "original_name": "Description",
        "value": "Solid; [Merck Index] Drab green solid; [NTP] Grey powder; [Sigma-Aldrich MSDS]",
        "links": [],
        "cross_references": []
      },
      "sourcesuses": {
        "original_name": "Sources/Uses",
        "value": "Used as a reagent in analytical chemistry (in the hydrochloride form); [Merck Index]",
        "links": [],
        "cross_references": []
      },
      "comments": {
        "original_name": "Comments",
        "value": "Causes irritability and acute pulmonary edema in inhalation lethal-concentration studies of mice; [RTECS] May cause irritation; Toxic by inhalation; Harmful by ingestion and skin absorption; Targets the kidney; [Sigma-Aldrich MSDS] See \"N,N-Diethyl-p-phenylenediamine.\"",
        "links": [],
        "cross_references": [
          {
            "type": "name_match",
            "text": "irritability",
            "confidence": 1.0,
            "uuid": "46ff168f-7493-4b76-a1f2-6b5532a36d29",
            "name": "irritability",
            "url": "https://haz-map.com/Findings/65",
            "category": "findings"
          },
          {
            "type": "name_match",
            "text": "pulmonary edema",
            "confidence": 1.0,
            "uuid": "ee39114e-c922-40fd-9588-a532de404962",
            "name": "pulmonary edema",
            "url": "https://haz-map.com/Findings/186",
            "category": "findings"
          },
          {
            "type": "name_match",
            "text": "p-phenylenediamine",
            "confidence": 1.0,
            "uuid": "6eea604e-32b5-4d94-9c0d-591b37a6c204",
            "name": "p-Phenylenediamine",
            "url": "https://haz-map.com/Agents/229",
            "category": "agents"
          },
          {
            "type": "name_match",
            "text": "n,n-diethyl-p-phenylenediamine",
            "confidence": 1.0,
            "uuid": "4503239f-ab1c-4e33-becb-69ddbe6052ec",
            "name": "N,N-Diethyl-p-phenylenediamine",
            "url": "https://haz-map.com/Agents/6371",
            "category": "agents"
          }
        ]
      },
      "biomedical_references": {
        "original_name": "Biomedical References",
        "value": "Search PubMed",
        "links": [
          {
            "text": "Search PubMed",
            "url": "https://www.ncbi.nlm.nih.gov/pubmed?term=Tetramethyl-p-phenylenediamine%20AND%20human%5Bmh%5D%20AND%20%28Occupational%20Diseases%20%5Bmh%5D%20OR%20Occupational%20Exposure%20%5Bmh%5D%29%20%20AND%20%28tox%5Bsb%5D%29&cmd=search"
          }
        ],
        "cross_references": []
      }
    },
    "exposure_assessment": {
      "vapor_pressure": {
        "original_name": "Vapor Pressure",
        "value": "0.077 mm Hg",
        "links": [],
        "cross_references": []
      },
      "lethal_concentration": {
        "original_name": "Lethal Concentration",
        "value": "LCLo (mouse) = 780 mg/m3/10min",
        "links": [],
        "cross_references": []
      },
      "explanatory_notes": {
        "original_name": "Explanatory Notes",
        "value": "VP from ChemIDplus;",
        "links": [],
        "cross_references": []
      }
    },
    "diseases_processes_and_activities_linked_to_this_agent": {
      "other_information": {
        "original_name": "Other Information",
        "value": "No other related information on this agent was found.",
        "links": [],
        "cross_references": []
      }
    }
  },
  "cross_references": [
    {
      "type": "name_match",
      "text": "irritability",
      "confidence": 1.0,
      "uuid": "46ff168f-7493-4b76-a1f2-6b5532a36d29",
      "name": "irritability",
      "url": "https://haz-map.com/Findings/65",
      "category": "findings"
    },
    {
      "type": "name_match",
      "text": "pulmonary edema",
      "confidence": 1.0,
      "uuid": "ee39114e-c922-40fd-9588-a532de404962",
      "name": "pulmonary edema",
      "url": "https://haz-map.com/Findings/186",
      "category": "findings"
    },
    {
      "type": "name_match",
      "text": "benzene",
      "confidence": 1.0,
      "uuid": "b05124de-5f34-4c14-8f04-ccb20c3780d9",
      "name": "Benzene",
      "url": "https://haz-map.com/Agents/5",
      "category": "agents"
    },
    {
      "type": "name_match",
      "text": "p-phenylenediamine",
      "confidence": 1.0,
      "uuid": "6eea604e-32b5-4d94-9c0d-591b37a6c204",
      "name": "p-Phenylenediamine",
      "url": "https://haz-map.com/Agents/229",
      "category": "agents"
    },
    {
      "type": "name_match",
      "text": "nitrogen",
      "confidence": 1.0,
      "uuid": "db5e90a9-06d2-45b9-8b81-f345a89b0bc0",
      "name": "Nitrogen",
      "url": "https://haz-map.com/Agents/1072",
      "category": "agents"
    },
    {
      "type": "name_match",
      "text": "n,n-diethyl-p-phenylenediamine",
      "confidence": 1.0,
      "uuid": "4503239f-ab1c-4e33-becb-69ddbe6052ec",
      "name": "N,N-Diethyl-p-phenylenediamine",
      "url": "https://haz-map.com/Agents/6371",
      "category": "agents"
    },
    {
      "type": "name_match",
      "text": "tetramethyl-p-phenylenediamine",
      "confidence": 1.0,
      "uuid": "aadc0316-a820-43f2-a454-3bba33985b4b",
      "name": "Tetramethyl-p-phenylenediamine",
      "url": "https://haz-map.com/Agents/15749",
      "category": "agents"
    }
  ],
  "all_links": [
    {
      "text": "Search PubMed",
      "url": "https://www.ncbi.nlm.nih.gov/pubmed?term=Tetramethyl-p-phenylenediamine%20AND%20human%5Bmh%5D%20AND%20%28Occupational%20Diseases%20%5Bmh%5D%20OR%20Occupational%20Exposure%20%5Bmh%5D%29%20%20AND%20%28tox%5Bsb%5D%29&cmd=search"
    }
  ]
}