{
  "metadata": {
    "scraped_from": "https://haz-map.com/Agents/16894",
    "entity_name": "Potassium xanthogenate",
    "category": "agents",
    "uuid": "aafe9699-61c7-4855-a75d-3ed54a56b610",
    "scraped_at": "2025-07-23T21:42:00.313616"
  },
  "parsed_at": "2025-07-24T01:11:39.769004",
  "title": "Potassium xanthogenate",
  "sections": {
    "general": {
      "agent_name": {
        "original_name": "Agent Name",
        "value": "Potassium xanthogenate",
        "links": [],
        "cross_references": [
          {
            "type": "name_match",
            "text": "potassium",
            "confidence": 1.0,
            "uuid": "41542f50-8311-43c8-9ec6-078665bee9df",
            "name": "Potassium",
            "url": "https://haz-map.com/Agents/1526",
            "category": "agents"
          },
          {
            "type": "name_match",
            "text": "potassium xanthogenate",
            "confidence": 1.0,
            "uuid": "aafe9699-61c7-4855-a75d-3ed54a56b610",
            "name": "Potassium xanthogenate",
            "url": "https://haz-map.com/Agents/16894",
            "category": "agents"
          }
        ]
      },
      "cas_number": {
        "original_name": "CAS Number",
        "value": "140-89-6",
        "links": [],
        "cross_references": []
      },
      "formula": {
        "original_name": "Formula",
        "value": "C3-H6-O-S2.K",
        "links": [],
        "cross_references": []
      },
      "major_category": {
        "original_name": "Major Category",
        "value": "Metals",
        "links": [],
        "cross_references": []
      },
      "synonyms": {
        "original_name": "Synonyms",
        "value": "(O-Ethyl dithiocarbonato)potassium; Ethyl potassium xanthate; Ethyl potassium xanthogenate; Ethylxanthic acid potassium salt; O-Ethyl potassium dithiocarbonate; PEK; Potassium O-ethyl dithiocarbonate; Potassium ethyl dithiocarbonate; Potassium ethyl xanthate; Potassium ethyl xanthogenate; Potassium ethylxanthate; Potassium ethylxanthogenate; Potassium xanthate; Xanthic acid, ethyl-, potassium salt; Z 3 (Pesticide); Z 3 (VAN); Z3; Carbonic acid, dithio-, O-ethyl ester, potassium salt; Carbonodithioic acid, O-ethyl ester, potassium salt; [ChemIDplus]",
        "links": [],
        "cross_references": [
          {
            "type": "name_match",
            "text": "potassium",
            "confidence": 1.0,
            "uuid": "41542f50-8311-43c8-9ec6-078665bee9df",
            "name": "Potassium",
            "url": "https://haz-map.com/Agents/1526",
            "category": "agents"
          },
          {
            "type": "name_match",
            "text": "carbon",
            "confidence": 1.0,
            "uuid": "b53f8815-ee80-40ef-b4aa-3b000e17dab5",
            "name": "Carbon",
            "url": "https://haz-map.com/Agents/1891",
            "category": "agents"
          },
          {
            "type": "name_match",
            "text": "carbonic acid",
            "confidence": 1.0,
            "uuid": "3ab00515-332f-4177-a200-79dd593298a4",
            "name": "Carbonic acid",
            "url": "https://haz-map.com/Agents/12760",
            "category": "agents"
          },
          {
            "type": "name_match",
            "text": "potassium xanthogenate",
            "confidence": 1.0,
            "uuid": "aafe9699-61c7-4855-a75d-3ed54a56b610",
            "name": "Potassium xanthogenate",
            "url": "https://haz-map.com/Agents/16894",
            "category": "agents"
          },
          {
            "type": "name_match",
            "text": "ethylxanthate",
            "confidence": 1.0,
            "uuid": "11849935-0171-42ed-8933-0abae5f72cea",
            "name": "Ethylxanthate",
            "url": "https://haz-map.com/Agents/20879",
            "category": "agents"
          }
        ]
      },
      "category": {
        "original_name": "Category",
        "value": "Organic Acids, Metal Salts",
        "links": [],
        "cross_references": []
      },
      "description": {
        "original_name": "Description",
        "value": "White to light yellow solid; [Merck Index] Light yellow powder with an unpleasant odor; [Alfa Aesar MSDS]",
        "links": [],
        "cross_references": [
          {
            "type": "name_match",
            "text": "ht",
            "confidence": 1.0,
            "uuid": "764df367-8d53-4a11-81a2-31ccfe122a8d",
            "name": "HT",
            "url": "https://haz-map.com/Agents/2168",
            "category": "agents"
          }
        ]
      },
      "sourcesuses": {
        "original_name": "Sources/Uses",
        "value": "Used as a reagent in analytical chemistry; [Merck Index]",
        "links": [],
        "cross_references": []
      },
      "comments": {
        "original_name": "Comments",
        "value": "Causes somnolence and respiratory depression in oral lethal-dose studies of mice; Causes excitement and muscle contraction or spasticity in oral lethal-dose studies of rats; Causes changes in erythrocyte counts in 26-week oral studies of rats; [RTECS] A skin and strong eye irritant; Toxic by ingestion; [Alfa Aesar MSDS]",
        "links": [],
        "cross_references": []
      },
      "biomedical_references": {
        "original_name": "Biomedical References",
        "value": "Search PubMed",
        "links": [
          {
            "text": "Search PubMed",
            "url": "https://www.ncbi.nlm.nih.gov/pubmed?term=Potassium+xanthogenate%20AND%20human%5Bmh%5D%20AND%20%28Occupational%20Diseases%20%5Bmh%5D%20OR%20Occupational%20Exposure%20%5Bmh%5D%29%20%20AND%20%28tox%5Bsb%5D%29&cmd=search"
          }
        ],
        "cross_references": []
      }
    },
    "exposure_assessment": {
      "vapor_pressure": {
        "original_name": "Vapor Pressure",
        "value": "3.95E-09 mm Hg",
        "links": [],
        "cross_references": []
      }
    },
    "diseases_processes_and_activities_linked_to_this_agent": {
      "other_information": {
        "original_name": "Other Information",
        "value": "No other related information on this agent was found.",
        "links": [],
        "cross_references": []
      }
    }
  },
  "cross_references": [
    {
      "type": "name_match",
      "text": "potassium",
      "confidence": 1.0,
      "uuid": "41542f50-8311-43c8-9ec6-078665bee9df",
      "name": "Potassium",
      "url": "https://haz-map.com/Agents/1526",
      "category": "agents"
    },
    {
      "type": "name_match",
      "text": "carbon",
      "confidence": 1.0,
      "uuid": "b53f8815-ee80-40ef-b4aa-3b000e17dab5",
      "name": "Carbon",
      "url": "https://haz-map.com/Agents/1891",
      "category": "agents"
    },
    {
      "type": "name_match",
      "text": "ht",
      "confidence": 1.0,
      "uuid": "764df367-8d53-4a11-81a2-31ccfe122a8d",
      "name": "HT",
      "url": "https://haz-map.com/Agents/2168",
      "category": "agents"
    },
    {
      "type": "name_match",
      "text": "carbonic acid",
      "confidence": 1.0,
      "uuid": "3ab00515-332f-4177-a200-79dd593298a4",
      "name": "Carbonic acid",
      "url": "https://haz-map.com/Agents/12760",
      "category": "agents"
    },
    {
      "type": "name_match",
      "text": "potassium xanthogenate",
      "confidence": 1.0,
      "uuid": "aafe9699-61c7-4855-a75d-3ed54a56b610",
      "name": "Potassium xanthogenate",
      "url": "https://haz-map.com/Agents/16894",
      "category": "agents"
    },
    {
      "type": "name_match",
      "text": "ethylxanthate",
      "confidence": 1.0,
      "uuid": "11849935-0171-42ed-8933-0abae5f72cea",
      "name": "Ethylxanthate",
      "url": "https://haz-map.com/Agents/20879",
      "category": "agents"
    }
  ],
  "all_links": [
    {
      "text": "Search PubMed",
      "url": "https://www.ncbi.nlm.nih.gov/pubmed?term=Potassium+xanthogenate%20AND%20human%5Bmh%5D%20AND%20%28Occupational%20Diseases%20%5Bmh%5D%20OR%20Occupational%20Exposure%20%5Bmh%5D%29%20%20AND%20%28tox%5Bsb%5D%29&cmd=search"
    }
  ]
}