{
  "metadata": {
    "scraped_from": "https://haz-map.com/Agents/19167",
    "entity_name": "1,1,3,3-Tetramethylguanidine",
    "category": "agents",
    "uuid": "ab209d72-ecbd-4066-b7a2-ba792c46d570",
    "scraped_at": "2025-07-23T22:00:41.244020"
  },
  "parsed_at": "2025-07-24T01:04:40.055012",
  "title": "1,1,3,3-Tetramethylguanidine",
  "sections": {
    "general": {
      "agent_name": {
        "original_name": "Agent Name",
        "value": "1,1,3,3-Tetramethylguanidine",
        "links": [],
        "cross_references": [
          {
            "type": "name_match",
            "text": "guanidine",
            "confidence": 1.0,
            "uuid": "0569bc2f-9177-43a3-a8fc-30683a513f3d",
            "name": "Guanidine",
            "url": "https://haz-map.com/Agents/14472",
            "category": "agents"
          },
          {
            "type": "name_match",
            "text": "1,1,3,3-tetramethylguanidine",
            "confidence": 1.0,
            "uuid": "ab209d72-ecbd-4066-b7a2-ba792c46d570",
            "name": "1,1,3,3-Tetramethylguanidine",
            "url": "https://haz-map.com/Agents/19167",
            "category": "agents"
          },
          {
            "type": "name_match",
            "text": "methylguanidine",
            "confidence": 1.0,
            "uuid": "e284041f-f4ca-4d7b-a3c0-e3ff1c8930a4",
            "name": "Methylguanidine",
            "url": "https://haz-map.com/Agents/21158",
            "category": "agents"
          }
        ]
      },
      "cas_number": {
        "original_name": "CAS Number",
        "value": "80-70-6",
        "links": [],
        "cross_references": []
      },
      "formula": {
        "original_name": "Formula",
        "value": "C5-H13-N3",
        "links": [],
        "cross_references": []
      },
      "major_category": {
        "original_name": "Major Category",
        "value": "Nitrogen Compounds",
        "links": [],
        "cross_references": [
          {
            "type": "name_match",
            "text": "nitrogen",
            "confidence": 1.0,
            "uuid": "db5e90a9-06d2-45b9-8b81-f345a89b0bc0",
            "name": "Nitrogen",
            "url": "https://haz-map.com/Agents/1072",
            "category": "agents"
          }
        ]
      },
      "synonyms": {
        "original_name": "Synonyms",
        "value": "N,N,N',N'-Tetramethylguanidine; Guanidine, 1,1,3,3-tetramethyl- (8CI); Guanidine, N,N,N',N'-tetramethyl-; [ChemIDplus] TMG; [Merck Index] UN2920",
        "links": [],
        "cross_references": [
          {
            "type": "name_match",
            "text": "guanidine",
            "confidence": 1.0,
            "uuid": "0569bc2f-9177-43a3-a8fc-30683a513f3d",
            "name": "Guanidine",
            "url": "https://haz-map.com/Agents/14472",
            "category": "agents"
          },
          {
            "type": "name_match",
            "text": "methylguanidine",
            "confidence": 1.0,
            "uuid": "e284041f-f4ca-4d7b-a3c0-e3ff1c8930a4",
            "name": "Methylguanidine",
            "url": "https://haz-map.com/Agents/21158",
            "category": "agents"
          }
        ]
      },
      "category": {
        "original_name": "Category",
        "value": "Other Nitrogen Compounds",
        "links": [],
        "cross_references": [
          {
            "type": "name_match",
            "text": "nitrogen",
            "confidence": 1.0,
            "uuid": "db5e90a9-06d2-45b9-8b81-f345a89b0bc0",
            "name": "Nitrogen",
            "url": "https://haz-map.com/Agents/1072",
            "category": "agents"
          }
        ]
      },
      "description": {
        "original_name": "Description",
        "value": "Colorless liquid; [Merck Index]",
        "links": [],
        "cross_references": []
      },
      "sourcesuses": {
        "original_name": "Sources/Uses",
        "value": "Used as a reagent in synthetic organic chemistry; [Merck Index]",
        "links": [],
        "cross_references": []
      },
      "comments": {
        "original_name": "Comments",
        "value": "Corrosive; [Merck Index] Causes burns; Inhalation may cause corrosive injuries to upper respiratory tract and lungs; Toxic by ingestion; [Alfa Aesar MSDS] See \"Guanidine.\"",
        "links": [],
        "cross_references": [
          {
            "type": "name_match",
            "text": "burn",
            "confidence": 1.0,
            "uuid": "63665de5-6376-4918-8dbf-4c10c4d63837",
            "name": "burn",
            "url": "https://haz-map.com/Findings/204",
            "category": "findings"
          },
          {
            "type": "name_match",
            "text": "guanidine",
            "confidence": 1.0,
            "uuid": "0569bc2f-9177-43a3-a8fc-30683a513f3d",
            "name": "Guanidine",
            "url": "https://haz-map.com/Agents/14472",
            "category": "agents"
          }
        ]
      },
      "biomedical_references": {
        "original_name": "Biomedical References",
        "value": "Search PubMed",
        "links": [
          {
            "text": "Search PubMed",
            "url": "https://www.ncbi.nlm.nih.gov/pubmed?term=1%2c1%2c3%2c3-Tetramethylguanidine%20AND%20human%5Bmh%5D%20AND%20%28Occupational%20Diseases%20%5Bmh%5D%20OR%20Occupational%20Exposure%20%5Bmh%5D%29%20%20AND%20%28tox%5Bsb%5D%29&cmd=search"
          }
        ],
        "cross_references": []
      }
    },
    "exposure_assessment": {
      "vapor_pressure": {
        "original_name": "Vapor Pressure",
        "value": "2.13 mm Hg",
        "links": [],
        "cross_references": []
      },
      "explanatory_notes": {
        "original_name": "Explanatory Notes",
        "value": "The Guide in the Emergency Response Guidebook is for \"Corrosive liquid, flammable, n.o.s.\"",
        "links": [],
        "cross_references": []
      }
    },
    "adverse_effects": {
      "toxic_pneumonitis": {
        "original_name": "Toxic Pneumonitis",
        "value": "Yes",
        "links": [],
        "cross_references": []
      },
      "dermatotoxin": {
        "original_name": "Dermatotoxin",
        "value": "Skin burns",
        "links": [],
        "cross_references": [
          {
            "type": "name_match",
            "text": "burn",
            "confidence": 1.0,
            "uuid": "63665de5-6376-4918-8dbf-4c10c4d63837",
            "name": "burn",
            "url": "https://haz-map.com/Findings/204",
            "category": "findings"
          }
        ]
      }
    },
    "diseases_processes_and_activities_linked_to_this_agent": {
      "other_information": {
        "original_name": "Other Information",
        "value": "No other related information on this agent was found.",
        "links": [],
        "cross_references": []
      }
    }
  },
  "cross_references": [
    {
      "type": "name_match",
      "text": "burn",
      "confidence": 1.0,
      "uuid": "63665de5-6376-4918-8dbf-4c10c4d63837",
      "name": "burn",
      "url": "https://haz-map.com/Findings/204",
      "category": "findings"
    },
    {
      "type": "name_match",
      "text": "nitrogen",
      "confidence": 1.0,
      "uuid": "db5e90a9-06d2-45b9-8b81-f345a89b0bc0",
      "name": "Nitrogen",
      "url": "https://haz-map.com/Agents/1072",
      "category": "agents"
    },
    {
      "type": "name_match",
      "text": "guanidine",
      "confidence": 1.0,
      "uuid": "0569bc2f-9177-43a3-a8fc-30683a513f3d",
      "name": "Guanidine",
      "url": "https://haz-map.com/Agents/14472",
      "category": "agents"
    },
    {
      "type": "name_match",
      "text": "1,1,3,3-tetramethylguanidine",
      "confidence": 1.0,
      "uuid": "ab209d72-ecbd-4066-b7a2-ba792c46d570",
      "name": "1,1,3,3-Tetramethylguanidine",
      "url": "https://haz-map.com/Agents/19167",
      "category": "agents"
    },
    {
      "type": "name_match",
      "text": "methylguanidine",
      "confidence": 1.0,
      "uuid": "e284041f-f4ca-4d7b-a3c0-e3ff1c8930a4",
      "name": "Methylguanidine",
      "url": "https://haz-map.com/Agents/21158",
      "category": "agents"
    }
  ],
  "all_links": [
    {
      "text": "Search PubMed",
      "url": "https://www.ncbi.nlm.nih.gov/pubmed?term=1%2c1%2c3%2c3-Tetramethylguanidine%20AND%20human%5Bmh%5D%20AND%20%28Occupational%20Diseases%20%5Bmh%5D%20OR%20Occupational%20Exposure%20%5Bmh%5D%29%20%20AND%20%28tox%5Bsb%5D%29&cmd=search"
    }
  ]
}