{
  "metadata": {
    "scraped_from": "https://haz-map.com/Agents/11501",
    "entity_name": "(E)-4-Methylpent-2-ene",
    "category": "agents",
    "uuid": "ab23a5ea-9a16-4e0a-a20d-2cd5ad90591e",
    "scraped_at": "2025-07-23T21:00:10.512027"
  },
  "parsed_at": "2025-07-24T00:50:49.588882",
  "title": "(E)-4-Methylpent-2-ene",
  "sections": {
    "general": {
      "agent_name": {
        "original_name": "Agent Name",
        "value": "(E)-4-Methylpent-2-ene",
        "links": [],
        "cross_references": [
          {
            "type": "name_match",
            "text": "4-methylpent-2-ene",
            "confidence": 1.0,
            "uuid": "f13cadfe-183f-4b83-a51c-d167c9b0a08a",
            "name": "4-Methylpent-2-ene",
            "url": "https://haz-map.com/Agents/11500",
            "category": "agents"
          },
          {
            "type": "name_match",
            "text": "(e)-4-methylpent-2-ene",
            "confidence": 1.0,
            "uuid": "ab23a5ea-9a16-4e0a-a20d-2cd5ad90591e",
            "name": "(E)-4-Methylpent-2-ene",
            "url": "https://haz-map.com/Agents/11501",
            "category": "agents"
          }
        ]
      },
      "cas_number": {
        "original_name": "CAS Number",
        "value": "674-76-0",
        "links": [],
        "cross_references": []
      },
      "formula": {
        "original_name": "Formula",
        "value": "C6-H12",
        "links": [],
        "cross_references": []
      },
      "major_category": {
        "original_name": "Major Category",
        "value": "Other Classes",
        "links": [],
        "cross_references": []
      },
      "synonyms": {
        "original_name": "Synonyms",
        "value": "2-Pentene, 4-methyl-, (E)-; [ChemIDplus] trans-4-Methyl-2-pentene; [Sigma-Aldrich MSDS] UN3295",
        "links": [],
        "cross_references": [
          {
            "type": "name_match",
            "text": "pentene",
            "confidence": 1.0,
            "uuid": "8a79e71e-e90a-4993-a702-7b2bacae6310",
            "name": "Pentene",
            "url": "https://haz-map.com/Agents/6584",
            "category": "agents"
          }
        ]
      },
      "category": {
        "original_name": "Category",
        "value": "Aliphatics, Unsaturated",
        "links": [],
        "cross_references": []
      },
      "description": {
        "original_name": "Description",
        "value": "Liquid; [Sigma-Aldrich MSDS]",
        "links": [],
        "cross_references": []
      },
      "comments": {
        "original_name": "Comments",
        "value": "An irritant; An aspiration hazard by ingestion (may cause lung damage); [Sigma-Aldrich MSDS] See \"1-Pentene, 3,4-dimethyl-.\"",
        "links": [],
        "cross_references": [
          {
            "type": "name_match",
            "text": "1-pentene",
            "confidence": 1.0,
            "uuid": "fb5ff9a7-52d9-4c0c-a462-090f2c7e657f",
            "name": "1-Pentene",
            "url": "https://haz-map.com/Agents/2918",
            "category": "agents"
          },
          {
            "type": "name_match",
            "text": "pentene",
            "confidence": 1.0,
            "uuid": "8a79e71e-e90a-4993-a702-7b2bacae6310",
            "name": "Pentene",
            "url": "https://haz-map.com/Agents/6584",
            "category": "agents"
          },
          {
            "type": "name_match",
            "text": "1-pentene, 3,4-dimethyl-",
            "confidence": 1.0,
            "uuid": "5390c327-f3c8-46c6-ad02-5deab500d8a9",
            "name": "1-Pentene, 3,4-dimethyl-",
            "url": "https://haz-map.com/Agents/10637",
            "category": "agents"
          }
        ]
      },
      "biomedical_references": {
        "original_name": "Biomedical References",
        "value": "Search PubMed",
        "links": [
          {
            "text": "Search PubMed",
            "url": "https://www.ncbi.nlm.nih.gov/pubmed?term=(E)-4-Methylpent-2-ene%20AND%20human%5Bmh%5D%20AND%20%28Occupational%20Diseases%20%5Bmh%5D%20OR%20Occupational%20Exposure%20%5Bmh%5D%29%20%20AND%20%28tox%5Bsb%5D%29&cmd=search"
          }
        ],
        "cross_references": []
      }
    },
    "exposure_assessment": {
      "vapor_pressure": {
        "original_name": "Vapor Pressure",
        "value": "223 mm Hg",
        "links": [],
        "cross_references": []
      },
      "explanatory_notes": {
        "original_name": "Explanatory Notes",
        "value": "The Guide in the Emergency Response Guidebook is for \"Hydrocarbons, liquid, n.o.s.\" VP from ChemIDplus;",
        "links": [],
        "cross_references": [
          {
            "type": "name_match",
            "text": "carbon",
            "confidence": 1.0,
            "uuid": "b53f8815-ee80-40ef-b4aa-3b000e17dab5",
            "name": "Carbon",
            "url": "https://haz-map.com/Agents/1891",
            "category": "agents"
          },
          {
            "type": "fuzzy_match",
            "text": "hydrocarbons",
            "matched_name": "Hydrocarbons, C>3",
            "confidence": 0.7100840336134454,
            "uuid": "8eaa37ac-3931-44e4-9242-2734127fd661",
            "category": "agents",
            "url": "https://haz-map.com/Agents/14795"
          }
        ]
      }
    },
    "adverse_effects": {
      "neurotoxin": {
        "original_name": "Neurotoxin",
        "value": "Acute solvent syndrome",
        "links": [],
        "cross_references": []
      }
    },
    "diseases_processes_and_activities_linked_to_this_agent": {
      "diseases": {
        "original_name": "Diseases",
        "value": "Occupational diseases associated with exposure to this agent: Solvents, acute toxic effect",
        "links": [
          {
            "text": "Solvents, acute toxic effect",
            "url": "https://haz-map.com/Diseases/326"
          }
        ],
        "cross_references": [
          {
            "type": "url_match",
            "text": "Solvents, acute toxic effect",
            "url": "https://haz-map.com/Diseases/326",
            "confidence": 1.0,
            "uuid": "581e90e3-9d0c-45f0-aa6c-3468c28da129",
            "name": "Solvents, acute toxic effect",
            "category": "diseases"
          }
        ]
      }
    }
  },
  "cross_references": [
    {
      "type": "url_match",
      "text": "Solvents, acute toxic effect",
      "url": "https://haz-map.com/Diseases/326",
      "confidence": 1.0,
      "uuid": "581e90e3-9d0c-45f0-aa6c-3468c28da129",
      "name": "Solvents, acute toxic effect",
      "category": "diseases"
    },
    {
      "type": "name_match",
      "text": "carbon",
      "confidence": 1.0,
      "uuid": "b53f8815-ee80-40ef-b4aa-3b000e17dab5",
      "name": "Carbon",
      "url": "https://haz-map.com/Agents/1891",
      "category": "agents"
    },
    {
      "type": "name_match",
      "text": "1-pentene",
      "confidence": 1.0,
      "uuid": "fb5ff9a7-52d9-4c0c-a462-090f2c7e657f",
      "name": "1-Pentene",
      "url": "https://haz-map.com/Agents/2918",
      "category": "agents"
    },
    {
      "type": "name_match",
      "text": "pentene",
      "confidence": 1.0,
      "uuid": "8a79e71e-e90a-4993-a702-7b2bacae6310",
      "name": "Pentene",
      "url": "https://haz-map.com/Agents/6584",
      "category": "agents"
    },
    {
      "type": "name_match",
      "text": "1-pentene, 3,4-dimethyl-",
      "confidence": 1.0,
      "uuid": "5390c327-f3c8-46c6-ad02-5deab500d8a9",
      "name": "1-Pentene, 3,4-dimethyl-",
      "url": "https://haz-map.com/Agents/10637",
      "category": "agents"
    },
    {
      "type": "name_match",
      "text": "4-methylpent-2-ene",
      "confidence": 1.0,
      "uuid": "f13cadfe-183f-4b83-a51c-d167c9b0a08a",
      "name": "4-Methylpent-2-ene",
      "url": "https://haz-map.com/Agents/11500",
      "category": "agents"
    },
    {
      "type": "name_match",
      "text": "(e)-4-methylpent-2-ene",
      "confidence": 1.0,
      "uuid": "ab23a5ea-9a16-4e0a-a20d-2cd5ad90591e",
      "name": "(E)-4-Methylpent-2-ene",
      "url": "https://haz-map.com/Agents/11501",
      "category": "agents"
    },
    {
      "type": "fuzzy_match",
      "text": "hydrocarbons",
      "matched_name": "Hydrocarbons, C>3",
      "confidence": 0.7100840336134454,
      "uuid": "8eaa37ac-3931-44e4-9242-2734127fd661",
      "category": "agents",
      "url": "https://haz-map.com/Agents/14795"
    }
  ],
  "all_links": [
    {
      "text": "Search PubMed",
      "url": "https://www.ncbi.nlm.nih.gov/pubmed?term=(E)-4-Methylpent-2-ene%20AND%20human%5Bmh%5D%20AND%20%28Occupational%20Diseases%20%5Bmh%5D%20OR%20Occupational%20Exposure%20%5Bmh%5D%29%20%20AND%20%28tox%5Bsb%5D%29&cmd=search"
    },
    {
      "text": "Solvents, acute toxic effect",
      "url": "https://haz-map.com/Diseases/326"
    }
  ]
}