{
  "metadata": {
    "scraped_from": "https://haz-map.com/Agents/17425",
    "entity_name": "Tetraethylene glycol dimethyl ether",
    "category": "agents",
    "uuid": "ab5bde18-1326-456b-bcd3-a3b3a2fa4bd5",
    "scraped_at": "2025-07-23T21:46:26.491838"
  },
  "parsed_at": "2025-07-24T01:06:13.219978",
  "title": "Tetraethylene glycol dimethyl ether",
  "sections": {
    "general": {
      "agent_name": {
        "original_name": "Agent Name",
        "value": "Tetraethylene glycol dimethyl ether",
        "links": [],
        "cross_references": [
          {
            "type": "name_match",
            "text": "ethyl ether",
            "confidence": 1.0,
            "uuid": "c95edddc-9ad3-44f8-bafa-78e0bd19db3a",
            "name": "Ethyl ether",
            "url": "https://haz-map.com/Agents/455",
            "category": "agents"
          },
          {
            "type": "name_match",
            "text": "ethylene glycol",
            "confidence": 1.0,
            "uuid": "99589035-d71c-415a-914c-81c7a166be11",
            "name": "Ethylene glycol",
            "url": "https://haz-map.com/Agents/488",
            "category": "agents"
          },
          {
            "type": "name_match",
            "text": "ethylene",
            "confidence": 1.0,
            "uuid": "958eacc0-5135-4b62-bb93-6df972bf552f",
            "name": "Ethylene",
            "url": "https://haz-map.com/Agents/1076",
            "category": "agents"
          },
          {
            "type": "name_match",
            "text": "dimethyl ether",
            "confidence": 1.0,
            "uuid": "a12a0b82-a115-4243-98a7-3e9a2c4700ed",
            "name": "Dimethyl ether",
            "url": "https://haz-map.com/Agents/1483",
            "category": "agents"
          },
          {
            "type": "name_match",
            "text": "tetraethylene glycol",
            "confidence": 1.0,
            "uuid": "ce31886e-fc50-4f98-a424-36a6201722a1",
            "name": "Tetraethylene glycol",
            "url": "https://haz-map.com/Agents/7348",
            "category": "agents"
          },
          {
            "type": "name_match",
            "text": "tetraethylene glycol dimethyl ether",
            "confidence": 1.0,
            "uuid": "ab5bde18-1326-456b-bcd3-a3b3a2fa4bd5",
            "name": "Tetraethylene glycol dimethyl ether",
            "url": "https://haz-map.com/Agents/17425",
            "category": "agents"
          }
        ]
      },
      "alternative_name": {
        "original_name": "Alternative Name",
        "value": "Tetraglyme",
        "links": [],
        "cross_references": []
      },
      "cas_number": {
        "original_name": "CAS Number",
        "value": "143-24-8",
        "links": [],
        "cross_references": []
      },
      "formula": {
        "original_name": "Formula",
        "value": "C10-H22-O5",
        "links": [],
        "cross_references": []
      },
      "major_category": {
        "original_name": "Major Category",
        "value": "Solvents",
        "links": [],
        "cross_references": []
      },
      "synonyms": {
        "original_name": "Synonyms",
        "value": "Ansul Ether 181AT; Bis(2-(2-methoxyethoxy)ethyl) ether; Dimethoxytetraethylene glycol; Dimethoxytetraglycol; E181 (Ether); Ether, bis(2-(2-methoxyethoxy)ethyl); Glyme 5; Methyltetraglyme200; Nissan Uniox MM 200; Tetraglyme; 2,5,8,11,14-Pentaoxapentadecane; [ChemIDplus] Dimethyltetraglycol; [Sigma-Aldrich MSDS]",
        "links": [],
        "cross_references": [
          {
            "type": "name_match",
            "text": "ethylene glycol",
            "confidence": 1.0,
            "uuid": "99589035-d71c-415a-914c-81c7a166be11",
            "name": "Ethylene glycol",
            "url": "https://haz-map.com/Agents/488",
            "category": "agents"
          },
          {
            "type": "name_match",
            "text": "ethylene",
            "confidence": 1.0,
            "uuid": "958eacc0-5135-4b62-bb93-6df972bf552f",
            "name": "Ethylene",
            "url": "https://haz-map.com/Agents/1076",
            "category": "agents"
          },
          {
            "type": "name_match",
            "text": "pentadecane",
            "confidence": 1.0,
            "uuid": "c94bad99-ad05-4452-a705-4d5deee091ba",
            "name": "Pentadecane",
            "url": "https://haz-map.com/Agents/1786",
            "category": "agents"
          },
          {
            "type": "name_match",
            "text": "tetraethylene glycol",
            "confidence": 1.0,
            "uuid": "ce31886e-fc50-4f98-a424-36a6201722a1",
            "name": "Tetraethylene glycol",
            "url": "https://haz-map.com/Agents/7348",
            "category": "agents"
          }
        ]
      },
      "category": {
        "original_name": "Category",
        "value": "Glycol Ethers (Glymes)",
        "links": [],
        "cross_references": [
          {
            "type": "name_match",
            "text": "glycol ethers",
            "confidence": 1.0,
            "uuid": "753cf9f5-dc59-44ba-9fd6-38aca4a3cdac",
            "name": "GLYCOL ETHERS",
            "url": "https://haz-map.com/Agents/688",
            "category": "agents"
          }
        ]
      },
      "description": {
        "original_name": "Description",
        "value": "Liquid; [Merck Index] Clear colorless liquid; [Sigma-Aldrich MSDS]",
        "links": [],
        "cross_references": []
      },
      "sourcesuses": {
        "original_name": "Sources/Uses",
        "value": "Used as a solvent; [Merck Index]",
        "links": [],
        "cross_references": []
      },
      "comments": {
        "original_name": "Comments",
        "value": "A mild eye irritant; Causes somnolence and GI, kidney, and bladder changes in oral lethal-dose studies of rats; [RTECS] May form explosive peroxides on prolonged storage or contact with air; An eye irritant; [Sigma-Aldrich MSDS] See \"Monoglyme.\"",
        "links": [],
        "cross_references": [
          {
            "type": "name_match",
            "text": "dde",
            "confidence": 1.0,
            "uuid": "88506fb4-e7b1-4bde-a283-917057f67fc2",
            "name": "DDE",
            "url": "https://haz-map.com/Agents/4656",
            "category": "agents"
          }
        ]
      },
      "biomedical_references": {
        "original_name": "Biomedical References",
        "value": "Search PubMed",
        "links": [
          {
            "text": "Search PubMed",
            "url": "https://www.ncbi.nlm.nih.gov/pubmed?term=Tetraethylene+glycol+dimethyl+ether%20AND%20human%5Bmh%5D%20AND%20%28Occupational%20Diseases%20%5Bmh%5D%20OR%20Occupational%20Exposure%20%5Bmh%5D%29%20%20AND%20%28tox%5Bsb%5D%29&cmd=search"
          }
        ],
        "cross_references": []
      }
    },
    "exposure_assessment": {
      "explanatory_notes": {
        "original_name": "Explanatory Notes",
        "value": "Vapor pressure < 0.01 mm Hg at 20 deg C; [Sigma-Aldrich MSDS]",
        "links": [],
        "cross_references": []
      }
    },
    "adverse_effects": {
      "neurotoxin": {
        "original_name": "Neurotoxin",
        "value": "Acute solvent syndrome",
        "links": [],
        "cross_references": []
      }
    },
    "diseases_processes_and_activities_linked_to_this_agent": {
      "diseases": {
        "original_name": "Diseases",
        "value": "Occupational diseases associated with exposure to this agent: Solvents, acute toxic effect",
        "links": [
          {
            "text": "Solvents, acute toxic effect",
            "url": "https://haz-map.com/Diseases/326"
          }
        ],
        "cross_references": [
          {
            "type": "url_match",
            "text": "Solvents, acute toxic effect",
            "url": "https://haz-map.com/Diseases/326",
            "confidence": 1.0,
            "uuid": "581e90e3-9d0c-45f0-aa6c-3468c28da129",
            "name": "Solvents, acute toxic effect",
            "category": "diseases"
          }
        ]
      }
    }
  },
  "cross_references": [
    {
      "type": "url_match",
      "text": "Solvents, acute toxic effect",
      "url": "https://haz-map.com/Diseases/326",
      "confidence": 1.0,
      "uuid": "581e90e3-9d0c-45f0-aa6c-3468c28da129",
      "name": "Solvents, acute toxic effect",
      "category": "diseases"
    },
    {
      "type": "name_match",
      "text": "ethyl ether",
      "confidence": 1.0,
      "uuid": "c95edddc-9ad3-44f8-bafa-78e0bd19db3a",
      "name": "Ethyl ether",
      "url": "https://haz-map.com/Agents/455",
      "category": "agents"
    },
    {
      "type": "name_match",
      "text": "ethylene glycol",
      "confidence": 1.0,
      "uuid": "99589035-d71c-415a-914c-81c7a166be11",
      "name": "Ethylene glycol",
      "url": "https://haz-map.com/Agents/488",
      "category": "agents"
    },
    {
      "type": "name_match",
      "text": "glycol ethers",
      "confidence": 1.0,
      "uuid": "753cf9f5-dc59-44ba-9fd6-38aca4a3cdac",
      "name": "GLYCOL ETHERS",
      "url": "https://haz-map.com/Agents/688",
      "category": "agents"
    },
    {
      "type": "name_match",
      "text": "ethylene",
      "confidence": 1.0,
      "uuid": "958eacc0-5135-4b62-bb93-6df972bf552f",
      "name": "Ethylene",
      "url": "https://haz-map.com/Agents/1076",
      "category": "agents"
    },
    {
      "type": "name_match",
      "text": "dimethyl ether",
      "confidence": 1.0,
      "uuid": "a12a0b82-a115-4243-98a7-3e9a2c4700ed",
      "name": "Dimethyl ether",
      "url": "https://haz-map.com/Agents/1483",
      "category": "agents"
    },
    {
      "type": "name_match",
      "text": "pentadecane",
      "confidence": 1.0,
      "uuid": "c94bad99-ad05-4452-a705-4d5deee091ba",
      "name": "Pentadecane",
      "url": "https://haz-map.com/Agents/1786",
      "category": "agents"
    },
    {
      "type": "name_match",
      "text": "dde",
      "confidence": 1.0,
      "uuid": "88506fb4-e7b1-4bde-a283-917057f67fc2",
      "name": "DDE",
      "url": "https://haz-map.com/Agents/4656",
      "category": "agents"
    },
    {
      "type": "name_match",
      "text": "tetraethylene glycol",
      "confidence": 1.0,
      "uuid": "ce31886e-fc50-4f98-a424-36a6201722a1",
      "name": "Tetraethylene glycol",
      "url": "https://haz-map.com/Agents/7348",
      "category": "agents"
    },
    {
      "type": "name_match",
      "text": "tetraethylene glycol dimethyl ether",
      "confidence": 1.0,
      "uuid": "ab5bde18-1326-456b-bcd3-a3b3a2fa4bd5",
      "name": "Tetraethylene glycol dimethyl ether",
      "url": "https://haz-map.com/Agents/17425",
      "category": "agents"
    }
  ],
  "all_links": [
    {
      "text": "Search PubMed",
      "url": "https://www.ncbi.nlm.nih.gov/pubmed?term=Tetraethylene+glycol+dimethyl+ether%20AND%20human%5Bmh%5D%20AND%20%28Occupational%20Diseases%20%5Bmh%5D%20OR%20Occupational%20Exposure%20%5Bmh%5D%29%20%20AND%20%28tox%5Bsb%5D%29&cmd=search"
    },
    {
      "text": "Solvents, acute toxic effect",
      "url": "https://haz-map.com/Diseases/326"
    }
  ]
}