{
  "metadata": {
    "scraped_from": "https://haz-map.com/Agents/6598",
    "entity_name": "Perfluorotributylamine",
    "category": "agents",
    "uuid": "ab6dd216-5fa9-43e6-8423-d78ae11f894e",
    "scraped_at": "2025-07-23T20:03:28.686591"
  },
  "parsed_at": "2025-07-24T00:55:02.281273",
  "title": "Perfluorotributylamine",
  "sections": {
    "general": {
      "agent_name": {
        "original_name": "Agent Name",
        "value": "Perfluorotributylamine",
        "links": [],
        "cross_references": [
          {
            "type": "name_match",
            "text": "perfluorotributylamine",
            "confidence": 1.0,
            "uuid": "ab6dd216-5fa9-43e6-8423-d78ae11f894e",
            "name": "Perfluorotributylamine",
            "url": "https://haz-map.com/Agents/6598",
            "category": "agents"
          },
          {
            "type": "name_match",
            "text": "tributylamine",
            "confidence": 1.0,
            "uuid": "4e066cd9-4dd7-4a81-890e-87e605906034",
            "name": "Tributylamine",
            "url": "https://haz-map.com/Agents/7512",
            "category": "agents"
          }
        ]
      },
      "cas_number": {
        "original_name": "CAS Number",
        "value": "311-89-7",
        "links": [],
        "cross_references": []
      },
      "formula": {
        "original_name": "Formula",
        "value": "C12-F27-N",
        "links": [],
        "cross_references": []
      },
      "major_category": {
        "original_name": "Major Category",
        "value": "Nitrogen Compounds",
        "links": [],
        "cross_references": [
          {
            "type": "name_match",
            "text": "nitrogen",
            "confidence": 1.0,
            "uuid": "db5e90a9-06d2-45b9-8b81-f345a89b0bc0",
            "name": "Nitrogen",
            "url": "https://haz-map.com/Agents/1072",
            "category": "agents"
          }
        ]
      },
      "synonyms": {
        "original_name": "Synonyms",
        "value": "FC 43; FC 47; Fluorinert FC 43; Fluorocarbon FC 43; Fluosol 43; Heptacosafluorotributylamine; Mediflor FC 43; Tri(nonafluorobutyl)amine; Tri(perfluorobutyl)amine; Tris(nonafluorobutyl)amine; 1,1,2,2,3,3,4,4,4-Nonafluoro-N,N-bis(nonafluorobutyl)-1-butanamine; 1-Butanamine, 1,1,2,2,3,3,4,4,4-nonafluoro-N,N-bis(1,1,2,2,3,3,4,4,4-nonafluorobutyl)-; 1-Butanamine, 1,1,2,2,3,3,4,4,4-nonafluoro-N,N-bis(nonafluorobutyl)-; Tributylamine, heptacosafluoro-; [ChemIDplus] Product Ha (3M); Product Hb (3M); [Reference #1]",
        "links": [],
        "cross_references": [
          {
            "type": "name_match",
            "text": "fluorine",
            "confidence": 1.0,
            "uuid": "bcff09a2-d008-4bb9-9ea2-9945e4426940",
            "name": "Fluorine",
            "url": "https://haz-map.com/Agents/494",
            "category": "agents"
          },
          {
            "type": "name_match",
            "text": "carbon",
            "confidence": 1.0,
            "uuid": "b53f8815-ee80-40ef-b4aa-3b000e17dab5",
            "name": "Carbon",
            "url": "https://haz-map.com/Agents/1891",
            "category": "agents"
          },
          {
            "type": "name_match",
            "text": "tributylamine",
            "confidence": 1.0,
            "uuid": "4e066cd9-4dd7-4a81-890e-87e605906034",
            "name": "Tributylamine",
            "url": "https://haz-map.com/Agents/7512",
            "category": "agents"
          }
        ]
      },
      "category": {
        "original_name": "Category",
        "value": "Halogenated Aliphatic Amines",
        "links": [],
        "cross_references": []
      },
      "description": {
        "original_name": "Description",
        "value": "Hygroscopic liquid; [HSDB] Colorless liquid; [MSDSonline]",
        "links": [],
        "cross_references": []
      },
      "sourcesuses": {
        "original_name": "Sources/Uses",
        "value": "C5-C18 Perfluoro compounds are specialty chemicals used in the electronics industry (heat-transfer in semiconductor processing, electronics testing, and solvents for computer disc drive lubrication); Also used as experimental oxygen carrying components in artificial blood and for vitreoretinal surgery; [HSDB]",
        "links": [],
        "cross_references": [
          {
            "type": "name_match",
            "text": "mica",
            "confidence": 1.0,
            "uuid": "433f26f1-c399-4596-b179-ce3843cfd465",
            "name": "Mica",
            "url": "https://haz-map.com/Agents/621",
            "category": "agents"
          },
          {
            "type": "name_match",
            "text": "oxygen",
            "confidence": 1.0,
            "uuid": "daf61849-c843-41a6-bdfb-880e4ee71d7f",
            "name": "Oxygen",
            "url": "https://haz-map.com/Agents/1564",
            "category": "agents"
          },
          {
            "type": "fuzzy_match",
            "text": "perfluoro compounds",
            "matched_name": "Perfluoro compounds, C5-18",
            "confidence": 0.7264957264957265,
            "uuid": "b947004f-ba27-48c5-baa1-c60280842427",
            "category": "agents",
            "url": "https://haz-map.com/Agents/6594"
          }
        ]
      },
      "comments": {
        "original_name": "Comments",
        "value": "No significant adverse effects or histopathological changes observed in high-dose ingestion, inhalation, or intraperitoneal studies with rats; Considered to be non-toxic by inhalation and ingestion; Not irritating to skin or eyes of rabbits; [EPA HPV Robust Summaries: Perfluoro compounds C5-C18, including CAS-311-89-7 - 2003] See \"Perfluoro compounds, C5-18.\"",
        "links": [],
        "cross_references": [
          {
            "type": "name_match",
            "text": "perfluoro compounds, c5-18",
            "confidence": 1.0,
            "uuid": "b947004f-ba27-48c5-baa1-c60280842427",
            "name": "Perfluoro compounds, C5-18",
            "url": "https://haz-map.com/Agents/6594",
            "category": "agents"
          }
        ]
      },
      "biomedical_references": {
        "original_name": "Biomedical References",
        "value": "Search PubMed",
        "links": [
          {
            "text": "Search PubMed",
            "url": "https://www.ncbi.nlm.nih.gov/pubmed?term=Perfluorotributylamine%20AND%20human%5Bmh%5D%20AND%20%28Occupational%20Diseases%20%5Bmh%5D%20OR%20Occupational%20Exposure%20%5Bmh%5D%29%20%20AND%20%28tox%5Bsb%5D%29&cmd=search"
          }
        ],
        "cross_references": []
      }
    },
    "exposure_assessment": {
      "vapor_pressure": {
        "original_name": "Vapor Pressure",
        "value": "0.552 mm Hg",
        "links": [],
        "cross_references": []
      },
      "explanatory_notes": {
        "original_name": "Explanatory Notes",
        "value": "VP from ChemIDplus;",
        "links": [],
        "cross_references": []
      }
    },
    "diseases_processes_and_activities_linked_to_this_agent": {
      "processes": {
        "original_name": "Processes",
        "value": "Industrial Processes with risk of exposure: Semiconductor Manufacturing",
        "links": [
          {
            "text": "Semiconductor Manufacturing",
            "url": "https://haz-map.com/Processes/97"
          }
        ],
        "cross_references": [
          {
            "type": "url_match",
            "text": "Semiconductor Manufacturing",
            "url": "https://haz-map.com/Processes/97",
            "confidence": 1.0,
            "uuid": "a1adedb7-a724-4539-9aff-c43b42706b89",
            "name": "Semiconductor Manufacturing",
            "category": "processes"
          }
        ]
      }
    }
  },
  "cross_references": [
    {
      "type": "url_match",
      "text": "Semiconductor Manufacturing",
      "url": "https://haz-map.com/Processes/97",
      "confidence": 1.0,
      "uuid": "a1adedb7-a724-4539-9aff-c43b42706b89",
      "name": "Semiconductor Manufacturing",
      "category": "processes"
    },
    {
      "type": "name_match",
      "text": "fluorine",
      "confidence": 1.0,
      "uuid": "bcff09a2-d008-4bb9-9ea2-9945e4426940",
      "name": "Fluorine",
      "url": "https://haz-map.com/Agents/494",
      "category": "agents"
    },
    {
      "type": "name_match",
      "text": "mica",
      "confidence": 1.0,
      "uuid": "433f26f1-c399-4596-b179-ce3843cfd465",
      "name": "Mica",
      "url": "https://haz-map.com/Agents/621",
      "category": "agents"
    },
    {
      "type": "name_match",
      "text": "nitrogen",
      "confidence": 1.0,
      "uuid": "db5e90a9-06d2-45b9-8b81-f345a89b0bc0",
      "name": "Nitrogen",
      "url": "https://haz-map.com/Agents/1072",
      "category": "agents"
    },
    {
      "type": "name_match",
      "text": "oxygen",
      "confidence": 1.0,
      "uuid": "daf61849-c843-41a6-bdfb-880e4ee71d7f",
      "name": "Oxygen",
      "url": "https://haz-map.com/Agents/1564",
      "category": "agents"
    },
    {
      "type": "name_match",
      "text": "carbon",
      "confidence": 1.0,
      "uuid": "b53f8815-ee80-40ef-b4aa-3b000e17dab5",
      "name": "Carbon",
      "url": "https://haz-map.com/Agents/1891",
      "category": "agents"
    },
    {
      "type": "name_match",
      "text": "perfluoro compounds, c5-18",
      "confidence": 1.0,
      "uuid": "b947004f-ba27-48c5-baa1-c60280842427",
      "name": "Perfluoro compounds, C5-18",
      "url": "https://haz-map.com/Agents/6594",
      "category": "agents"
    },
    {
      "type": "name_match",
      "text": "perfluorotributylamine",
      "confidence": 1.0,
      "uuid": "ab6dd216-5fa9-43e6-8423-d78ae11f894e",
      "name": "Perfluorotributylamine",
      "url": "https://haz-map.com/Agents/6598",
      "category": "agents"
    },
    {
      "type": "name_match",
      "text": "tributylamine",
      "confidence": 1.0,
      "uuid": "4e066cd9-4dd7-4a81-890e-87e605906034",
      "name": "Tributylamine",
      "url": "https://haz-map.com/Agents/7512",
      "category": "agents"
    }
  ],
  "all_links": [
    {
      "text": "Search PubMed",
      "url": "https://www.ncbi.nlm.nih.gov/pubmed?term=Perfluorotributylamine%20AND%20human%5Bmh%5D%20AND%20%28Occupational%20Diseases%20%5Bmh%5D%20OR%20Occupational%20Exposure%20%5Bmh%5D%29%20%20AND%20%28tox%5Bsb%5D%29&cmd=search"
    },
    {
      "text": "Semiconductor Manufacturing",
      "url": "https://haz-map.com/Processes/97"
    }
  ]
}