{
  "metadata": {
    "scraped_from": "https://haz-map.com/Agents/10615",
    "entity_name": "2-Bromo-7-aminofluorene",
    "category": "agents",
    "uuid": "aba57f5b-b20e-48c5-bcd1-2485601ca731",
    "scraped_at": "2025-07-23T20:50:11.262903"
  },
  "parsed_at": "2025-07-24T00:55:33.901731",
  "title": "2-Bromo-7-aminofluorene",
  "sections": {
    "general": {
      "agent_name": {
        "original_name": "Agent Name",
        "value": "2-Bromo-7-aminofluorene",
        "links": [],
        "cross_references": [
          {
            "type": "name_match",
            "text": "fluorene",
            "confidence": 1.0,
            "uuid": "4ec22b2a-d246-4dea-a0fe-a9022b632454",
            "name": "Fluorene",
            "url": "https://haz-map.com/Agents/7844",
            "category": "agents"
          },
          {
            "type": "name_match",
            "text": "2-bromo-7-aminofluorene",
            "confidence": 1.0,
            "uuid": "aba57f5b-b20e-48c5-bcd1-2485601ca731",
            "name": "2-Bromo-7-aminofluorene",
            "url": "https://haz-map.com/Agents/10615",
            "category": "agents"
          }
        ]
      },
      "cas_number": {
        "original_name": "CAS Number",
        "value": "6638-60-4",
        "links": [],
        "cross_references": []
      },
      "formula": {
        "original_name": "Formula",
        "value": "C13-H10-Br-N",
        "links": [],
        "cross_references": []
      },
      "major_category": {
        "original_name": "Major Category",
        "value": "Other Classes",
        "links": [],
        "cross_references": []
      },
      "synonyms": {
        "original_name": "Synonyms",
        "value": "Fluoren-2-amine, 7-bromo-; [ChemIDplus] 2-Amino-7-bromofluorene; [Aldrich MSDS]",
        "links": [],
        "cross_references": [
          {
            "type": "name_match",
            "text": "fluorene",
            "confidence": 1.0,
            "uuid": "4ec22b2a-d246-4dea-a0fe-a9022b632454",
            "name": "Fluorene",
            "url": "https://haz-map.com/Agents/7844",
            "category": "agents"
          }
        ]
      },
      "category": {
        "original_name": "Category",
        "value": "Polycyclic Aromatic Hydrocarbons",
        "links": [],
        "cross_references": [
          {
            "type": "name_match",
            "text": "polycyclic aromatic hydrocarbons",
            "confidence": 1.0,
            "uuid": "0f103271-339e-42e1-80e3-bf90a8be7084",
            "name": "POLYCYCLIC AROMATIC HYDROCARBONS",
            "url": "https://haz-map.com/Agents/720",
            "category": "agents"
          },
          {
            "type": "name_match",
            "text": "carbon",
            "confidence": 1.0,
            "uuid": "b53f8815-ee80-40ef-b4aa-3b000e17dab5",
            "name": "Carbon",
            "url": "https://haz-map.com/Agents/1891",
            "category": "agents"
          },
          {
            "type": "fuzzy_match",
            "text": "aromatic hydrocarbons",
            "matched_name": "Aromatic hydrocarbons, C9-C11",
            "confidence": 0.7509578544061303,
            "uuid": "1e86d79b-784d-40c4-8412-39a4432a7a75",
            "category": "agents",
            "url": "https://haz-map.com/Agents/20258"
          },
          {
            "type": "fuzzy_match",
            "text": "hydrocarbons",
            "matched_name": "Hydrocarbons, C>3",
            "confidence": 0.7100840336134454,
            "uuid": "8eaa37ac-3931-44e4-9242-2734127fd661",
            "category": "agents",
            "url": "https://haz-map.com/Agents/14795"
          }
        ]
      },
      "description": {
        "original_name": "Description",
        "value": "Melting point = 148-149 deg C; [Aldrich MSDS]",
        "links": [],
        "cross_references": []
      },
      "comments": {
        "original_name": "Comments",
        "value": "An irritant; [Aldrich MSDS] See \"POLYCYCLIC AROMATIC HYDROCARBONS.\"",
        "links": [],
        "cross_references": [
          {
            "type": "name_match",
            "text": "polycyclic aromatic hydrocarbons",
            "confidence": 1.0,
            "uuid": "0f103271-339e-42e1-80e3-bf90a8be7084",
            "name": "POLYCYCLIC AROMATIC HYDROCARBONS",
            "url": "https://haz-map.com/Agents/720",
            "category": "agents"
          },
          {
            "type": "name_match",
            "text": "carbon",
            "confidence": 1.0,
            "uuid": "b53f8815-ee80-40ef-b4aa-3b000e17dab5",
            "name": "Carbon",
            "url": "https://haz-map.com/Agents/1891",
            "category": "agents"
          },
          {
            "type": "fuzzy_match",
            "text": "aromatic hydrocarbons",
            "matched_name": "Aromatic hydrocarbons, C9-C11",
            "confidence": 0.7509578544061303,
            "uuid": "1e86d79b-784d-40c4-8412-39a4432a7a75",
            "category": "agents",
            "url": "https://haz-map.com/Agents/20258"
          },
          {
            "type": "fuzzy_match",
            "text": "hydrocarbons",
            "matched_name": "Hydrocarbons, C>3",
            "confidence": 0.7100840336134454,
            "uuid": "8eaa37ac-3931-44e4-9242-2734127fd661",
            "category": "agents",
            "url": "https://haz-map.com/Agents/14795"
          }
        ]
      },
      "biomedical_references": {
        "original_name": "Biomedical References",
        "value": "Search PubMed",
        "links": [
          {
            "text": "Search PubMed",
            "url": "https://www.ncbi.nlm.nih.gov/pubmed?term=2-Bromo-7-aminofluorene%20AND%20human%5Bmh%5D%20AND%20%28Occupational%20Diseases%20%5Bmh%5D%20OR%20Occupational%20Exposure%20%5Bmh%5D%29%20%20AND%20%28tox%5Bsb%5D%29&cmd=search"
          }
        ],
        "cross_references": []
      }
    },
    "exposure_assessment": {
      "vapor_pressure": {
        "original_name": "Vapor Pressure",
        "value": "2.77E-06 mm Hg",
        "links": [],
        "cross_references": []
      }
    },
    "diseases_processes_and_activities_linked_to_this_agent": {
      "other_information": {
        "original_name": "Other Information",
        "value": "No other related information on this agent was found.",
        "links": [],
        "cross_references": []
      }
    }
  },
  "cross_references": [
    {
      "type": "name_match",
      "text": "polycyclic aromatic hydrocarbons",
      "confidence": 1.0,
      "uuid": "0f103271-339e-42e1-80e3-bf90a8be7084",
      "name": "POLYCYCLIC AROMATIC HYDROCARBONS",
      "url": "https://haz-map.com/Agents/720",
      "category": "agents"
    },
    {
      "type": "name_match",
      "text": "carbon",
      "confidence": 1.0,
      "uuid": "b53f8815-ee80-40ef-b4aa-3b000e17dab5",
      "name": "Carbon",
      "url": "https://haz-map.com/Agents/1891",
      "category": "agents"
    },
    {
      "type": "name_match",
      "text": "fluorene",
      "confidence": 1.0,
      "uuid": "4ec22b2a-d246-4dea-a0fe-a9022b632454",
      "name": "Fluorene",
      "url": "https://haz-map.com/Agents/7844",
      "category": "agents"
    },
    {
      "type": "name_match",
      "text": "2-bromo-7-aminofluorene",
      "confidence": 1.0,
      "uuid": "aba57f5b-b20e-48c5-bcd1-2485601ca731",
      "name": "2-Bromo-7-aminofluorene",
      "url": "https://haz-map.com/Agents/10615",
      "category": "agents"
    },
    {
      "type": "fuzzy_match",
      "text": "aromatic hydrocarbons",
      "matched_name": "Aromatic hydrocarbons, C9-C11",
      "confidence": 0.7509578544061303,
      "uuid": "1e86d79b-784d-40c4-8412-39a4432a7a75",
      "category": "agents",
      "url": "https://haz-map.com/Agents/20258"
    },
    {
      "type": "fuzzy_match",
      "text": "hydrocarbons",
      "matched_name": "Hydrocarbons, C>3",
      "confidence": 0.7100840336134454,
      "uuid": "8eaa37ac-3931-44e4-9242-2734127fd661",
      "category": "agents",
      "url": "https://haz-map.com/Agents/14795"
    }
  ],
  "all_links": [
    {
      "text": "Search PubMed",
      "url": "https://www.ncbi.nlm.nih.gov/pubmed?term=2-Bromo-7-aminofluorene%20AND%20human%5Bmh%5D%20AND%20%28Occupational%20Diseases%20%5Bmh%5D%20OR%20Occupational%20Exposure%20%5Bmh%5D%29%20%20AND%20%28tox%5Bsb%5D%29&cmd=search"
    }
  ]
}