{
  "metadata": {
    "scraped_from": "https://haz-map.com/Agents/7429",
    "entity_name": "N-(2-Chlorophenyl)thiourea",
    "category": "agents",
    "uuid": "ac23206f-d098-4428-98fb-124ec4edb95a",
    "scraped_at": "2025-07-23T20:12:42.260644"
  },
  "parsed_at": "2025-07-24T01:03:26.021362",
  "title": "N-(2-Chlorophenyl)thiourea",
  "sections": {
    "general": {
      "agent_name": {
        "original_name": "Agent Name",
        "value": "N-(2-Chlorophenyl)thiourea",
        "links": [],
        "cross_references": [
          {
            "type": "name_match",
            "text": "thiourea",
            "confidence": 1.0,
            "uuid": "9d84caab-5d53-428a-985f-be88dd4db13f",
            "name": "Thiourea",
            "url": "https://haz-map.com/Agents/998",
            "category": "agents"
          },
          {
            "type": "name_match",
            "text": "urea",
            "confidence": 1.0,
            "uuid": "a92a6129-bddd-4f79-9a78-136812ae610f",
            "name": "Urea",
            "url": "https://haz-map.com/Agents/2078",
            "category": "agents"
          },
          {
            "type": "name_match",
            "text": "n-(2-chlorophenyl)thiourea",
            "confidence": 1.0,
            "uuid": "ac23206f-d098-4428-98fb-124ec4edb95a",
            "name": "N-(2-Chlorophenyl)thiourea",
            "url": "https://haz-map.com/Agents/7429",
            "category": "agents"
          }
        ]
      },
      "cas_number": {
        "original_name": "CAS Number",
        "value": "5344-82-1",
        "links": [],
        "cross_references": []
      },
      "formula": {
        "original_name": "Formula",
        "value": "C7-H7-Cl-N2-S",
        "links": [],
        "cross_references": []
      },
      "major_category": {
        "original_name": "Major Category",
        "value": "Nitrogen Compounds",
        "links": [],
        "cross_references": [
          {
            "type": "name_match",
            "text": "nitrogen",
            "confidence": 1.0,
            "uuid": "db5e90a9-06d2-45b9-8b81-f345a89b0bc0",
            "name": "Nitrogen",
            "url": "https://haz-map.com/Agents/1072",
            "category": "agents"
          }
        ]
      },
      "synonyms": {
        "original_name": "Synonyms",
        "value": "(o-Chlorophenyl)thiourea; 1-(2-Chlorophenyl)-2-thiourea; 1-(2-Chlorophenyl)thiourea; 1-(o-Chlorophenyl)thiourea; 2-Chlorophenyl thiourea; 2-Chlorophenylthiourea; Thiourea, (2-chlorophenyl)-; Thiourea, 1-(2-chlorophenyl); Urea, 1-(o-chlorophenyl)-2-thio-; [ChemIDplus]",
        "links": [],
        "cross_references": [
          {
            "type": "name_match",
            "text": "thiourea",
            "confidence": 1.0,
            "uuid": "9d84caab-5d53-428a-985f-be88dd4db13f",
            "name": "Thiourea",
            "url": "https://haz-map.com/Agents/998",
            "category": "agents"
          },
          {
            "type": "name_match",
            "text": "urea",
            "confidence": 1.0,
            "uuid": "a92a6129-bddd-4f79-9a78-136812ae610f",
            "name": "Urea",
            "url": "https://haz-map.com/Agents/2078",
            "category": "agents"
          }
        ]
      },
      "category": {
        "original_name": "Category",
        "value": "Thiourea Compounds",
        "links": [],
        "cross_references": [
          {
            "type": "name_match",
            "text": "thiourea",
            "confidence": 1.0,
            "uuid": "9d84caab-5d53-428a-985f-be88dd4db13f",
            "name": "Thiourea",
            "url": "https://haz-map.com/Agents/998",
            "category": "agents"
          },
          {
            "type": "name_match",
            "text": "urea",
            "confidence": 1.0,
            "uuid": "a92a6129-bddd-4f79-9a78-136812ae610f",
            "name": "Urea",
            "url": "https://haz-map.com/Agents/2078",
            "category": "agents"
          }
        ]
      },
      "description": {
        "original_name": "Description",
        "value": "Solid; [HSDB] White crystalline powder; [Alfa Aesar MSDS] Colorless odorless solid; [FAHAZMAT]",
        "links": [],
        "cross_references": [
          {
            "type": "fuzzy_match",
            "text": "crystalline",
            "matched_name": "Silica, crystalline",
            "confidence": 0.7061403508771931,
            "uuid": "f920e8a2-46df-41b7-af8d-0368a777251e",
            "category": "agents",
            "url": "https://haz-map.com/Agents/427"
          }
        ]
      },
      "sourcesuses": {
        "original_name": "Sources/Uses",
        "value": "Not commercially manufactured or used in the US; [HSDB] Used as an herbicide; [CAMEO]",
        "links": [],
        "cross_references": []
      },
      "comments": {
        "original_name": "Comments",
        "value": "May be fatal by ingestion, inhalation, or skin absorption; [FAHAZMAT] May cause irritation; [Alfa Aesar MSDS]",
        "links": [],
        "cross_references": []
      },
      "restricted": {
        "original_name": "Restricted",
        "value": "Not registered as a pesticide for use in the US; [CAMEO]",
        "links": [],
        "cross_references": []
      },
      "biomedical_references": {
        "original_name": "Biomedical References",
        "value": "Search PubMed",
        "links": [
          {
            "text": "Search PubMed",
            "url": "https://www.ncbi.nlm.nih.gov/pubmed?term=N-(2-Chlorophenyl)thiourea%20AND%20human%5Bmh%5D%20AND%20%28Occupational%20Diseases%20%5Bmh%5D%20OR%20Occupational%20Exposure%20%5Bmh%5D%29%20%20AND%20%28tox%5Bsb%5D%29&cmd=search"
          }
        ],
        "cross_references": []
      }
    },
    "exposure_assessment": {
      "vapor_pressure": {
        "original_name": "Vapor Pressure",
        "value": "0.00035 mm Hg",
        "links": [],
        "cross_references": []
      },
      "nfpa": {
        "original_name": "NFPA",
        "value": "must be preheated",
        "links": [],
        "cross_references": []
      }
    },
    "diseases_processes_and_activities_linked_to_this_agent": {
      "processes": {
        "original_name": "Processes",
        "value": "Industrial Processes with risk of exposure: Farming (Pesticides)",
        "links": [
          {
            "text": "Farming (Pesticides)",
            "url": "https://haz-map.com/Processes/218"
          }
        ],
        "cross_references": [
          {
            "type": "url_match",
            "text": "Farming (Pesticides)",
            "url": "https://haz-map.com/Processes/218",
            "confidence": 1.0,
            "uuid": "cf1e5815-c9bb-4917-82a5-391848170b7e",
            "name": "Farming (Pesticides)",
            "category": "processes"
          }
        ]
      }
    }
  },
  "cross_references": [
    {
      "type": "url_match",
      "text": "Farming (Pesticides)",
      "url": "https://haz-map.com/Processes/218",
      "confidence": 1.0,
      "uuid": "cf1e5815-c9bb-4917-82a5-391848170b7e",
      "name": "Farming (Pesticides)",
      "category": "processes"
    },
    {
      "type": "name_match",
      "text": "thiourea",
      "confidence": 1.0,
      "uuid": "9d84caab-5d53-428a-985f-be88dd4db13f",
      "name": "Thiourea",
      "url": "https://haz-map.com/Agents/998",
      "category": "agents"
    },
    {
      "type": "name_match",
      "text": "nitrogen",
      "confidence": 1.0,
      "uuid": "db5e90a9-06d2-45b9-8b81-f345a89b0bc0",
      "name": "Nitrogen",
      "url": "https://haz-map.com/Agents/1072",
      "category": "agents"
    },
    {
      "type": "name_match",
      "text": "urea",
      "confidence": 1.0,
      "uuid": "a92a6129-bddd-4f79-9a78-136812ae610f",
      "name": "Urea",
      "url": "https://haz-map.com/Agents/2078",
      "category": "agents"
    },
    {
      "type": "name_match",
      "text": "n-(2-chlorophenyl)thiourea",
      "confidence": 1.0,
      "uuid": "ac23206f-d098-4428-98fb-124ec4edb95a",
      "name": "N-(2-Chlorophenyl)thiourea",
      "url": "https://haz-map.com/Agents/7429",
      "category": "agents"
    },
    {
      "type": "fuzzy_match",
      "text": "crystalline",
      "matched_name": "Silica, crystalline",
      "confidence": 0.7061403508771931,
      "uuid": "f920e8a2-46df-41b7-af8d-0368a777251e",
      "category": "agents",
      "url": "https://haz-map.com/Agents/427"
    }
  ],
  "all_links": [
    {
      "text": "Search PubMed",
      "url": "https://www.ncbi.nlm.nih.gov/pubmed?term=N-(2-Chlorophenyl)thiourea%20AND%20human%5Bmh%5D%20AND%20%28Occupational%20Diseases%20%5Bmh%5D%20OR%20Occupational%20Exposure%20%5Bmh%5D%29%20%20AND%20%28tox%5Bsb%5D%29&cmd=search"
    },
    {
      "text": "Farming (Pesticides)",
      "url": "https://haz-map.com/Processes/218"
    }
  ]
}