{
  "metadata": {
    "scraped_from": "https://haz-map.com/Agents/21160",
    "entity_name": "Methyl o-toluate",
    "category": "agents",
    "uuid": "ac3856ac-6018-42ea-b458-efc320c6cad0",
    "scraped_at": "2025-07-23T22:38:39.188228"
  },
  "parsed_at": "2025-07-24T01:12:07.564852",
  "title": "Methyl o-toluate",
  "sections": {
    "general": {
      "agent_name": {
        "original_name": "Agent Name",
        "value": "Methyl o-toluate",
        "links": [],
        "cross_references": [
          {
            "type": "name_match",
            "text": "methyl o-toluate",
            "confidence": 1.0,
            "uuid": "ac3856ac-6018-42ea-b458-efc320c6cad0",
            "name": "Methyl o-toluate",
            "url": "https://haz-map.com/Agents/21160",
            "category": "agents"
          }
        ]
      },
      "cas_number": {
        "original_name": "CAS Number",
        "value": "89-71-4",
        "links": [],
        "cross_references": []
      },
      "formula": {
        "original_name": "Formula",
        "value": "C9-H10-O2",
        "links": [],
        "cross_references": []
      },
      "major_category": {
        "original_name": "Major Category",
        "value": "Other Classes",
        "links": [],
        "cross_references": []
      },
      "synonyms": {
        "original_name": "Synonyms",
        "value": "Methyl 2-methylbenzoate; Methyl o-methylbenzoate; Methyl orthotoluate; Benzoic acid, 2-methyl-, methyl ester; o-Toluic acid, methyl ester (8CI); [ChemIDplus]",
        "links": [],
        "cross_references": [
          {
            "type": "name_match",
            "text": "benzoic acid",
            "confidence": 1.0,
            "uuid": "d2c5d3be-d826-4f55-bc32-7b16821aef40",
            "name": "Benzoic acid",
            "url": "https://haz-map.com/Agents/1883",
            "category": "agents"
          },
          {
            "type": "name_match",
            "text": "o-toluic acid",
            "confidence": 1.0,
            "uuid": "2371e2b2-0f98-47d7-90f8-5e37af4caa66",
            "name": "o-Toluic acid",
            "url": "https://haz-map.com/Agents/21404",
            "category": "agents"
          }
        ]
      },
      "category": {
        "original_name": "Category",
        "value": "Esters, Other",
        "links": [],
        "cross_references": []
      },
      "description": {
        "original_name": "Description",
        "value": "Colorless liquid; [Alfa Aesar MSDS]",
        "links": [],
        "cross_references": []
      },
      "comments": {
        "original_name": "Comments",
        "value": "A skin and strong eye irritant; [Alfa Aesar MSDS]",
        "links": [],
        "cross_references": []
      },
      "biomedical_references": {
        "original_name": "Biomedical References",
        "value": "Search PubMed",
        "links": [
          {
            "text": "Search PubMed",
            "url": "https://www.ncbi.nlm.nih.gov/pubmed?term=Methyl+o-toluate%20AND%20human%5Bmh%5D%20AND%20%28Occupational%20Diseases%20%5Bmh%5D%20OR%20Occupational%20Exposure%20%5Bmh%5D%29%20%20AND%20%28tox%5Bsb%5D%29&cmd=search"
          }
        ],
        "cross_references": []
      }
    },
    "exposure_assessment": {
      "vapor_pressure": {
        "original_name": "Vapor Pressure",
        "value": "0.164 mm Hg",
        "links": [],
        "cross_references": []
      }
    },
    "diseases_processes_and_activities_linked_to_this_agent": {
      "other_information": {
        "original_name": "Other Information",
        "value": "No other related information on this agent was found.",
        "links": [],
        "cross_references": []
      }
    }
  },
  "cross_references": [
    {
      "type": "name_match",
      "text": "benzoic acid",
      "confidence": 1.0,
      "uuid": "d2c5d3be-d826-4f55-bc32-7b16821aef40",
      "name": "Benzoic acid",
      "url": "https://haz-map.com/Agents/1883",
      "category": "agents"
    },
    {
      "type": "name_match",
      "text": "methyl o-toluate",
      "confidence": 1.0,
      "uuid": "ac3856ac-6018-42ea-b458-efc320c6cad0",
      "name": "Methyl o-toluate",
      "url": "https://haz-map.com/Agents/21160",
      "category": "agents"
    },
    {
      "type": "name_match",
      "text": "o-toluic acid",
      "confidence": 1.0,
      "uuid": "2371e2b2-0f98-47d7-90f8-5e37af4caa66",
      "name": "o-Toluic acid",
      "url": "https://haz-map.com/Agents/21404",
      "category": "agents"
    }
  ],
  "all_links": [
    {
      "text": "Search PubMed",
      "url": "https://www.ncbi.nlm.nih.gov/pubmed?term=Methyl+o-toluate%20AND%20human%5Bmh%5D%20AND%20%28Occupational%20Diseases%20%5Bmh%5D%20OR%20Occupational%20Exposure%20%5Bmh%5D%29%20%20AND%20%28tox%5Bsb%5D%29&cmd=search"
    }
  ]
}