{
  "metadata": {
    "scraped_from": "https://haz-map.com/Agents/13518",
    "entity_name": "Cyclopentene",
    "category": "agents",
    "uuid": "ac4aac23-c635-4f4e-bd44-74f91c17c1e3",
    "scraped_at": "2025-07-23T21:15:24.585592"
  },
  "parsed_at": "2025-07-24T01:11:19.334680",
  "title": "Cyclopentene",
  "sections": {
    "general": {
      "agent_name": {
        "original_name": "Agent Name",
        "value": "Cyclopentene",
        "links": [],
        "cross_references": [
          {
            "type": "name_match",
            "text": "pentene",
            "confidence": 1.0,
            "uuid": "8a79e71e-e90a-4993-a702-7b2bacae6310",
            "name": "Pentene",
            "url": "https://haz-map.com/Agents/6584",
            "category": "agents"
          },
          {
            "type": "name_match",
            "text": "cyclopentene",
            "confidence": 1.0,
            "uuid": "ac4aac23-c635-4f4e-bd44-74f91c17c1e3",
            "name": "Cyclopentene",
            "url": "https://haz-map.com/Agents/13518",
            "category": "agents"
          }
        ]
      },
      "cas_number": {
        "original_name": "CAS Number",
        "value": "142-29-0",
        "links": [],
        "cross_references": []
      },
      "formula": {
        "original_name": "Formula",
        "value": "C5-H8",
        "links": [],
        "cross_references": []
      },
      "major_category": {
        "original_name": "Major Category",
        "value": "Other Classes",
        "links": [],
        "cross_references": []
      },
      "synonyms": {
        "original_name": "Synonyms",
        "value": "UN2246",
        "links": [],
        "cross_references": []
      },
      "category": {
        "original_name": "Category",
        "value": "Aliphatics, Unsaturated",
        "links": [],
        "cross_references": []
      },
      "description": {
        "original_name": "Description",
        "value": "Colorless liquid; [CAMEO] Odor like gasoline; [FAHG] Slightly sweetish odor; [Alfa Aesar MSDS]",
        "links": [],
        "cross_references": [
          {
            "type": "name_match",
            "text": "gasoline",
            "confidence": 1.0,
            "uuid": "af15c833-3eae-46c5-9af4-2214858d7282",
            "name": "Gasoline",
            "url": "https://haz-map.com/Agents/410",
            "category": "agents"
          },
          {
            "type": "name_match",
            "text": "ht",
            "confidence": 1.0,
            "uuid": "764df367-8d53-4a11-81a2-31ccfe122a8d",
            "name": "HT",
            "url": "https://haz-map.com/Agents/2168",
            "category": "agents"
          }
        ]
      },
      "sourcesuses": {
        "original_name": "Sources/Uses",
        "value": "Used to make rubber and plastics; [CAMEO]",
        "links": [],
        "cross_references": []
      },
      "comments": {
        "original_name": "Comments",
        "value": "May polymerize; High vapor concentrations may have narcotic effects; [CAMEO] May cause smarting and reddening of skin if spilled and allowed to remain on clothes; High vapor concentrations may cause mild smarting of eyes and respiratory system, dizziness, and loss of consciousness; [CHRIS] An irritant that can cause skin burns on prolonged contact; [FAHG] May form explosive peroxides; An irritant; Harmful by ingestion (may cause lung damage by aspiration); Inhalation may cause dizziness or drowsiness; Harmful by ingestion and skin absorption; [Alfa Aesar MSDS] See \"1-Pentene.\"",
        "links": [],
        "cross_references": [
          {
            "type": "name_match",
            "text": "dizziness",
            "confidence": 1.0,
            "uuid": "4b0e6043-b228-49de-996c-b42ec8b3780e",
            "name": "dizziness",
            "url": "https://haz-map.com/Findings/16",
            "category": "findings"
          },
          {
            "type": "name_match",
            "text": "burn",
            "confidence": 1.0,
            "uuid": "63665de5-6376-4918-8dbf-4c10c4d63837",
            "name": "burn",
            "url": "https://haz-map.com/Findings/204",
            "category": "findings"
          },
          {
            "type": "name_match",
            "text": "1-pentene",
            "confidence": 1.0,
            "uuid": "fb5ff9a7-52d9-4c0c-a462-090f2c7e657f",
            "name": "1-Pentene",
            "url": "https://haz-map.com/Agents/2918",
            "category": "agents"
          },
          {
            "type": "name_match",
            "text": "dde",
            "confidence": 1.0,
            "uuid": "88506fb4-e7b1-4bde-a283-917057f67fc2",
            "name": "DDE",
            "url": "https://haz-map.com/Agents/4656",
            "category": "agents"
          },
          {
            "type": "name_match",
            "text": "pentene",
            "confidence": 1.0,
            "uuid": "8a79e71e-e90a-4993-a702-7b2bacae6310",
            "name": "Pentene",
            "url": "https://haz-map.com/Agents/6584",
            "category": "agents"
          }
        ]
      },
      "biomedical_references": {
        "original_name": "Biomedical References",
        "value": "Search PubMed",
        "links": [
          {
            "text": "Search PubMed",
            "url": "https://www.ncbi.nlm.nih.gov/pubmed?term=Cyclopentene%20AND%20human%5Bmh%5D%20AND%20%28Occupational%20Diseases%20%5Bmh%5D%20OR%20Occupational%20Exposure%20%5Bmh%5D%29%20%20AND%20%28tox%5Bsb%5D%29&cmd=search"
          }
        ],
        "cross_references": []
      }
    },
    "exposure_assessment": {
      "vapor_pressure": {
        "original_name": "Vapor Pressure",
        "value": "380 mm Hg",
        "links": [],
        "cross_references": []
      },
      "lethal_concentration": {
        "original_name": "Lethal Concentration",
        "value": "LCLo (rat) = 16,000 ppm/4hr",
        "links": [],
        "cross_references": []
      },
      "explanatory_notes": {
        "original_name": "Explanatory Notes",
        "value": "VP from ChemIDplus;",
        "links": [],
        "cross_references": []
      },
      "nfpa": {
        "original_name": "NFPA",
        "value": "may ignite at ambient temp",
        "links": [],
        "cross_references": []
      }
    },
    "adverse_effects": {
      "neurotoxin": {
        "original_name": "Neurotoxin",
        "value": "Acute solvent syndrome",
        "links": [],
        "cross_references": []
      }
    },
    "diseases_processes_and_activities_linked_to_this_agent": {
      "diseases": {
        "original_name": "Diseases",
        "value": "Occupational diseases associated with exposure to this agent: Solvents, acute toxic effect",
        "links": [
          {
            "text": "Solvents, acute toxic effect",
            "url": "https://haz-map.com/Diseases/326"
          }
        ],
        "cross_references": [
          {
            "type": "url_match",
            "text": "Solvents, acute toxic effect",
            "url": "https://haz-map.com/Diseases/326",
            "confidence": 1.0,
            "uuid": "581e90e3-9d0c-45f0-aa6c-3468c28da129",
            "name": "Solvents, acute toxic effect",
            "category": "diseases"
          }
        ]
      }
    }
  },
  "cross_references": [
    {
      "type": "url_match",
      "text": "Solvents, acute toxic effect",
      "url": "https://haz-map.com/Diseases/326",
      "confidence": 1.0,
      "uuid": "581e90e3-9d0c-45f0-aa6c-3468c28da129",
      "name": "Solvents, acute toxic effect",
      "category": "diseases"
    },
    {
      "type": "name_match",
      "text": "dizziness",
      "confidence": 1.0,
      "uuid": "4b0e6043-b228-49de-996c-b42ec8b3780e",
      "name": "dizziness",
      "url": "https://haz-map.com/Findings/16",
      "category": "findings"
    },
    {
      "type": "name_match",
      "text": "burn",
      "confidence": 1.0,
      "uuid": "63665de5-6376-4918-8dbf-4c10c4d63837",
      "name": "burn",
      "url": "https://haz-map.com/Findings/204",
      "category": "findings"
    },
    {
      "type": "name_match",
      "text": "gasoline",
      "confidence": 1.0,
      "uuid": "af15c833-3eae-46c5-9af4-2214858d7282",
      "name": "Gasoline",
      "url": "https://haz-map.com/Agents/410",
      "category": "agents"
    },
    {
      "type": "name_match",
      "text": "ht",
      "confidence": 1.0,
      "uuid": "764df367-8d53-4a11-81a2-31ccfe122a8d",
      "name": "HT",
      "url": "https://haz-map.com/Agents/2168",
      "category": "agents"
    },
    {
      "type": "name_match",
      "text": "1-pentene",
      "confidence": 1.0,
      "uuid": "fb5ff9a7-52d9-4c0c-a462-090f2c7e657f",
      "name": "1-Pentene",
      "url": "https://haz-map.com/Agents/2918",
      "category": "agents"
    },
    {
      "type": "name_match",
      "text": "dde",
      "confidence": 1.0,
      "uuid": "88506fb4-e7b1-4bde-a283-917057f67fc2",
      "name": "DDE",
      "url": "https://haz-map.com/Agents/4656",
      "category": "agents"
    },
    {
      "type": "name_match",
      "text": "pentene",
      "confidence": 1.0,
      "uuid": "8a79e71e-e90a-4993-a702-7b2bacae6310",
      "name": "Pentene",
      "url": "https://haz-map.com/Agents/6584",
      "category": "agents"
    },
    {
      "type": "name_match",
      "text": "cyclopentene",
      "confidence": 1.0,
      "uuid": "ac4aac23-c635-4f4e-bd44-74f91c17c1e3",
      "name": "Cyclopentene",
      "url": "https://haz-map.com/Agents/13518",
      "category": "agents"
    }
  ],
  "all_links": [
    {
      "text": "Search PubMed",
      "url": "https://www.ncbi.nlm.nih.gov/pubmed?term=Cyclopentene%20AND%20human%5Bmh%5D%20AND%20%28Occupational%20Diseases%20%5Bmh%5D%20OR%20Occupational%20Exposure%20%5Bmh%5D%29%20%20AND%20%28tox%5Bsb%5D%29&cmd=search"
    },
    {
      "text": "Solvents, acute toxic effect",
      "url": "https://haz-map.com/Diseases/326"
    }
  ]
}