{
  "metadata": {
    "scraped_from": "https://haz-map.com/Agents/1556",
    "entity_name": "Potassium permanganate",
    "category": "agents",
    "uuid": "ac4cf7f2-787f-4e88-a8c3-1a1bbb7917fc",
    "scraped_at": "2025-07-23T19:01:08.359399"
  },
  "parsed_at": "2025-07-24T01:08:21.913895",
  "title": "Potassium permanganate",
  "sections": {
    "general": {
      "agent_name": {
        "original_name": "Agent Name",
        "value": "Potassium permanganate",
        "links": [],
        "cross_references": [
          {
            "type": "name_match",
            "text": "potassium",
            "confidence": 1.0,
            "uuid": "41542f50-8311-43c8-9ec6-078665bee9df",
            "name": "Potassium",
            "url": "https://haz-map.com/Agents/1526",
            "category": "agents"
          },
          {
            "type": "name_match",
            "text": "potassium permanganate",
            "confidence": 1.0,
            "uuid": "ac4cf7f2-787f-4e88-a8c3-1a1bbb7917fc",
            "name": "Potassium permanganate",
            "url": "https://haz-map.com/Agents/1556",
            "category": "agents"
          }
        ]
      },
      "cas_number": {
        "original_name": "CAS Number",
        "value": "7722-64-7",
        "links": [],
        "cross_references": []
      },
      "formula": {
        "original_name": "Formula",
        "value": "Mn-O4.K",
        "links": [],
        "cross_references": []
      },
      "major_category": {
        "original_name": "Major Category",
        "value": "Other Classes",
        "links": [],
        "cross_references": []
      },
      "synonyms": {
        "original_name": "Synonyms",
        "value": "Algae-K; Argucide; Cairox; Chameleon mineral; Condy's crystals; Diversey Diversol CX with Arodyne; Diversey Diversol CXU; Insta-perm; Kaliumpermanganat [German]; Manganese potassium oxide (KMnO4); Permanganate de potassium [French]; Permanganate of potash; Permanganato potasico [Spanish]; Potassio (permanganato di) [Italian]; Potassium (permanganate de) [French]; Pure Light E 2; Solo San Soo; Walko Tablets; UN1490; [ChemIDplus]",
        "links": [],
        "cross_references": [
          {
            "type": "name_match",
            "text": "manganese",
            "confidence": 1.0,
            "uuid": "efa71491-cbc6-446b-a11e-5faa3e453c0d",
            "name": "Manganese",
            "url": "https://haz-map.com/Agents/39",
            "category": "agents"
          },
          {
            "type": "name_match",
            "text": "ash",
            "confidence": 1.0,
            "uuid": "68b360f1-5ad0-4337-bea0-d7adca2961b5",
            "name": "Ash",
            "url": "https://haz-map.com/Agents/965",
            "category": "agents"
          },
          {
            "type": "name_match",
            "text": "tali",
            "confidence": 1.0,
            "uuid": "8c3a0f99-2143-4122-b539-ec5cc49596b0",
            "name": "Tali",
            "url": "https://haz-map.com/Agents/1128",
            "category": "agents"
          },
          {
            "type": "name_match",
            "text": "potassium",
            "confidence": 1.0,
            "uuid": "41542f50-8311-43c8-9ec6-078665bee9df",
            "name": "Potassium",
            "url": "https://haz-map.com/Agents/1526",
            "category": "agents"
          },
          {
            "type": "name_match",
            "text": "ht",
            "confidence": 1.0,
            "uuid": "764df367-8d53-4a11-81a2-31ccfe122a8d",
            "name": "HT",
            "url": "https://haz-map.com/Agents/2168",
            "category": "agents"
          },
          {
            "type": "name_match",
            "text": "potassium oxide",
            "confidence": 1.0,
            "uuid": "20245cfa-5b67-459a-af80-9ccd3a80f317",
            "name": "Potassium oxide",
            "url": "https://haz-map.com/Agents/16848",
            "category": "agents"
          }
        ]
      },
      "category": {
        "original_name": "Category",
        "value": "Inorganic Oxidizing Agents",
        "links": [],
        "cross_references": []
      },
      "description": {
        "original_name": "Description",
        "value": "Purple odorless crystals; [HSDB]",
        "links": [],
        "cross_references": []
      },
      "sourcesuses": {
        "original_name": "Sources/Uses",
        "value": "Used to bleach textile fibers and skins, to dye wood and fabrics, to etch rubber and plastics, and to descale steel; Used in food processing, photography, leather tanning, and water purification; Used as an antiseptic, disinfectant, insecticide, miticide, and algaecide; [HSDB]",
        "links": [],
        "cross_references": [
          {
            "type": "name_match",
            "text": "water",
            "confidence": 1.0,
            "uuid": "6f2a7557-dfd2-49bc-9b4b-a93cd8e225d4",
            "name": "Water",
            "url": "https://haz-map.com/Agents/18668",
            "category": "agents"
          }
        ]
      },
      "comments": {
        "original_name": "Comments",
        "value": "Dilute solutions are irritants and concentrated solutions caustic to the skin, eyes, and respiratory tract. Toxic by ingestion--gastrointestinal burns, methemoglobinemia, and injury to liver and kidneys; [HSDB] If not flushed with water, can burn skin and stain it dark brown; [CHRIS] Inhalation of high concentrations of dust or mist may cause pulmonary edema in extreme exposures; May cause liver and kidney damage after ingestion; Lethal dose is about 10 grams; May cause manganese poisoning after chronic ingestion or inhalation; [CHEMINFO] Permanganate crystals and concentrated solutions are corrosive (release potassium hydroxide when contact water) and can induce methemoglobinemia after ingestion; [Olson, p. 133] See \"Manganese\" and linked occupational diseases.",
        "links": [],
        "cross_references": [
          {
            "type": "name_match",
            "text": "pulmonary edema",
            "confidence": 1.0,
            "uuid": "ee39114e-c922-40fd-9588-a532de404962",
            "name": "pulmonary edema",
            "url": "https://haz-map.com/Findings/186",
            "category": "findings"
          },
          {
            "type": "name_match",
            "text": "burn",
            "confidence": 1.0,
            "uuid": "63665de5-6376-4918-8dbf-4c10c4d63837",
            "name": "burn",
            "url": "https://haz-map.com/Findings/204",
            "category": "findings"
          },
          {
            "type": "name_match",
            "text": "manganese",
            "confidence": 1.0,
            "uuid": "efa71491-cbc6-446b-a11e-5faa3e453c0d",
            "name": "Manganese",
            "url": "https://haz-map.com/Agents/39",
            "category": "agents"
          },
          {
            "type": "name_match",
            "text": "potassium hydroxide",
            "confidence": 1.0,
            "uuid": "c437c099-636b-4192-9f13-628e3f255de8",
            "name": "Potassium hydroxide",
            "url": "https://haz-map.com/Agents/606",
            "category": "agents"
          },
          {
            "type": "name_match",
            "text": "potassium",
            "confidence": 1.0,
            "uuid": "41542f50-8311-43c8-9ec6-078665bee9df",
            "name": "Potassium",
            "url": "https://haz-map.com/Agents/1526",
            "category": "agents"
          },
          {
            "type": "name_match",
            "text": "irritants",
            "confidence": 1.0,
            "uuid": "9d2b9572-8c3e-48a4-ac68-63d6e2eb6f49",
            "name": "Irritants",
            "url": "https://haz-map.com/Agents/2063",
            "category": "agents"
          },
          {
            "type": "name_match",
            "text": "methemoglobin",
            "confidence": 1.0,
            "uuid": "afb7ebf5-d2a3-4e60-8d2e-3a19456344ee",
            "name": "Methemoglobin",
            "url": "https://haz-map.com/Agents/15467",
            "category": "agents"
          },
          {
            "type": "name_match",
            "text": "water",
            "confidence": 1.0,
            "uuid": "6f2a7557-dfd2-49bc-9b4b-a93cd8e225d4",
            "name": "Water",
            "url": "https://haz-map.com/Agents/18668",
            "category": "agents"
          },
          {
            "type": "fuzzy_match",
            "text": "methemoglobinemia",
            "matched_name": "Methemoglobinemia, acute",
            "confidence": 0.7208333333333333,
            "uuid": "473a44bd-cf11-4710-a769-e8e2b25ba317",
            "category": "diseases",
            "url": "https://haz-map.com/Diseases/210"
          }
        ]
      },
      "biomedical_references": {
        "original_name": "Biomedical References",
        "value": "Search PubMed",
        "links": [
          {
            "text": "Search PubMed",
            "url": "https://www.ncbi.nlm.nih.gov/pubmed?term=Potassium+permanganate%20AND%20human%5Bmh%5D%20AND%20%28Occupational%20Diseases%20%5Bmh%5D%20OR%20Occupational%20Exposure%20%5Bmh%5D%29%20%20AND%20%28tox%5Bsb%5D%29&cmd=search"
          }
        ],
        "cross_references": []
      }
    },
    "exposure_assessment": {
      "bioaccumulates": {
        "original_name": "Bioaccumulates",
        "value": "Yes",
        "links": [],
        "cross_references": []
      },
      "tlv_acgih": {
        "original_name": "TLV (ACGIH)",
        "value": "0.02 mg/m3, as Mn (respirable fraction), 0.1 mg/m3, as Mn (inhalable fraction)",
        "links": [],
        "cross_references": []
      },
      "pel_osha": {
        "original_name": "PEL (OSHA)",
        "value": "Ceiling(OSHA)=5 mg/m3, as Mn",
        "links": [],
        "cross_references": []
      },
      "mak": {
        "original_name": "MAK",
        "value": "0.2 mg/m3, as MN (inhalable fraction), 0.02 mg/m3, as Mn (respirable fraction)",
        "links": [],
        "cross_references": []
      },
      "vapor_pressure": {
        "original_name": "Vapor Pressure",
        "value": "2.32E-20 mm Hg",
        "links": [],
        "cross_references": []
      }
    },
    "adverse_effects": {
      "toxic_pneumonitis": {
        "original_name": "Toxic Pneumonitis",
        "value": "Yes",
        "links": [],
        "cross_references": []
      },
      "methemoglobinemia": {
        "original_name": "Methemoglobinemia",
        "value": "MetHgb is secondary toxic effect",
        "links": [],
        "cross_references": []
      },
      "neurotoxin": {
        "original_name": "Neurotoxin",
        "value": "Parkinsonism",
        "links": [],
        "cross_references": []
      },
      "hepatotoxin": {
        "original_name": "Hepatotoxin",
        "value": "Hepatoxic (a) from occupational exposure (secondary effect) or (b) in animal studies or in humans after ingestion",
        "links": [],
        "cross_references": []
      },
      "dermatotoxin": {
        "original_name": "Dermatotoxin",
        "value": "Skin burns",
        "links": [],
        "cross_references": [
          {
            "type": "name_match",
            "text": "burn",
            "confidence": 1.0,
            "uuid": "63665de5-6376-4918-8dbf-4c10c4d63837",
            "name": "burn",
            "url": "https://haz-map.com/Findings/204",
            "category": "findings"
          }
        ]
      }
    },
    "diseases_processes_and_activities_linked_to_this_agent": {
      "diseases": {
        "original_name": "Diseases",
        "value": "Occupational diseases associated with exposure to this agent: Manganese, chronic toxic effect",
        "links": [
          {
            "text": "Manganese, chronic toxic effect",
            "url": "https://haz-map.com/Diseases/239"
          }
        ],
        "cross_references": [
          {
            "type": "url_match",
            "text": "Manganese, chronic toxic effect",
            "url": "https://haz-map.com/Diseases/239",
            "confidence": 1.0,
            "uuid": "d02205a8-d411-4a56-b130-ae416140f93a",
            "name": "Manganese, chronic toxic effect",
            "category": "diseases"
          },
          {
            "type": "name_match",
            "text": "manganese",
            "confidence": 1.0,
            "uuid": "efa71491-cbc6-446b-a11e-5faa3e453c0d",
            "name": "Manganese",
            "url": "https://haz-map.com/Agents/39",
            "category": "agents"
          },
          {
            "type": "fuzzy_match",
            "text": "chronic toxic effect",
            "matched_name": "Arsenic, chronic toxic effect",
            "confidence": 0.7376847290640394,
            "uuid": "af797cc4-dd4f-43a6-af2e-d3a8f9d72cd3",
            "category": "diseases",
            "url": "https://haz-map.com/Diseases/36"
          },
          {
            "type": "fuzzy_match",
            "text": "chronic toxic effect",
            "matched_name": "Chromium, chronic toxic effect",
            "confidence": 0.7261904761904762,
            "uuid": "cb808753-5a2c-485a-878c-f5b5371ff3e6",
            "category": "diseases",
            "url": "https://haz-map.com/Diseases/17"
          }
        ]
      },
      "processes": {
        "original_name": "Processes",
        "value": "Industrial Processes with risk of exposure: Farming (Pesticides) Leather Tanning and Processing Photographic Processing Sewer and Wastewater Treatment Textiles (Printing, Dyeing, or Finishing) Using Disinfectants or Biocides",
        "links": [
          {
            "text": "Farming (Pesticides)",
            "url": "https://haz-map.com/Processes/218"
          },
          {
            "text": "Leather Tanning and Processing",
            "url": "https://haz-map.com/Processes/230"
          },
          {
            "text": "Photographic Processing",
            "url": "https://haz-map.com/Processes/231"
          },
          {
            "text": "Sewer and Wastewater Treatment",
            "url": "https://haz-map.com/Processes/220"
          },
          {
            "text": "Textiles (Printing, Dyeing, or Finishing)",
            "url": "https://haz-map.com/Processes/235"
          },
          {
            "text": "Using Disinfectants or Biocides",
            "url": "https://haz-map.com/Processes/167"
          }
        ],
        "cross_references": [
          {
            "type": "url_match",
            "text": "Farming (Pesticides)",
            "url": "https://haz-map.com/Processes/218",
            "confidence": 1.0,
            "uuid": "cf1e5815-c9bb-4917-82a5-391848170b7e",
            "name": "Farming (Pesticides)",
            "category": "processes"
          },
          {
            "type": "url_match",
            "text": "Sewer and Wastewater Treatment",
            "url": "https://haz-map.com/Processes/220",
            "confidence": 1.0,
            "uuid": "5fcac3ca-db2e-47cc-8175-126a1f3b1e1a",
            "name": "Sewer and Wastewater Treatment",
            "category": "processes"
          },
          {
            "type": "url_match",
            "text": "Using Disinfectants or Biocides",
            "url": "https://haz-map.com/Processes/167",
            "confidence": 1.0,
            "uuid": "7accb745-ad60-4ef8-9039-8ac4febb8fd8",
            "name": "Using Disinfectants or Biocides",
            "category": "processes"
          },
          {
            "type": "name_match",
            "text": "water",
            "confidence": 1.0,
            "uuid": "6f2a7557-dfd2-49bc-9b4b-a93cd8e225d4",
            "name": "Water",
            "url": "https://haz-map.com/Agents/18668",
            "category": "agents"
          }
        ]
      }
    }
  },
  "cross_references": [
    {
      "type": "url_match",
      "text": "Manganese, chronic toxic effect",
      "url": "https://haz-map.com/Diseases/239",
      "confidence": 1.0,
      "uuid": "d02205a8-d411-4a56-b130-ae416140f93a",
      "name": "Manganese, chronic toxic effect",
      "category": "diseases"
    },
    {
      "type": "url_match",
      "text": "Farming (Pesticides)",
      "url": "https://haz-map.com/Processes/218",
      "confidence": 1.0,
      "uuid": "cf1e5815-c9bb-4917-82a5-391848170b7e",
      "name": "Farming (Pesticides)",
      "category": "processes"
    },
    {
      "type": "url_match",
      "text": "Sewer and Wastewater Treatment",
      "url": "https://haz-map.com/Processes/220",
      "confidence": 1.0,
      "uuid": "5fcac3ca-db2e-47cc-8175-126a1f3b1e1a",
      "name": "Sewer and Wastewater Treatment",
      "category": "processes"
    },
    {
      "type": "url_match",
      "text": "Using Disinfectants or Biocides",
      "url": "https://haz-map.com/Processes/167",
      "confidence": 1.0,
      "uuid": "7accb745-ad60-4ef8-9039-8ac4febb8fd8",
      "name": "Using Disinfectants or Biocides",
      "category": "processes"
    },
    {
      "type": "name_match",
      "text": "pulmonary edema",
      "confidence": 1.0,
      "uuid": "ee39114e-c922-40fd-9588-a532de404962",
      "name": "pulmonary edema",
      "url": "https://haz-map.com/Findings/186",
      "category": "findings"
    },
    {
      "type": "name_match",
      "text": "burn",
      "confidence": 1.0,
      "uuid": "63665de5-6376-4918-8dbf-4c10c4d63837",
      "name": "burn",
      "url": "https://haz-map.com/Findings/204",
      "category": "findings"
    },
    {
      "type": "name_match",
      "text": "manganese",
      "confidence": 1.0,
      "uuid": "efa71491-cbc6-446b-a11e-5faa3e453c0d",
      "name": "Manganese",
      "url": "https://haz-map.com/Agents/39",
      "category": "agents"
    },
    {
      "type": "name_match",
      "text": "potassium hydroxide",
      "confidence": 1.0,
      "uuid": "c437c099-636b-4192-9f13-628e3f255de8",
      "name": "Potassium hydroxide",
      "url": "https://haz-map.com/Agents/606",
      "category": "agents"
    },
    {
      "type": "name_match",
      "text": "ash",
      "confidence": 1.0,
      "uuid": "68b360f1-5ad0-4337-bea0-d7adca2961b5",
      "name": "Ash",
      "url": "https://haz-map.com/Agents/965",
      "category": "agents"
    },
    {
      "type": "name_match",
      "text": "tali",
      "confidence": 1.0,
      "uuid": "8c3a0f99-2143-4122-b539-ec5cc49596b0",
      "name": "Tali",
      "url": "https://haz-map.com/Agents/1128",
      "category": "agents"
    },
    {
      "type": "name_match",
      "text": "potassium",
      "confidence": 1.0,
      "uuid": "41542f50-8311-43c8-9ec6-078665bee9df",
      "name": "Potassium",
      "url": "https://haz-map.com/Agents/1526",
      "category": "agents"
    },
    {
      "type": "name_match",
      "text": "potassium permanganate",
      "confidence": 1.0,
      "uuid": "ac4cf7f2-787f-4e88-a8c3-1a1bbb7917fc",
      "name": "Potassium permanganate",
      "url": "https://haz-map.com/Agents/1556",
      "category": "agents"
    },
    {
      "type": "name_match",
      "text": "irritants",
      "confidence": 1.0,
      "uuid": "9d2b9572-8c3e-48a4-ac68-63d6e2eb6f49",
      "name": "Irritants",
      "url": "https://haz-map.com/Agents/2063",
      "category": "agents"
    },
    {
      "type": "name_match",
      "text": "ht",
      "confidence": 1.0,
      "uuid": "764df367-8d53-4a11-81a2-31ccfe122a8d",
      "name": "HT",
      "url": "https://haz-map.com/Agents/2168",
      "category": "agents"
    },
    {
      "type": "name_match",
      "text": "methemoglobin",
      "confidence": 1.0,
      "uuid": "afb7ebf5-d2a3-4e60-8d2e-3a19456344ee",
      "name": "Methemoglobin",
      "url": "https://haz-map.com/Agents/15467",
      "category": "agents"
    },
    {
      "type": "name_match",
      "text": "potassium oxide",
      "confidence": 1.0,
      "uuid": "20245cfa-5b67-459a-af80-9ccd3a80f317",
      "name": "Potassium oxide",
      "url": "https://haz-map.com/Agents/16848",
      "category": "agents"
    },
    {
      "type": "name_match",
      "text": "water",
      "confidence": 1.0,
      "uuid": "6f2a7557-dfd2-49bc-9b4b-a93cd8e225d4",
      "name": "Water",
      "url": "https://haz-map.com/Agents/18668",
      "category": "agents"
    },
    {
      "type": "fuzzy_match",
      "text": "chronic toxic effect",
      "matched_name": "Arsenic, chronic toxic effect",
      "confidence": 0.7376847290640394,
      "uuid": "af797cc4-dd4f-43a6-af2e-d3a8f9d72cd3",
      "category": "diseases",
      "url": "https://haz-map.com/Diseases/36"
    },
    {
      "type": "fuzzy_match",
      "text": "chronic toxic effect",
      "matched_name": "Chromium, chronic toxic effect",
      "confidence": 0.7261904761904762,
      "uuid": "cb808753-5a2c-485a-878c-f5b5371ff3e6",
      "category": "diseases",
      "url": "https://haz-map.com/Diseases/17"
    },
    {
      "type": "fuzzy_match",
      "text": "methemoglobinemia",
      "matched_name": "Methemoglobinemia, acute",
      "confidence": 0.7208333333333333,
      "uuid": "473a44bd-cf11-4710-a769-e8e2b25ba317",
      "category": "diseases",
      "url": "https://haz-map.com/Diseases/210"
    }
  ],
  "all_links": [
    {
      "text": "Search PubMed",
      "url": "https://www.ncbi.nlm.nih.gov/pubmed?term=Potassium+permanganate%20AND%20human%5Bmh%5D%20AND%20%28Occupational%20Diseases%20%5Bmh%5D%20OR%20Occupational%20Exposure%20%5Bmh%5D%29%20%20AND%20%28tox%5Bsb%5D%29&cmd=search"
    },
    {
      "text": "Manganese, chronic toxic effect",
      "url": "https://haz-map.com/Diseases/239"
    },
    {
      "text": "Farming (Pesticides)",
      "url": "https://haz-map.com/Processes/218"
    },
    {
      "text": "Leather Tanning and Processing",
      "url": "https://haz-map.com/Processes/230"
    },
    {
      "text": "Photographic Processing",
      "url": "https://haz-map.com/Processes/231"
    },
    {
      "text": "Sewer and Wastewater Treatment",
      "url": "https://haz-map.com/Processes/220"
    },
    {
      "text": "Textiles (Printing, Dyeing, or Finishing)",
      "url": "https://haz-map.com/Processes/235"
    },
    {
      "text": "Using Disinfectants or Biocides",
      "url": "https://haz-map.com/Processes/167"
    }
  ]
}