{
  "metadata": {
    "scraped_from": "https://haz-map.com/Agents/18380",
    "entity_name": "Tri-n-amylamine",
    "category": "agents",
    "uuid": "ac50a58f-801c-497d-a75c-44adc29a9963",
    "scraped_at": "2025-07-23T21:55:03.899040"
  },
  "parsed_at": "2025-07-24T01:06:15.704159",
  "title": "Tri-n-amylamine",
  "sections": {
    "general": {
      "agent_name": {
        "original_name": "Agent Name",
        "value": "Tri-n-amylamine",
        "links": [],
        "cross_references": [
          {
            "type": "name_match",
            "text": "tri-n-amylamine",
            "confidence": 1.0,
            "uuid": "ac50a58f-801c-497d-a75c-44adc29a9963",
            "name": "Tri-n-amylamine",
            "url": "https://haz-map.com/Agents/18380",
            "category": "agents"
          }
        ]
      },
      "cas_number": {
        "original_name": "CAS Number",
        "value": "621-77-2",
        "links": [],
        "cross_references": []
      },
      "formula": {
        "original_name": "Formula",
        "value": "C15-H33-N",
        "links": [],
        "cross_references": []
      },
      "major_category": {
        "original_name": "Major Category",
        "value": "Nitrogen Compounds",
        "links": [],
        "cross_references": [
          {
            "type": "name_match",
            "text": "nitrogen",
            "confidence": 1.0,
            "uuid": "db5e90a9-06d2-45b9-8b81-f345a89b0bc0",
            "name": "Nitrogen",
            "url": "https://haz-map.com/Agents/1072",
            "category": "agents"
          }
        ]
      },
      "synonyms": {
        "original_name": "Synonyms",
        "value": "Tri-N-amylamine; 1-Pentanamine, N,N-dipentyl-; Tripentylamine; Tri-n-pentylamine; Triamylamine; [ChemIDplus] N,N-Dipentyl-1-pentanamine; [CAMEO] UN2735",
        "links": [],
        "cross_references": [
          {
            "type": "name_match",
            "text": "n-pentylamine",
            "confidence": 1.0,
            "uuid": "6c6b0f0d-0426-47f7-b590-92214ca956f5",
            "name": "n-Pentylamine",
            "url": "https://haz-map.com/Agents/1423",
            "category": "agents"
          },
          {
            "type": "name_match",
            "text": "tri-n-amylamine",
            "confidence": 1.0,
            "uuid": "ac50a58f-801c-497d-a75c-44adc29a9963",
            "name": "Tri-n-amylamine",
            "url": "https://haz-map.com/Agents/18380",
            "category": "agents"
          }
        ]
      },
      "category": {
        "original_name": "Category",
        "value": "Amines, Aliphatic",
        "links": [],
        "cross_references": []
      },
      "description": {
        "original_name": "Description",
        "value": "Colorless to yellow liquid with an amine odor; [CAMEO] Colorless liquid; [Sigma-Aldrich MSDS]",
        "links": [],
        "cross_references": []
      },
      "sourcesuses": {
        "original_name": "Sources/Uses",
        "value": "Used as a corrosion inhibitor and in insecticidal formulations; [NTP]",
        "links": [],
        "cross_references": []
      },
      "comments": {
        "original_name": "Comments",
        "value": "An irritant; [NTP] Causes burns; Inhalation may cause corrosive injuries to upper respiratory tract and lungs; Harmful by ingestion; [Sigma-Aldrich MSDS]",
        "links": [],
        "cross_references": [
          {
            "type": "name_match",
            "text": "burn",
            "confidence": 1.0,
            "uuid": "63665de5-6376-4918-8dbf-4c10c4d63837",
            "name": "burn",
            "url": "https://haz-map.com/Findings/204",
            "category": "findings"
          }
        ]
      },
      "biomedical_references": {
        "original_name": "Biomedical References",
        "value": "Search PubMed",
        "links": [
          {
            "text": "Search PubMed",
            "url": "https://www.ncbi.nlm.nih.gov/pubmed?term=Tri-n-amylamine%20AND%20human%5Bmh%5D%20AND%20%28Occupational%20Diseases%20%5Bmh%5D%20OR%20Occupational%20Exposure%20%5Bmh%5D%29%20%20AND%20%28tox%5Bsb%5D%29&cmd=search"
          }
        ],
        "cross_references": []
      }
    },
    "exposure_assessment": {
      "vapor_pressure": {
        "original_name": "Vapor Pressure",
        "value": "1 mm Hg",
        "links": [],
        "cross_references": []
      },
      "explanatory_notes": {
        "original_name": "Explanatory Notes",
        "value": "Vapor pressure = 7 mm Hg at 26 deg C; [NTP] The Guide in the Emergency Response Guidebook is for \"Amines, liquid, corrosive, n.o.s.\"",
        "links": [],
        "cross_references": []
      },
      "nfpa": {
        "original_name": "NFPA",
        "value": "must be preheated",
        "links": [],
        "cross_references": []
      }
    },
    "adverse_effects": {
      "toxic_pneumonitis": {
        "original_name": "Toxic Pneumonitis",
        "value": "Yes",
        "links": [],
        "cross_references": []
      },
      "dermatotoxin": {
        "original_name": "Dermatotoxin",
        "value": "Skin burns",
        "links": [],
        "cross_references": [
          {
            "type": "name_match",
            "text": "burn",
            "confidence": 1.0,
            "uuid": "63665de5-6376-4918-8dbf-4c10c4d63837",
            "name": "burn",
            "url": "https://haz-map.com/Findings/204",
            "category": "findings"
          }
        ]
      }
    },
    "diseases_processes_and_activities_linked_to_this_agent": {
      "other_information": {
        "original_name": "Other Information",
        "value": "No other related information on this agent was found.",
        "links": [],
        "cross_references": []
      }
    }
  },
  "cross_references": [
    {
      "type": "name_match",
      "text": "burn",
      "confidence": 1.0,
      "uuid": "63665de5-6376-4918-8dbf-4c10c4d63837",
      "name": "burn",
      "url": "https://haz-map.com/Findings/204",
      "category": "findings"
    },
    {
      "type": "name_match",
      "text": "nitrogen",
      "confidence": 1.0,
      "uuid": "db5e90a9-06d2-45b9-8b81-f345a89b0bc0",
      "name": "Nitrogen",
      "url": "https://haz-map.com/Agents/1072",
      "category": "agents"
    },
    {
      "type": "name_match",
      "text": "n-pentylamine",
      "confidence": 1.0,
      "uuid": "6c6b0f0d-0426-47f7-b590-92214ca956f5",
      "name": "n-Pentylamine",
      "url": "https://haz-map.com/Agents/1423",
      "category": "agents"
    },
    {
      "type": "name_match",
      "text": "tri-n-amylamine",
      "confidence": 1.0,
      "uuid": "ac50a58f-801c-497d-a75c-44adc29a9963",
      "name": "Tri-n-amylamine",
      "url": "https://haz-map.com/Agents/18380",
      "category": "agents"
    }
  ],
  "all_links": [
    {
      "text": "Search PubMed",
      "url": "https://www.ncbi.nlm.nih.gov/pubmed?term=Tri-n-amylamine%20AND%20human%5Bmh%5D%20AND%20%28Occupational%20Diseases%20%5Bmh%5D%20OR%20Occupational%20Exposure%20%5Bmh%5D%29%20%20AND%20%28tox%5Bsb%5D%29&cmd=search"
    }
  ]
}