{
  "metadata": {
    "scraped_from": "https://haz-map.com/Agents/16306",
    "entity_name": "Oxamic acid",
    "category": "agents",
    "uuid": "ac54bc00-f6da-46ff-aa8a-0c693dfd2626",
    "scraped_at": "2025-07-23T21:36:15.123158"
  },
  "parsed_at": "2025-07-24T00:51:51.140103",
  "title": "Oxamic acid",
  "sections": {
    "general": {
      "agent_name": {
        "original_name": "Agent Name",
        "value": "Oxamic acid",
        "links": [],
        "cross_references": [
          {
            "type": "name_match",
            "text": "oxamic acid",
            "confidence": 1.0,
            "uuid": "ac54bc00-f6da-46ff-aa8a-0c693dfd2626",
            "name": "Oxamic acid",
            "url": "https://haz-map.com/Agents/16306",
            "category": "agents"
          }
        ]
      },
      "cas_number": {
        "original_name": "CAS Number",
        "value": "471-47-6",
        "links": [],
        "cross_references": []
      },
      "formula": {
        "original_name": "Formula",
        "value": "C2-H3-N-O3",
        "links": [],
        "cross_references": []
      },
      "major_category": {
        "original_name": "Major Category",
        "value": "Nitrogen Compounds",
        "links": [],
        "cross_references": [
          {
            "type": "name_match",
            "text": "nitrogen",
            "confidence": 1.0,
            "uuid": "db5e90a9-06d2-45b9-8b81-f345a89b0bc0",
            "name": "Nitrogen",
            "url": "https://haz-map.com/Agents/1072",
            "category": "agents"
          }
        ]
      },
      "synonyms": {
        "original_name": "Synonyms",
        "value": "Formic acid, (aminocarbonyl)-; Formic acid, carbamoyl-; Glycine, 2-oxo-; Glyoxylic acid, amino-; Oxalic acid monoamide; Oxamate; Acetic acid, 2-amino-2-oxo-; Acetic acid, aminooxo-; [ChemIDplus] Aminooxoacetic acid; Oxalamic acid; Oxamidic acid; 2-Amino-2-oxoacetic acid; [Merck Index]",
        "links": [],
        "cross_references": [
          {
            "type": "name_match",
            "text": "acetic acid",
            "confidence": 1.0,
            "uuid": "0905c6e4-df84-4895-a92d-658819239bbd",
            "name": "Acetic acid",
            "url": "https://haz-map.com/Agents/207",
            "category": "agents"
          },
          {
            "type": "name_match",
            "text": "formic acid",
            "confidence": 1.0,
            "uuid": "5de50e8b-f1d4-40c0-a85a-79ed7fd08ea8",
            "name": "Formic acid",
            "url": "https://haz-map.com/Agents/497",
            "category": "agents"
          },
          {
            "type": "name_match",
            "text": "carbon",
            "confidence": 1.0,
            "uuid": "b53f8815-ee80-40ef-b4aa-3b000e17dab5",
            "name": "Carbon",
            "url": "https://haz-map.com/Agents/1891",
            "category": "agents"
          },
          {
            "type": "name_match",
            "text": "aminocarb",
            "confidence": 1.0,
            "uuid": "5d9f60fe-2b75-4090-9f26-4057a66b2cf6",
            "name": "Aminocarb",
            "url": "https://haz-map.com/Agents/3627",
            "category": "agents"
          },
          {
            "type": "name_match",
            "text": "glyoxylic acid",
            "confidence": 1.0,
            "uuid": "9a494de6-a33d-4794-9235-27f27305cf3a",
            "name": "Glyoxylic acid",
            "url": "https://haz-map.com/Agents/5451",
            "category": "agents"
          },
          {
            "type": "name_match",
            "text": "glycine",
            "confidence": 1.0,
            "uuid": "820f614c-594c-4165-b9ef-dbbd5cd636a8",
            "name": "Glycine",
            "url": "https://haz-map.com/Agents/14439",
            "category": "agents"
          }
        ]
      },
      "category": {
        "original_name": "Category",
        "value": "Amino Carboxylic Acids",
        "links": [],
        "cross_references": []
      },
      "description": {
        "original_name": "Description",
        "value": "Solid; [Merck Index] White powder; [Alfa Aesar MSDS]",
        "links": [],
        "cross_references": []
      },
      "comments": {
        "original_name": "Comments",
        "value": "A skin and strong eye irritant; [Alfa Aesar MSDS] See \"Oxamide.\" See \"Acetic acid.\"",
        "links": [],
        "cross_references": [
          {
            "type": "name_match",
            "text": "acetic acid",
            "confidence": 1.0,
            "uuid": "0905c6e4-df84-4895-a92d-658819239bbd",
            "name": "Acetic acid",
            "url": "https://haz-map.com/Agents/207",
            "category": "agents"
          },
          {
            "type": "name_match",
            "text": "oxamide",
            "confidence": 1.0,
            "uuid": "3b911451-e34f-4ab7-9228-2919a8e1aad5",
            "name": "Oxamide",
            "url": "https://haz-map.com/Agents/16307",
            "category": "agents"
          }
        ]
      },
      "biomedical_references": {
        "original_name": "Biomedical References",
        "value": "Search PubMed",
        "links": [
          {
            "text": "Search PubMed",
            "url": "https://www.ncbi.nlm.nih.gov/pubmed?term=Oxamic+acid%20AND%20human%5Bmh%5D%20AND%20%28Occupational%20Diseases%20%5Bmh%5D%20OR%20Occupational%20Exposure%20%5Bmh%5D%29%20%20AND%20%28tox%5Bsb%5D%29&cmd=search"
          }
        ],
        "cross_references": []
      }
    },
    "exposure_assessment": {
      "vapor_pressure": {
        "original_name": "Vapor Pressure",
        "value": "4.64E-07 mm Hg",
        "links": [],
        "cross_references": []
      }
    },
    "diseases_processes_and_activities_linked_to_this_agent": {
      "other_information": {
        "original_name": "Other Information",
        "value": "No other related information on this agent was found.",
        "links": [],
        "cross_references": []
      }
    }
  },
  "cross_references": [
    {
      "type": "name_match",
      "text": "acetic acid",
      "confidence": 1.0,
      "uuid": "0905c6e4-df84-4895-a92d-658819239bbd",
      "name": "Acetic acid",
      "url": "https://haz-map.com/Agents/207",
      "category": "agents"
    },
    {
      "type": "name_match",
      "text": "formic acid",
      "confidence": 1.0,
      "uuid": "5de50e8b-f1d4-40c0-a85a-79ed7fd08ea8",
      "name": "Formic acid",
      "url": "https://haz-map.com/Agents/497",
      "category": "agents"
    },
    {
      "type": "name_match",
      "text": "nitrogen",
      "confidence": 1.0,
      "uuid": "db5e90a9-06d2-45b9-8b81-f345a89b0bc0",
      "name": "Nitrogen",
      "url": "https://haz-map.com/Agents/1072",
      "category": "agents"
    },
    {
      "type": "name_match",
      "text": "carbon",
      "confidence": 1.0,
      "uuid": "b53f8815-ee80-40ef-b4aa-3b000e17dab5",
      "name": "Carbon",
      "url": "https://haz-map.com/Agents/1891",
      "category": "agents"
    },
    {
      "type": "name_match",
      "text": "aminocarb",
      "confidence": 1.0,
      "uuid": "5d9f60fe-2b75-4090-9f26-4057a66b2cf6",
      "name": "Aminocarb",
      "url": "https://haz-map.com/Agents/3627",
      "category": "agents"
    },
    {
      "type": "name_match",
      "text": "glyoxylic acid",
      "confidence": 1.0,
      "uuid": "9a494de6-a33d-4794-9235-27f27305cf3a",
      "name": "Glyoxylic acid",
      "url": "https://haz-map.com/Agents/5451",
      "category": "agents"
    },
    {
      "type": "name_match",
      "text": "glycine",
      "confidence": 1.0,
      "uuid": "820f614c-594c-4165-b9ef-dbbd5cd636a8",
      "name": "Glycine",
      "url": "https://haz-map.com/Agents/14439",
      "category": "agents"
    },
    {
      "type": "name_match",
      "text": "oxamic acid",
      "confidence": 1.0,
      "uuid": "ac54bc00-f6da-46ff-aa8a-0c693dfd2626",
      "name": "Oxamic acid",
      "url": "https://haz-map.com/Agents/16306",
      "category": "agents"
    },
    {
      "type": "name_match",
      "text": "oxamide",
      "confidence": 1.0,
      "uuid": "3b911451-e34f-4ab7-9228-2919a8e1aad5",
      "name": "Oxamide",
      "url": "https://haz-map.com/Agents/16307",
      "category": "agents"
    }
  ],
  "all_links": [
    {
      "text": "Search PubMed",
      "url": "https://www.ncbi.nlm.nih.gov/pubmed?term=Oxamic+acid%20AND%20human%5Bmh%5D%20AND%20%28Occupational%20Diseases%20%5Bmh%5D%20OR%20Occupational%20Exposure%20%5Bmh%5D%29%20%20AND%20%28tox%5Bsb%5D%29&cmd=search"
    }
  ]
}