{
  "metadata": {
    "scraped_from": "https://haz-map.com/Agents/20031",
    "entity_name": "4-Dodecylphenol",
    "category": "agents",
    "uuid": "ac734ffd-fb68-403c-aae9-abd5c98489f2",
    "scraped_at": "2025-07-23T22:17:39.587298"
  },
  "parsed_at": "2025-07-24T01:11:09.972177",
  "title": "4-Dodecylphenol",
  "sections": {
    "general": {
      "agent_name": {
        "original_name": "Agent Name",
        "value": "4-Dodecylphenol",
        "links": [],
        "cross_references": [
          {
            "type": "name_match",
            "text": "phenol",
            "confidence": 1.0,
            "uuid": "03141a03-a7df-4f51-9a37-adde1a7c4b31",
            "name": "Phenol",
            "url": "https://haz-map.com/Agents/84",
            "category": "agents"
          },
          {
            "type": "name_match",
            "text": "dodecylphenol",
            "confidence": 1.0,
            "uuid": "a0cbc22c-cc75-439c-bb1f-c0b95555bd6b",
            "name": "Dodecylphenol",
            "url": "https://haz-map.com/Agents/5056",
            "category": "agents"
          },
          {
            "type": "name_match",
            "text": "4-dodecylphenol",
            "confidence": 1.0,
            "uuid": "ac734ffd-fb68-403c-aae9-abd5c98489f2",
            "name": "4-Dodecylphenol",
            "url": "https://haz-map.com/Agents/20031",
            "category": "agents"
          }
        ]
      },
      "cas_number": {
        "original_name": "CAS Number",
        "value": "104-43-8",
        "links": [],
        "cross_references": []
      },
      "formula": {
        "original_name": "Formula",
        "value": "C18-H30-O",
        "links": [],
        "cross_references": []
      },
      "major_category": {
        "original_name": "Major Category",
        "value": "Other Classes",
        "links": [],
        "cross_references": []
      },
      "synonyms": {
        "original_name": "Synonyms",
        "value": "p-Dodecylphenol; Phenol, 4-dodecyl-; Phenol, p-dodecyl-; [ChemIDplus] UN3145",
        "links": [],
        "cross_references": [
          {
            "type": "name_match",
            "text": "phenol",
            "confidence": 1.0,
            "uuid": "03141a03-a7df-4f51-9a37-adde1a7c4b31",
            "name": "Phenol",
            "url": "https://haz-map.com/Agents/84",
            "category": "agents"
          },
          {
            "type": "name_match",
            "text": "dodecylphenol",
            "confidence": 1.0,
            "uuid": "a0cbc22c-cc75-439c-bb1f-c0b95555bd6b",
            "name": "Dodecylphenol",
            "url": "https://haz-map.com/Agents/5056",
            "category": "agents"
          }
        ]
      },
      "category": {
        "original_name": "Category",
        "value": "Phenols",
        "links": [],
        "cross_references": [
          {
            "type": "name_match",
            "text": "phenol",
            "confidence": 1.0,
            "uuid": "03141a03-a7df-4f51-9a37-adde1a7c4b31",
            "name": "Phenol",
            "url": "https://haz-map.com/Agents/84",
            "category": "agents"
          }
        ]
      },
      "description": {
        "original_name": "Description",
        "value": "Straw-colored liquid with a phenolic odor; [Fisher Scientific MSDS]",
        "links": [],
        "cross_references": [
          {
            "type": "name_match",
            "text": "phenol",
            "confidence": 1.0,
            "uuid": "03141a03-a7df-4f51-9a37-adde1a7c4b31",
            "name": "Phenol",
            "url": "https://haz-map.com/Agents/84",
            "category": "agents"
          }
        ]
      },
      "comments": {
        "original_name": "Comments",
        "value": "May cause irritation; [Fisher Scientific MSDS] See \"Dodecylphenol.\"",
        "links": [],
        "cross_references": [
          {
            "type": "name_match",
            "text": "phenol",
            "confidence": 1.0,
            "uuid": "03141a03-a7df-4f51-9a37-adde1a7c4b31",
            "name": "Phenol",
            "url": "https://haz-map.com/Agents/84",
            "category": "agents"
          },
          {
            "type": "name_match",
            "text": "dodecylphenol",
            "confidence": 1.0,
            "uuid": "a0cbc22c-cc75-439c-bb1f-c0b95555bd6b",
            "name": "Dodecylphenol",
            "url": "https://haz-map.com/Agents/5056",
            "category": "agents"
          }
        ]
      },
      "biomedical_references": {
        "original_name": "Biomedical References",
        "value": "Search PubMed",
        "links": [
          {
            "text": "Search PubMed",
            "url": "https://www.ncbi.nlm.nih.gov/pubmed?term=4-Dodecylphenol%20AND%20human%5Bmh%5D%20AND%20%28Occupational%20Diseases%20%5Bmh%5D%20OR%20Occupational%20Exposure%20%5Bmh%5D%29%20%20AND%20%28tox%5Bsb%5D%29&cmd=search"
          }
        ],
        "cross_references": []
      }
    },
    "exposure_assessment": {
      "vapor_pressure": {
        "original_name": "Vapor Pressure",
        "value": "2.3E-06 mm Hg",
        "links": [],
        "cross_references": []
      },
      "explanatory_notes": {
        "original_name": "Explanatory Notes",
        "value": "The Guide in the Emergency Response Guidebook is for \"Alkyl phenols, liquid, n.o.s. (including C2-C12 homologues).\"",
        "links": [],
        "cross_references": [
          {
            "type": "name_match",
            "text": "phenol",
            "confidence": 1.0,
            "uuid": "03141a03-a7df-4f51-9a37-adde1a7c4b31",
            "name": "Phenol",
            "url": "https://haz-map.com/Agents/84",
            "category": "agents"
          }
        ]
      }
    },
    "diseases_processes_and_activities_linked_to_this_agent": {
      "other_information": {
        "original_name": "Other Information",
        "value": "No other related information on this agent was found.",
        "links": [],
        "cross_references": []
      }
    }
  },
  "cross_references": [
    {
      "type": "name_match",
      "text": "phenol",
      "confidence": 1.0,
      "uuid": "03141a03-a7df-4f51-9a37-adde1a7c4b31",
      "name": "Phenol",
      "url": "https://haz-map.com/Agents/84",
      "category": "agents"
    },
    {
      "type": "name_match",
      "text": "dodecylphenol",
      "confidence": 1.0,
      "uuid": "a0cbc22c-cc75-439c-bb1f-c0b95555bd6b",
      "name": "Dodecylphenol",
      "url": "https://haz-map.com/Agents/5056",
      "category": "agents"
    },
    {
      "type": "name_match",
      "text": "4-dodecylphenol",
      "confidence": 1.0,
      "uuid": "ac734ffd-fb68-403c-aae9-abd5c98489f2",
      "name": "4-Dodecylphenol",
      "url": "https://haz-map.com/Agents/20031",
      "category": "agents"
    }
  ],
  "all_links": [
    {
      "text": "Search PubMed",
      "url": "https://www.ncbi.nlm.nih.gov/pubmed?term=4-Dodecylphenol%20AND%20human%5Bmh%5D%20AND%20%28Occupational%20Diseases%20%5Bmh%5D%20OR%20Occupational%20Exposure%20%5Bmh%5D%29%20%20AND%20%28tox%5Bsb%5D%29&cmd=search"
    }
  ]
}