{
  "metadata": {
    "scraped_from": "https://haz-map.com/Agents/6182",
    "entity_name": "Mitomycin B",
    "category": "agents",
    "uuid": "ad874bc5-546b-435d-baa8-59215dd620a2",
    "scraped_at": "2025-07-23T19:59:17.066438"
  },
  "parsed_at": "2025-07-24T00:55:29.143102",
  "title": "Mitomycin B",
  "sections": {
    "general": {
      "agent_name": {
        "original_name": "Agent Name",
        "value": "Mitomycin B",
        "links": [],
        "cross_references": [
          {
            "type": "name_match",
            "text": "mitomycin b",
            "confidence": 1.0,
            "uuid": "ad874bc5-546b-435d-baa8-59215dd620a2",
            "name": "Mitomycin B",
            "url": "https://haz-map.com/Agents/6182",
            "category": "agents"
          }
        ]
      },
      "cas_number": {
        "original_name": "CAS Number",
        "value": "4055-40-7",
        "links": [],
        "cross_references": []
      },
      "formula": {
        "original_name": "Formula",
        "value": "C16-H19-N3-O6",
        "links": [],
        "cross_references": []
      },
      "major_category": {
        "original_name": "Major Category",
        "value": "Biological Agents",
        "links": [],
        "cross_references": []
      },
      "synonyms": {
        "original_name": "Synonyms",
        "value": "Azirino(2',3':3,4)pyrrolo(1,2-a)indole-4,7-dione, 1,1a,2,8,8a,8b-hexahydro-8a-hydroxy-8-(hydroxymethyl)-6-methoxy-1,5-dimethyl-, 8-carbamate; [ChemIDplus]",
        "links": [],
        "cross_references": [
          {
            "type": "name_match",
            "text": "indole",
            "confidence": 1.0,
            "uuid": "9c93731a-de8c-47f7-94f9-bfba35edd847",
            "name": "Indole",
            "url": "https://haz-map.com/Agents/5628",
            "category": "agents"
          }
        ]
      },
      "category": {
        "original_name": "Category",
        "value": "Bacterial Toxins",
        "links": [],
        "cross_references": []
      },
      "description": {
        "original_name": "Description",
        "value": "Violet solid; [Merck Index]",
        "links": [],
        "cross_references": []
      },
      "sourcesuses": {
        "original_name": "Sources/Uses",
        "value": "Mitomycins are antitumor antibiotics made by Streptomyces caespitosus (griseovinaceseus); Mitomycin C is used as an antineoplastic drug; [Merck Index] Mitomycins: Used as DNA alkylating/cross-linking agents; [HSDB]",
        "links": [],
        "cross_references": [
          {
            "type": "name_match",
            "text": "mitomycin c",
            "confidence": 1.0,
            "uuid": "9548f463-1530-40b9-b12f-6dead0e94d91",
            "name": "Mitomycin C",
            "url": "https://haz-map.com/Agents/2056",
            "category": "agents"
          }
        ]
      },
      "comments": {
        "original_name": "Comments",
        "value": "Emergency treatment: \"Mitomycin C\"; [HSDB] See \"Mitomycin C.\"",
        "links": [],
        "cross_references": [
          {
            "type": "name_match",
            "text": "mitomycin c",
            "confidence": 1.0,
            "uuid": "9548f463-1530-40b9-b12f-6dead0e94d91",
            "name": "Mitomycin C",
            "url": "https://haz-map.com/Agents/2056",
            "category": "agents"
          }
        ]
      },
      "biomedical_references": {
        "original_name": "Biomedical References",
        "value": "Search PubMed",
        "links": [
          {
            "text": "Search PubMed",
            "url": "https://www.ncbi.nlm.nih.gov/pubmed?term=Mitomycin+B%20AND%20human%5Bmh%5D%20AND%20%28Occupational%20Diseases%20%5Bmh%5D%20OR%20Occupational%20Exposure%20%5Bmh%5D%29%20%20AND%20%28tox%5Bsb%5D%29&cmd=search"
          }
        ],
        "cross_references": []
      }
    },
    "exposure_assessment": {
      "vapor_pressure": {
        "original_name": "Vapor Pressure",
        "value": "6.15E-12 mm Hg",
        "links": [],
        "cross_references": []
      }
    },
    "diseases_processes_and_activities_linked_to_this_agent": {
      "other_information": {
        "original_name": "Other Information",
        "value": "No other related information on this agent was found.",
        "links": [],
        "cross_references": []
      }
    }
  },
  "cross_references": [
    {
      "type": "name_match",
      "text": "mitomycin c",
      "confidence": 1.0,
      "uuid": "9548f463-1530-40b9-b12f-6dead0e94d91",
      "name": "Mitomycin C",
      "url": "https://haz-map.com/Agents/2056",
      "category": "agents"
    },
    {
      "type": "name_match",
      "text": "indole",
      "confidence": 1.0,
      "uuid": "9c93731a-de8c-47f7-94f9-bfba35edd847",
      "name": "Indole",
      "url": "https://haz-map.com/Agents/5628",
      "category": "agents"
    },
    {
      "type": "name_match",
      "text": "mitomycin b",
      "confidence": 1.0,
      "uuid": "ad874bc5-546b-435d-baa8-59215dd620a2",
      "name": "Mitomycin B",
      "url": "https://haz-map.com/Agents/6182",
      "category": "agents"
    }
  ],
  "all_links": [
    {
      "text": "Search PubMed",
      "url": "https://www.ncbi.nlm.nih.gov/pubmed?term=Mitomycin+B%20AND%20human%5Bmh%5D%20AND%20%28Occupational%20Diseases%20%5Bmh%5D%20OR%20Occupational%20Exposure%20%5Bmh%5D%29%20%20AND%20%28tox%5Bsb%5D%29&cmd=search"
    }
  ]
}