{
  "metadata": {
    "scraped_from": "https://haz-map.com/Agents/7826",
    "entity_name": "tert-Butyl glycidyl ether",
    "category": "agents",
    "uuid": "ad93c377-7589-4218-9104-e84c98a4c925",
    "scraped_at": "2025-07-23T20:17:10.740731"
  },
  "parsed_at": "2025-07-24T00:56:50.007291",
  "title": "tert-Butyl glycidyl ether",
  "sections": {
    "general": {
      "agent_name": {
        "original_name": "Agent Name",
        "value": "tert-Butyl glycidyl ether",
        "links": [],
        "cross_references": [
          {
            "type": "name_match",
            "text": "tert-butyl glycidyl ether",
            "confidence": 1.0,
            "uuid": "ad93c377-7589-4218-9104-e84c98a4c925",
            "name": "tert-Butyl glycidyl ether",
            "url": "https://haz-map.com/Agents/7826",
            "category": "agents"
          }
        ]
      },
      "cas_number": {
        "original_name": "CAS Number",
        "value": "7665-72-7",
        "links": [],
        "cross_references": []
      },
      "formula": {
        "original_name": "Formula",
        "value": "C7-H14-O2",
        "links": [],
        "cross_references": []
      },
      "major_category": {
        "original_name": "Major Category",
        "value": "Plastics & Rubber",
        "links": [],
        "cross_references": []
      },
      "synonyms": {
        "original_name": "Synonyms",
        "value": "1,1-Dimethylethyl glycidyl ether; 2,3-Epoxypropyl-t-butyl ether; Propane, 1-tert-butoxy-2,3-epoxy-; t-BGE; t-Butyl glycidyl ether; (tert-Butoxymethyl)oxirane; Oxirane, ((1,1-dimethylethoxy)methyl)-; Oxirane, 2-((1,1-dimethylethoxy)methyl)-; [ChemIDplus] UN3271",
        "links": [],
        "cross_references": [
          {
            "type": "name_match",
            "text": "propane",
            "confidence": 1.0,
            "uuid": "563a611b-46ea-4bdc-b77b-17d8f7646283",
            "name": "Propane",
            "url": "https://haz-map.com/Agents/607",
            "category": "agents"
          },
          {
            "type": "name_match",
            "text": "ethyl glycidyl ether",
            "confidence": 1.0,
            "uuid": "e517c7b4-4c22-4333-a6d9-4d8ed10789ef",
            "name": "Ethyl glycidyl ether",
            "url": "https://haz-map.com/Agents/5233",
            "category": "agents"
          }
        ]
      },
      "category": {
        "original_name": "Category",
        "value": "Glycidyl Ethers",
        "links": [],
        "cross_references": [
          {
            "type": "name_match",
            "text": "glycidyl ethers",
            "confidence": 1.0,
            "uuid": "98e1a57e-699e-42d4-9ba1-63424bb1f3ce",
            "name": "GLYCIDYL ETHERS",
            "url": "https://haz-map.com/Agents/705",
            "category": "agents"
          }
        ]
      },
      "description": {
        "original_name": "Description",
        "value": "Clear liquid; [CAMEO]",
        "links": [],
        "cross_references": []
      },
      "comments": {
        "original_name": "Comments",
        "value": "A skin and eye irritant; [CAMEO] An eye irritant; May cause skin sensitization; [MSDSonline] Danger of cutaneous absorption; Danger of skin sensitization; [MAK]",
        "links": [],
        "cross_references": []
      },
      "biomedical_references": {
        "original_name": "Biomedical References",
        "value": "Search PubMed",
        "links": [
          {
            "text": "Search PubMed",
            "url": "https://www.ncbi.nlm.nih.gov/pubmed?term=tert-Butyl+glycidyl+ether%20AND%20human%5Bmh%5D%20AND%20%28Occupational%20Diseases%20%5Bmh%5D%20OR%20Occupational%20Exposure%20%5Bmh%5D%29%20%20AND%20%28tox%5Bsb%5D%29&cmd=search"
          }
        ],
        "cross_references": []
      }
    },
    "exposure_assessment": {
      "explanatory_notes": {
        "original_name": "Explanatory Notes",
        "value": "Flash Point = 110 deg F; [CAMEO] The Guide in the Emergency Response Guidebook is for \"Ethers, n.o.s.\"",
        "links": [],
        "cross_references": [
          {
            "type": "name_match",
            "text": "ash",
            "confidence": 1.0,
            "uuid": "68b360f1-5ad0-4337-bea0-d7adca2961b5",
            "name": "Ash",
            "url": "https://haz-map.com/Agents/965",
            "category": "agents"
          }
        ]
      }
    },
    "adverse_effects": {
      "skin_sensitizer": {
        "original_name": "Skin Sensitizer",
        "value": "Yes",
        "links": [],
        "cross_references": []
      }
    },
    "diseases_processes_and_activities_linked_to_this_agent": {
      "diseases": {
        "original_name": "Diseases",
        "value": "Occupational diseases associated with exposure to this agent: Contact dermatitis, allergic",
        "links": [
          {
            "text": "Contact dermatitis, allergic",
            "url": "https://haz-map.com/Diseases/18"
          }
        ],
        "cross_references": [
          {
            "type": "url_match",
            "text": "Contact dermatitis, allergic",
            "url": "https://haz-map.com/Diseases/18",
            "confidence": 1.0,
            "uuid": "c9499de0-9aa1-41bf-8753-cd5b28a63e29",
            "name": "Contact dermatitis, allergic",
            "category": "diseases"
          },
          {
            "type": "name_match",
            "text": "dermatitis",
            "confidence": 1.0,
            "uuid": "fe9c05f2-b19f-4ceb-ac7a-ffb7d7a0cae0",
            "name": "dermatitis",
            "url": "https://haz-map.com/Findings/59",
            "category": "findings"
          }
        ]
      }
    }
  },
  "cross_references": [
    {
      "type": "url_match",
      "text": "Contact dermatitis, allergic",
      "url": "https://haz-map.com/Diseases/18",
      "confidence": 1.0,
      "uuid": "c9499de0-9aa1-41bf-8753-cd5b28a63e29",
      "name": "Contact dermatitis, allergic",
      "category": "diseases"
    },
    {
      "type": "name_match",
      "text": "dermatitis",
      "confidence": 1.0,
      "uuid": "fe9c05f2-b19f-4ceb-ac7a-ffb7d7a0cae0",
      "name": "dermatitis",
      "url": "https://haz-map.com/Findings/59",
      "category": "findings"
    },
    {
      "type": "name_match",
      "text": "propane",
      "confidence": 1.0,
      "uuid": "563a611b-46ea-4bdc-b77b-17d8f7646283",
      "name": "Propane",
      "url": "https://haz-map.com/Agents/607",
      "category": "agents"
    },
    {
      "type": "name_match",
      "text": "glycidyl ethers",
      "confidence": 1.0,
      "uuid": "98e1a57e-699e-42d4-9ba1-63424bb1f3ce",
      "name": "GLYCIDYL ETHERS",
      "url": "https://haz-map.com/Agents/705",
      "category": "agents"
    },
    {
      "type": "name_match",
      "text": "ash",
      "confidence": 1.0,
      "uuid": "68b360f1-5ad0-4337-bea0-d7adca2961b5",
      "name": "Ash",
      "url": "https://haz-map.com/Agents/965",
      "category": "agents"
    },
    {
      "type": "name_match",
      "text": "ethyl glycidyl ether",
      "confidence": 1.0,
      "uuid": "e517c7b4-4c22-4333-a6d9-4d8ed10789ef",
      "name": "Ethyl glycidyl ether",
      "url": "https://haz-map.com/Agents/5233",
      "category": "agents"
    },
    {
      "type": "name_match",
      "text": "tert-butyl glycidyl ether",
      "confidence": 1.0,
      "uuid": "ad93c377-7589-4218-9104-e84c98a4c925",
      "name": "tert-Butyl glycidyl ether",
      "url": "https://haz-map.com/Agents/7826",
      "category": "agents"
    }
  ],
  "all_links": [
    {
      "text": "Search PubMed",
      "url": "https://www.ncbi.nlm.nih.gov/pubmed?term=tert-Butyl+glycidyl+ether%20AND%20human%5Bmh%5D%20AND%20%28Occupational%20Diseases%20%5Bmh%5D%20OR%20Occupational%20Exposure%20%5Bmh%5D%29%20%20AND%20%28tox%5Bsb%5D%29&cmd=search"
    },
    {
      "text": "Contact dermatitis, allergic",
      "url": "https://haz-map.com/Diseases/18"
    }
  ]
}