{
  "metadata": {
    "scraped_from": "https://haz-map.com/Agents/20835",
    "entity_name": "Methyl cyanoacetate",
    "category": "agents",
    "uuid": "ada02793-8d48-4bcb-a5c5-ae0b089a32bc",
    "scraped_at": "2025-07-23T22:32:42.388999"
  },
  "parsed_at": "2025-07-24T00:56:23.623090",
  "title": "Methyl cyanoacetate",
  "sections": {
    "general": {
      "agent_name": {
        "original_name": "Agent Name",
        "value": "Methyl cyanoacetate",
        "links": [],
        "cross_references": [
          {
            "type": "name_match",
            "text": "ethyl cyanoacetate",
            "confidence": 1.0,
            "uuid": "c4188bed-312b-4292-b7c2-19611bdc29ad",
            "name": "Ethyl cyanoacetate",
            "url": "https://haz-map.com/Agents/5200",
            "category": "agents"
          },
          {
            "type": "name_match",
            "text": "methyl cyanoacetate",
            "confidence": 1.0,
            "uuid": "ada02793-8d48-4bcb-a5c5-ae0b089a32bc",
            "name": "Methyl cyanoacetate",
            "url": "https://haz-map.com/Agents/20835",
            "category": "agents"
          }
        ]
      },
      "cas_number": {
        "original_name": "CAS Number",
        "value": "105-34-0",
        "links": [],
        "cross_references": []
      },
      "formula": {
        "original_name": "Formula",
        "value": "C4-H5-N-O2",
        "links": [],
        "cross_references": []
      },
      "major_category": {
        "original_name": "Major Category",
        "value": "Nitrogen Compounds",
        "links": [],
        "cross_references": [
          {
            "type": "name_match",
            "text": "nitrogen",
            "confidence": 1.0,
            "uuid": "db5e90a9-06d2-45b9-8b81-f345a89b0bc0",
            "name": "Nitrogen",
            "url": "https://haz-map.com/Agents/1072",
            "category": "agents"
          }
        ]
      },
      "synonyms": {
        "original_name": "Synonyms",
        "value": "Cyanoacetic acid methyl ester; Methyl 2-cyanoacetate; Methyl cyanoethanoate; Methylester kyseliny kyanoctove [Czech]; Acetic acid, 2-cyano-, methyl ester; Acetic acid, cyano-, methyl ester; [ChemIDplus]",
        "links": [],
        "cross_references": [
          {
            "type": "name_match",
            "text": "acetic acid",
            "confidence": 1.0,
            "uuid": "0905c6e4-df84-4895-a92d-658819239bbd",
            "name": "Acetic acid",
            "url": "https://haz-map.com/Agents/207",
            "category": "agents"
          },
          {
            "type": "name_match",
            "text": "cyanoacetic acid",
            "confidence": 1.0,
            "uuid": "0638e68e-85b6-4a2e-8a4a-eca5f6d5dcb0",
            "name": "Cyanoacetic acid",
            "url": "https://haz-map.com/Agents/4559",
            "category": "agents"
          }
        ]
      },
      "category": {
        "original_name": "Category",
        "value": "Nitriles",
        "links": [],
        "cross_references": [
          {
            "type": "name_match",
            "text": "nitriles",
            "confidence": 1.0,
            "uuid": "41430895-c07a-4421-888b-3d7122a4cd55",
            "name": "NITRILES",
            "url": "https://haz-map.com/Agents/715",
            "category": "agents"
          }
        ]
      },
      "description": {
        "original_name": "Description",
        "value": "Colorless liquid with a mild odor; [Alfa Aesar MSDS]",
        "links": [],
        "cross_references": []
      },
      "sourcesuses": {
        "original_name": "Sources/Uses",
        "value": "Used to make large scale and fine chemicals, pharmaceuticals, plastic products, and computer-electronic-optical equipment; [ExPub: ECHA REACH Registrations]",
        "links": [],
        "cross_references": [
          {
            "type": "name_match",
            "text": "mica",
            "confidence": 1.0,
            "uuid": "433f26f1-c399-4596-b179-ce3843cfd465",
            "name": "Mica",
            "url": "https://haz-map.com/Agents/621",
            "category": "agents"
          },
          {
            "type": "name_match",
            "text": "pharmaceuticals",
            "confidence": 1.0,
            "uuid": "713c3c30-b67e-4a2f-a90f-b32f8a306332",
            "name": "PHARMACEUTICALS",
            "url": "https://haz-map.com/Agents/1000",
            "category": "agents"
          }
        ]
      },
      "comments": {
        "original_name": "Comments",
        "value": "A strong eye irritant; [Alfa Aesar MSDS] See \"Ethyl cyanoacetate.\"",
        "links": [],
        "cross_references": [
          {
            "type": "name_match",
            "text": "ethyl cyanoacetate",
            "confidence": 1.0,
            "uuid": "c4188bed-312b-4292-b7c2-19611bdc29ad",
            "name": "Ethyl cyanoacetate",
            "url": "https://haz-map.com/Agents/5200",
            "category": "agents"
          }
        ]
      },
      "biomedical_references": {
        "original_name": "Biomedical References",
        "value": "Search PubMed",
        "links": [
          {
            "text": "Search PubMed",
            "url": "https://www.ncbi.nlm.nih.gov/pubmed?term=Methyl+cyanoacetate%20AND%20human%5Bmh%5D%20AND%20%28Occupational%20Diseases%20%5Bmh%5D%20OR%20Occupational%20Exposure%20%5Bmh%5D%29%20%20AND%20%28tox%5Bsb%5D%29&cmd=search"
          }
        ],
        "cross_references": []
      }
    },
    "exposure_assessment": {
      "vapor_pressure": {
        "original_name": "Vapor Pressure",
        "value": "0.138 mm Hg",
        "links": [],
        "cross_references": []
      }
    },
    "adverse_effects": {
      "other_poison": {
        "original_name": "Other Poison",
        "value": "Chemical Asphyxiant",
        "links": [],
        "cross_references": [
          {
            "type": "name_match",
            "text": "mica",
            "confidence": 1.0,
            "uuid": "433f26f1-c399-4596-b179-ce3843cfd465",
            "name": "Mica",
            "url": "https://haz-map.com/Agents/621",
            "category": "agents"
          }
        ]
      }
    },
    "diseases_processes_and_activities_linked_to_this_agent": {
      "other_information": {
        "original_name": "Other Information",
        "value": "No other related information on this agent was found.",
        "links": [],
        "cross_references": []
      }
    }
  },
  "cross_references": [
    {
      "type": "name_match",
      "text": "acetic acid",
      "confidence": 1.0,
      "uuid": "0905c6e4-df84-4895-a92d-658819239bbd",
      "name": "Acetic acid",
      "url": "https://haz-map.com/Agents/207",
      "category": "agents"
    },
    {
      "type": "name_match",
      "text": "mica",
      "confidence": 1.0,
      "uuid": "433f26f1-c399-4596-b179-ce3843cfd465",
      "name": "Mica",
      "url": "https://haz-map.com/Agents/621",
      "category": "agents"
    },
    {
      "type": "name_match",
      "text": "nitriles",
      "confidence": 1.0,
      "uuid": "41430895-c07a-4421-888b-3d7122a4cd55",
      "name": "NITRILES",
      "url": "https://haz-map.com/Agents/715",
      "category": "agents"
    },
    {
      "type": "name_match",
      "text": "pharmaceuticals",
      "confidence": 1.0,
      "uuid": "713c3c30-b67e-4a2f-a90f-b32f8a306332",
      "name": "PHARMACEUTICALS",
      "url": "https://haz-map.com/Agents/1000",
      "category": "agents"
    },
    {
      "type": "name_match",
      "text": "nitrogen",
      "confidence": 1.0,
      "uuid": "db5e90a9-06d2-45b9-8b81-f345a89b0bc0",
      "name": "Nitrogen",
      "url": "https://haz-map.com/Agents/1072",
      "category": "agents"
    },
    {
      "type": "name_match",
      "text": "cyanoacetic acid",
      "confidence": 1.0,
      "uuid": "0638e68e-85b6-4a2e-8a4a-eca5f6d5dcb0",
      "name": "Cyanoacetic acid",
      "url": "https://haz-map.com/Agents/4559",
      "category": "agents"
    },
    {
      "type": "name_match",
      "text": "ethyl cyanoacetate",
      "confidence": 1.0,
      "uuid": "c4188bed-312b-4292-b7c2-19611bdc29ad",
      "name": "Ethyl cyanoacetate",
      "url": "https://haz-map.com/Agents/5200",
      "category": "agents"
    },
    {
      "type": "name_match",
      "text": "methyl cyanoacetate",
      "confidence": 1.0,
      "uuid": "ada02793-8d48-4bcb-a5c5-ae0b089a32bc",
      "name": "Methyl cyanoacetate",
      "url": "https://haz-map.com/Agents/20835",
      "category": "agents"
    }
  ],
  "all_links": [
    {
      "text": "Search PubMed",
      "url": "https://www.ncbi.nlm.nih.gov/pubmed?term=Methyl+cyanoacetate%20AND%20human%5Bmh%5D%20AND%20%28Occupational%20Diseases%20%5Bmh%5D%20OR%20Occupational%20Exposure%20%5Bmh%5D%29%20%20AND%20%28tox%5Bsb%5D%29&cmd=search"
    }
  ]
}