{
  "metadata": {
    "scraped_from": "https://haz-map.com/Agents/11734",
    "entity_name": "alpha-Endosulfan",
    "category": "agents",
    "uuid": "add002a4-53f1-4d1a-a9da-3862b23c76f9",
    "scraped_at": "2025-07-23T21:03:30.293869"
  },
  "parsed_at": "2025-07-24T01:14:23.652299",
  "title": "alpha-Endosulfan",
  "sections": {
    "general": {
      "agent_name": {
        "original_name": "Agent Name",
        "value": "alpha-Endosulfan",
        "links": [],
        "cross_references": [
          {
            "type": "name_match",
            "text": "endosulfan",
            "confidence": 1.0,
            "uuid": "34c14ddb-098c-4c70-84cf-366a5ffcb19e",
            "name": "Endosulfan",
            "url": "https://haz-map.com/Agents/234",
            "category": "agents"
          },
          {
            "type": "name_match",
            "text": "alpha-endosulfan",
            "confidence": 1.0,
            "uuid": "add002a4-53f1-4d1a-a9da-3862b23c76f9",
            "name": "alpha-Endosulfan",
            "url": "https://haz-map.com/Agents/11734",
            "category": "agents"
          }
        ]
      },
      "cas_number": {
        "original_name": "CAS Number",
        "value": "959-98-8",
        "links": [],
        "cross_references": []
      },
      "formula": {
        "original_name": "Formula",
        "value": "C9-H6-Cl6-O3-S",
        "links": [],
        "cross_references": []
      },
      "major_category": {
        "original_name": "Major Category",
        "value": "Pesticides",
        "links": [],
        "cross_references": []
      },
      "synonyms": {
        "original_name": "Synonyms",
        "value": "Endosulfan 1; Endosulfan A; Endosulfan I; a-Endosulfan-alpha; alpha-Benzoepin; alpha-Thiodan; beta-Thionex; 5-Norbornene-2,3-dimethanol, 1,4,5,6,7,7-hexachloro-, cyclic sulfite, endo-; 6,9-Methano-2,4,3-benzodioxathiepin, 6,7,8,9,10,10-hexachloro-1,5,5a,6,9,9a-hexahydro-, 3-oxide, (3alpha,5abeta,6alpha,9alpha,9abeta)-; 6,9-Methano-2,4,3-benzodioxathiepin, 6,7,8,9,10,10-hexachloro-1,5,5a,6,9,9a-hexahydro-, 3-oxide, alpha-isomer (3alpha,5a beta,6alpha,9alpha,9a beta)-; Endosulfan, alpha; [ChemIDplus] 6,7,8,9,10,10-Hexachloro-1,5,5a,6,9,9a-hexahydro-6,9-methano-2,4,3-benzodioxathiepin-3-oxide; [Reference #1] UN2761",
        "links": [],
        "cross_references": [
          {
            "type": "name_match",
            "text": "endosulfan",
            "confidence": 1.0,
            "uuid": "34c14ddb-098c-4c70-84cf-366a5ffcb19e",
            "name": "Endosulfan",
            "url": "https://haz-map.com/Agents/234",
            "category": "agents"
          }
        ]
      },
      "category": {
        "original_name": "Category",
        "value": "Organochlorine Pesticides",
        "links": [],
        "cross_references": [
          {
            "type": "name_match",
            "text": "chlorine",
            "confidence": 1.0,
            "uuid": "8a67a545-61fb-4d71-865e-ff2725a0b999",
            "name": "Chlorine",
            "url": "https://haz-map.com/Agents/89",
            "category": "agents"
          },
          {
            "type": "name_match",
            "text": "chlorin",
            "confidence": 1.0,
            "uuid": "4a566fec-ec7e-42b0-9f14-ec586335e694",
            "name": "Chlorin",
            "url": "https://haz-map.com/Agents/20422",
            "category": "agents"
          }
        ]
      },
      "description": {
        "original_name": "Description",
        "value": "Technical product: Light to dark brown solid; Formulated as liquid emulsifiable concentrate and wettable powder; [Reference #1] White crystalline solid; [Sigma-Aldrich MSDS]",
        "links": [],
        "cross_references": [
          {
            "type": "name_match",
            "text": "ht",
            "confidence": 1.0,
            "uuid": "764df367-8d53-4a11-81a2-31ccfe122a8d",
            "name": "HT",
            "url": "https://haz-map.com/Agents/2168",
            "category": "agents"
          },
          {
            "type": "fuzzy_match",
            "text": "crystalline",
            "matched_name": "Silica, crystalline",
            "confidence": 0.7061403508771931,
            "uuid": "f920e8a2-46df-41b7-af8d-0368a777251e",
            "category": "agents",
            "url": "https://haz-map.com/Agents/427"
          }
        ]
      },
      "sourcesuses": {
        "original_name": "Sources/Uses",
        "value": "Used as a broad spectrum contact insecticide and acaricide for various vegetables, fruits, cereal grains, cotton, and ornamentals; Registered in 2006 for use in impregnated cattle ear tags for control of flies, lice, and ticks on beef and lactating dairy cattle; [Reference #1] Used in Belgium as a wood preservative; [ExPub: OSPAR Commission]",
        "links": [],
        "cross_references": []
      },
      "comments": {
        "original_name": "Comments",
        "value": "Technical endosulfan is composed of the alpha (70%) and beta (30%) stereoisomers; [Reference #1] A CNS stimulant that causes convulsions; Highly toxic by ingestion, inhalation, and skin absorption; [NTP] May cause irritation; Toxic by ingestion; [Sigma-Aldrich MSDS] See \"Endosulfan.\"",
        "links": [],
        "cross_references": [
          {
            "type": "name_match",
            "text": "convulsion",
            "confidence": 1.0,
            "uuid": "af2c36f8-707a-48e3-a62b-1aa07adc9b72",
            "name": "convulsion",
            "url": "https://haz-map.com/Findings/14",
            "category": "findings"
          },
          {
            "type": "name_match",
            "text": "endosulfan",
            "confidence": 1.0,
            "uuid": "34c14ddb-098c-4c70-84cf-366a5ffcb19e",
            "name": "Endosulfan",
            "url": "https://haz-map.com/Agents/234",
            "category": "agents"
          }
        ]
      },
      "reference_link_1": {
        "original_name": "Reference Link #1",
        "value": "EPA Pesticide Chemical Search",
        "links": [
          {
            "text": "EPA Pesticide Chemical Search",
            "url": "https://iaspub.epa.gov/apex/pesticides/f?p=CHEMICALSEARCH:1:"
          }
        ],
        "cross_references": [
          {
            "type": "name_match",
            "text": "mica",
            "confidence": 1.0,
            "uuid": "433f26f1-c399-4596-b179-ce3843cfd465",
            "name": "Mica",
            "url": "https://haz-map.com/Agents/621",
            "category": "agents"
          }
        ]
      },
      "biomedical_references": {
        "original_name": "Biomedical References",
        "value": "Search PubMed",
        "links": [
          {
            "text": "Search PubMed",
            "url": "https://www.ncbi.nlm.nih.gov/pubmed?term=alpha-Endosulfan%20AND%20human%5Bmh%5D%20AND%20%28Occupational%20Diseases%20%5Bmh%5D%20OR%20Occupational%20Exposure%20%5Bmh%5D%29%20%20AND%20%28tox%5Bsb%5D%29&cmd=search"
          }
        ],
        "cross_references": []
      }
    },
    "exposure_assessment": {
      "vapor_pressure": {
        "original_name": "Vapor Pressure",
        "value": "3E-06 mm Hg",
        "links": [],
        "cross_references": []
      },
      "explanatory_notes": {
        "original_name": "Explanatory Notes",
        "value": "The Guide in the Emergency Response Guidebook is for \"Organochlorine pesticide, solid, toxic.\"",
        "links": [],
        "cross_references": [
          {
            "type": "name_match",
            "text": "chlorine",
            "confidence": 1.0,
            "uuid": "8a67a545-61fb-4d71-865e-ff2725a0b999",
            "name": "Chlorine",
            "url": "https://haz-map.com/Agents/89",
            "category": "agents"
          },
          {
            "type": "name_match",
            "text": "chlorin",
            "confidence": 1.0,
            "uuid": "4a566fec-ec7e-42b0-9f14-ec586335e694",
            "name": "Chlorin",
            "url": "https://haz-map.com/Agents/20422",
            "category": "agents"
          }
        ]
      }
    },
    "adverse_effects": {
      "other_poison": {
        "original_name": "Other Poison",
        "value": "Organochlorine",
        "links": [],
        "cross_references": [
          {
            "type": "name_match",
            "text": "chlorine",
            "confidence": 1.0,
            "uuid": "8a67a545-61fb-4d71-865e-ff2725a0b999",
            "name": "Chlorine",
            "url": "https://haz-map.com/Agents/89",
            "category": "agents"
          },
          {
            "type": "name_match",
            "text": "chlorin",
            "confidence": 1.0,
            "uuid": "4a566fec-ec7e-42b0-9f14-ec586335e694",
            "name": "Chlorin",
            "url": "https://haz-map.com/Agents/20422",
            "category": "agents"
          }
        ]
      }
    },
    "diseases_processes_and_activities_linked_to_this_agent": {
      "diseases": {
        "original_name": "Diseases",
        "value": "Occupational diseases associated with exposure to this agent: Organochlorine insecticides, acute poisoning",
        "links": [
          {
            "text": "Organochlorine insecticides, acute poisoning",
            "url": "https://haz-map.com/Diseases/165"
          }
        ],
        "cross_references": [
          {
            "type": "url_match",
            "text": "Organochlorine insecticides, acute poisoning",
            "url": "https://haz-map.com/Diseases/165",
            "confidence": 1.0,
            "uuid": "45193447-c4e4-4c0d-9be3-1adb006864c3",
            "name": "Organochlorine insecticides, acute poisoning",
            "category": "diseases"
          },
          {
            "type": "name_match",
            "text": "chlorine",
            "confidence": 1.0,
            "uuid": "8a67a545-61fb-4d71-865e-ff2725a0b999",
            "name": "Chlorine",
            "url": "https://haz-map.com/Agents/89",
            "category": "agents"
          },
          {
            "type": "name_match",
            "text": "chlorin",
            "confidence": 1.0,
            "uuid": "4a566fec-ec7e-42b0-9f14-ec586335e694",
            "name": "Chlorin",
            "url": "https://haz-map.com/Agents/20422",
            "category": "agents"
          }
        ]
      },
      "processes": {
        "original_name": "Processes",
        "value": "Industrial Processes with risk of exposure: Applying Wood Preservatives Farming (Pesticides)",
        "links": [
          {
            "text": "Applying Wood Preservatives",
            "url": "https://haz-map.com/Processes/160"
          },
          {
            "text": "Farming (Pesticides)",
            "url": "https://haz-map.com/Processes/218"
          }
        ],
        "cross_references": [
          {
            "type": "url_match",
            "text": "Applying Wood Preservatives",
            "url": "https://haz-map.com/Processes/160",
            "confidence": 1.0,
            "uuid": "f04d008f-6345-4199-a15d-51f765989cfa",
            "name": "Applying Wood Preservatives",
            "category": "processes"
          },
          {
            "type": "url_match",
            "text": "Farming (Pesticides)",
            "url": "https://haz-map.com/Processes/218",
            "confidence": 1.0,
            "uuid": "cf1e5815-c9bb-4917-82a5-391848170b7e",
            "name": "Farming (Pesticides)",
            "category": "processes"
          }
        ]
      }
    }
  },
  "cross_references": [
    {
      "type": "url_match",
      "text": "Organochlorine insecticides, acute poisoning",
      "url": "https://haz-map.com/Diseases/165",
      "confidence": 1.0,
      "uuid": "45193447-c4e4-4c0d-9be3-1adb006864c3",
      "name": "Organochlorine insecticides, acute poisoning",
      "category": "diseases"
    },
    {
      "type": "url_match",
      "text": "Applying Wood Preservatives",
      "url": "https://haz-map.com/Processes/160",
      "confidence": 1.0,
      "uuid": "f04d008f-6345-4199-a15d-51f765989cfa",
      "name": "Applying Wood Preservatives",
      "category": "processes"
    },
    {
      "type": "url_match",
      "text": "Farming (Pesticides)",
      "url": "https://haz-map.com/Processes/218",
      "confidence": 1.0,
      "uuid": "cf1e5815-c9bb-4917-82a5-391848170b7e",
      "name": "Farming (Pesticides)",
      "category": "processes"
    },
    {
      "type": "name_match",
      "text": "convulsion",
      "confidence": 1.0,
      "uuid": "af2c36f8-707a-48e3-a62b-1aa07adc9b72",
      "name": "convulsion",
      "url": "https://haz-map.com/Findings/14",
      "category": "findings"
    },
    {
      "type": "name_match",
      "text": "chlorine",
      "confidence": 1.0,
      "uuid": "8a67a545-61fb-4d71-865e-ff2725a0b999",
      "name": "Chlorine",
      "url": "https://haz-map.com/Agents/89",
      "category": "agents"
    },
    {
      "type": "name_match",
      "text": "endosulfan",
      "confidence": 1.0,
      "uuid": "34c14ddb-098c-4c70-84cf-366a5ffcb19e",
      "name": "Endosulfan",
      "url": "https://haz-map.com/Agents/234",
      "category": "agents"
    },
    {
      "type": "name_match",
      "text": "mica",
      "confidence": 1.0,
      "uuid": "433f26f1-c399-4596-b179-ce3843cfd465",
      "name": "Mica",
      "url": "https://haz-map.com/Agents/621",
      "category": "agents"
    },
    {
      "type": "name_match",
      "text": "ht",
      "confidence": 1.0,
      "uuid": "764df367-8d53-4a11-81a2-31ccfe122a8d",
      "name": "HT",
      "url": "https://haz-map.com/Agents/2168",
      "category": "agents"
    },
    {
      "type": "name_match",
      "text": "alpha-endosulfan",
      "confidence": 1.0,
      "uuid": "add002a4-53f1-4d1a-a9da-3862b23c76f9",
      "name": "alpha-Endosulfan",
      "url": "https://haz-map.com/Agents/11734",
      "category": "agents"
    },
    {
      "type": "name_match",
      "text": "chlorin",
      "confidence": 1.0,
      "uuid": "4a566fec-ec7e-42b0-9f14-ec586335e694",
      "name": "Chlorin",
      "url": "https://haz-map.com/Agents/20422",
      "category": "agents"
    },
    {
      "type": "fuzzy_match",
      "text": "crystalline",
      "matched_name": "Silica, crystalline",
      "confidence": 0.7061403508771931,
      "uuid": "f920e8a2-46df-41b7-af8d-0368a777251e",
      "category": "agents",
      "url": "https://haz-map.com/Agents/427"
    }
  ],
  "all_links": [
    {
      "text": "EPA Pesticide Chemical Search",
      "url": "https://iaspub.epa.gov/apex/pesticides/f?p=CHEMICALSEARCH:1:"
    },
    {
      "text": "Search PubMed",
      "url": "https://www.ncbi.nlm.nih.gov/pubmed?term=alpha-Endosulfan%20AND%20human%5Bmh%5D%20AND%20%28Occupational%20Diseases%20%5Bmh%5D%20OR%20Occupational%20Exposure%20%5Bmh%5D%29%20%20AND%20%28tox%5Bsb%5D%29&cmd=search"
    },
    {
      "text": "Organochlorine insecticides, acute poisoning",
      "url": "https://haz-map.com/Diseases/165"
    },
    {
      "text": "Applying Wood Preservatives",
      "url": "https://haz-map.com/Processes/160"
    },
    {
      "text": "Farming (Pesticides)",
      "url": "https://haz-map.com/Processes/218"
    }
  ]
}