{
  "metadata": {
    "scraped_from": "https://haz-map.com/Agents/13439",
    "entity_name": "Diethylcyclohexane",
    "category": "agents",
    "uuid": "ae41ce49-48a4-4405-996a-a22ca2033b1b",
    "scraped_at": "2025-07-23T21:14:34.475588"
  },
  "parsed_at": "2025-07-24T01:14:29.240890",
  "title": "Diethylcyclohexane",
  "sections": {
    "general": {
      "agent_name": {
        "original_name": "Agent Name",
        "value": "Diethylcyclohexane",
        "links": [],
        "cross_references": [
          {
            "type": "name_match",
            "text": "cyclohexane",
            "confidence": 1.0,
            "uuid": "366fabd7-ac2f-461c-969f-62dfe3bf2377",
            "name": "Cyclohexane",
            "url": "https://haz-map.com/Agents/384",
            "category": "agents"
          },
          {
            "type": "name_match",
            "text": "ethylcyclohexane",
            "confidence": 1.0,
            "uuid": "69a79758-f136-47c2-86d8-130b138f4a83",
            "name": "Ethylcyclohexane",
            "url": "https://haz-map.com/Agents/8339",
            "category": "agents"
          },
          {
            "type": "name_match",
            "text": "diethylcyclohexane",
            "confidence": 1.0,
            "uuid": "ae41ce49-48a4-4405-996a-a22ca2033b1b",
            "name": "Diethylcyclohexane",
            "url": "https://haz-map.com/Agents/13439",
            "category": "agents"
          }
        ]
      },
      "cas_number": {
        "original_name": "CAS Number",
        "value": "1331-43-7",
        "links": [],
        "cross_references": []
      },
      "formula": {
        "original_name": "Formula",
        "value": "C10-H20",
        "links": [],
        "cross_references": []
      },
      "major_category": {
        "original_name": "Major Category",
        "value": "Solvents",
        "links": [],
        "cross_references": []
      },
      "synonyms": {
        "original_name": "Synonyms",
        "value": "Cyclohexane, diethyl-; Diethylcyclohexane (mixed isomers); Cyclohexane, diethyl- (mixed isomers); [ChemIDplus]",
        "links": [],
        "cross_references": [
          {
            "type": "name_match",
            "text": "cyclohexane",
            "confidence": 1.0,
            "uuid": "366fabd7-ac2f-461c-969f-62dfe3bf2377",
            "name": "Cyclohexane",
            "url": "https://haz-map.com/Agents/384",
            "category": "agents"
          },
          {
            "type": "name_match",
            "text": "ethylcyclohexane",
            "confidence": 1.0,
            "uuid": "69a79758-f136-47c2-86d8-130b138f4a83",
            "name": "Ethylcyclohexane",
            "url": "https://haz-map.com/Agents/8339",
            "category": "agents"
          },
          {
            "type": "name_match",
            "text": "diethylcyclohexane",
            "confidence": 1.0,
            "uuid": "ae41ce49-48a4-4405-996a-a22ca2033b1b",
            "name": "Diethylcyclohexane",
            "url": "https://haz-map.com/Agents/13439",
            "category": "agents"
          }
        ]
      },
      "category": {
        "original_name": "Category",
        "value": "Aliphatics, Saturated (<C12)",
        "links": [],
        "cross_references": []
      },
      "description": {
        "original_name": "Description",
        "value": "Liquid.",
        "links": [],
        "cross_references": []
      },
      "comments": {
        "original_name": "Comments",
        "value": "A mild skin and eye irritant; [RTECS] See \"Ethylcyclohexane.\"",
        "links": [],
        "cross_references": [
          {
            "type": "name_match",
            "text": "cyclohexane",
            "confidence": 1.0,
            "uuid": "366fabd7-ac2f-461c-969f-62dfe3bf2377",
            "name": "Cyclohexane",
            "url": "https://haz-map.com/Agents/384",
            "category": "agents"
          },
          {
            "type": "name_match",
            "text": "ethylcyclohexane",
            "confidence": 1.0,
            "uuid": "69a79758-f136-47c2-86d8-130b138f4a83",
            "name": "Ethylcyclohexane",
            "url": "https://haz-map.com/Agents/8339",
            "category": "agents"
          }
        ]
      },
      "biomedical_references": {
        "original_name": "Biomedical References",
        "value": "Search PubMed",
        "links": [
          {
            "text": "Search PubMed",
            "url": "https://www.ncbi.nlm.nih.gov/pubmed?term=Diethylcyclohexane%20AND%20human%5Bmh%5D%20AND%20%28Occupational%20Diseases%20%5Bmh%5D%20OR%20Occupational%20Exposure%20%5Bmh%5D%29%20%20AND%20%28tox%5Bsb%5D%29&cmd=search"
          }
        ],
        "cross_references": []
      }
    },
    "exposure_assessment": {
      "vapor_pressure": {
        "original_name": "Vapor Pressure",
        "value": "2.9 mm Hg",
        "links": [],
        "cross_references": []
      },
      "lethal_concentration": {
        "original_name": "Lethal Concentration",
        "value": "LCLo (rat) = 2,000 ppm/4hr",
        "links": [],
        "cross_references": []
      },
      "explanatory_notes": {
        "original_name": "Explanatory Notes",
        "value": "VP from ChemIDplus;",
        "links": [],
        "cross_references": []
      }
    },
    "adverse_effects": {
      "neurotoxin": {
        "original_name": "Neurotoxin",
        "value": "Acute solvent syndrome",
        "links": [],
        "cross_references": []
      }
    },
    "diseases_processes_and_activities_linked_to_this_agent": {
      "diseases": {
        "original_name": "Diseases",
        "value": "Occupational diseases associated with exposure to this agent: Solvents, acute toxic effect",
        "links": [
          {
            "text": "Solvents, acute toxic effect",
            "url": "https://haz-map.com/Diseases/326"
          }
        ],
        "cross_references": [
          {
            "type": "url_match",
            "text": "Solvents, acute toxic effect",
            "url": "https://haz-map.com/Diseases/326",
            "confidence": 1.0,
            "uuid": "581e90e3-9d0c-45f0-aa6c-3468c28da129",
            "name": "Solvents, acute toxic effect",
            "category": "diseases"
          }
        ]
      }
    }
  },
  "cross_references": [
    {
      "type": "url_match",
      "text": "Solvents, acute toxic effect",
      "url": "https://haz-map.com/Diseases/326",
      "confidence": 1.0,
      "uuid": "581e90e3-9d0c-45f0-aa6c-3468c28da129",
      "name": "Solvents, acute toxic effect",
      "category": "diseases"
    },
    {
      "type": "name_match",
      "text": "cyclohexane",
      "confidence": 1.0,
      "uuid": "366fabd7-ac2f-461c-969f-62dfe3bf2377",
      "name": "Cyclohexane",
      "url": "https://haz-map.com/Agents/384",
      "category": "agents"
    },
    {
      "type": "name_match",
      "text": "ethylcyclohexane",
      "confidence": 1.0,
      "uuid": "69a79758-f136-47c2-86d8-130b138f4a83",
      "name": "Ethylcyclohexane",
      "url": "https://haz-map.com/Agents/8339",
      "category": "agents"
    },
    {
      "type": "name_match",
      "text": "diethylcyclohexane",
      "confidence": 1.0,
      "uuid": "ae41ce49-48a4-4405-996a-a22ca2033b1b",
      "name": "Diethylcyclohexane",
      "url": "https://haz-map.com/Agents/13439",
      "category": "agents"
    }
  ],
  "all_links": [
    {
      "text": "Search PubMed",
      "url": "https://www.ncbi.nlm.nih.gov/pubmed?term=Diethylcyclohexane%20AND%20human%5Bmh%5D%20AND%20%28Occupational%20Diseases%20%5Bmh%5D%20OR%20Occupational%20Exposure%20%5Bmh%5D%29%20%20AND%20%28tox%5Bsb%5D%29&cmd=search"
    },
    {
      "text": "Solvents, acute toxic effect",
      "url": "https://haz-map.com/Diseases/326"
    }
  ]
}