{
  "metadata": {
    "scraped_from": "https://haz-map.com/Agents/3312",
    "entity_name": "4-Methylthiazole",
    "category": "agents",
    "uuid": "ae6d1c2c-2fea-4fdc-ac57-a13d93394de6",
    "scraped_at": "2025-07-23T19:27:27.220611"
  },
  "parsed_at": "2025-07-24T01:13:49.691354",
  "title": "4-Methylthiazole",
  "sections": {
    "general": {
      "agent_name": {
        "original_name": "Agent Name",
        "value": "4-Methylthiazole",
        "links": [],
        "cross_references": [
          {
            "type": "name_match",
            "text": "4-methylthiazole",
            "confidence": 1.0,
            "uuid": "ae6d1c2c-2fea-4fdc-ac57-a13d93394de6",
            "name": "4-Methylthiazole",
            "url": "https://haz-map.com/Agents/3312",
            "category": "agents"
          },
          {
            "type": "name_match",
            "text": "thiazole",
            "confidence": 1.0,
            "uuid": "239903f2-a226-4a4b-bc83-285f21b9610c",
            "name": "Thiazole",
            "url": "https://haz-map.com/Agents/17380",
            "category": "agents"
          }
        ]
      },
      "cas_number": {
        "original_name": "CAS Number",
        "value": "693-95-8",
        "links": [],
        "cross_references": []
      },
      "formula": {
        "original_name": "Formula",
        "value": "C4-H5-N-S",
        "links": [],
        "cross_references": []
      },
      "major_category": {
        "original_name": "Major Category",
        "value": "Nitrogen Compounds",
        "links": [],
        "cross_references": [
          {
            "type": "name_match",
            "text": "nitrogen",
            "confidence": 1.0,
            "uuid": "db5e90a9-06d2-45b9-8b81-f345a89b0bc0",
            "name": "Nitrogen",
            "url": "https://haz-map.com/Agents/1072",
            "category": "agents"
          }
        ]
      },
      "synonyms": {
        "original_name": "Synonyms",
        "value": "Thiazole, 4-methyl-; [ChemIDplus]",
        "links": [],
        "cross_references": [
          {
            "type": "name_match",
            "text": "thiazole",
            "confidence": 1.0,
            "uuid": "239903f2-a226-4a4b-bc83-285f21b9610c",
            "name": "Thiazole",
            "url": "https://haz-map.com/Agents/17380",
            "category": "agents"
          }
        ]
      },
      "category": {
        "original_name": "Category",
        "value": "Thiazoles",
        "links": [],
        "cross_references": [
          {
            "type": "name_match",
            "text": "thiazole",
            "confidence": 1.0,
            "uuid": "239903f2-a226-4a4b-bc83-285f21b9610c",
            "name": "Thiazole",
            "url": "https://haz-map.com/Agents/17380",
            "category": "agents"
          }
        ]
      },
      "description": {
        "original_name": "Description",
        "value": "Colorless liquid; [Alfa Aesar MSDS]",
        "links": [],
        "cross_references": []
      },
      "sourcesuses": {
        "original_name": "Sources/Uses",
        "value": "Used as a research chemical and as a chemical intermediate for 4-Cyanothiazole; Reportedly found naturally in certain foods; [HSDB] Used as a flavoring agent; [JECFA]",
        "links": [],
        "cross_references": [
          {
            "type": "name_match",
            "text": "mica",
            "confidence": 1.0,
            "uuid": "433f26f1-c399-4596-b179-ce3843cfd465",
            "name": "Mica",
            "url": "https://haz-map.com/Agents/621",
            "category": "agents"
          },
          {
            "type": "name_match",
            "text": "4-cyanothiazole",
            "confidence": 1.0,
            "uuid": "d8da8914-c443-4fb8-9527-88e1161e18cc",
            "name": "4-Cyanothiazole",
            "url": "https://haz-map.com/Agents/3296",
            "category": "agents"
          },
          {
            "type": "name_match",
            "text": "thiazole",
            "confidence": 1.0,
            "uuid": "239903f2-a226-4a4b-bc83-285f21b9610c",
            "name": "Thiazole",
            "url": "https://haz-map.com/Agents/17380",
            "category": "agents"
          }
        ]
      },
      "comments": {
        "original_name": "Comments",
        "value": "Safe when used as a flavoring agent in food; [JECFA] Causes zonal hepatitis and other liver changes in 3-day intermittent intraperitoneal study of rats; [RTECS] An irritant; [Alfa Aesar MSDS] See \"Benzothiazole.\"",
        "links": [],
        "cross_references": [
          {
            "type": "name_match",
            "text": "hepatitis a",
            "confidence": 1.0,
            "uuid": "09b2d371-e32a-4123-81c0-51e314e04e32",
            "name": "Hepatitis A",
            "url": "https://haz-map.com/Diseases/184",
            "category": "diseases"
          },
          {
            "type": "name_match",
            "text": "benzothiazole",
            "confidence": 1.0,
            "uuid": "6c7cc5de-c267-4997-9bab-ec67f286b5bb",
            "name": "Benzothiazole",
            "url": "https://haz-map.com/Agents/3866",
            "category": "agents"
          },
          {
            "type": "name_match",
            "text": "thiazole",
            "confidence": 1.0,
            "uuid": "239903f2-a226-4a4b-bc83-285f21b9610c",
            "name": "Thiazole",
            "url": "https://haz-map.com/Agents/17380",
            "category": "agents"
          }
        ]
      },
      "biomedical_references": {
        "original_name": "Biomedical References",
        "value": "Search PubMed",
        "links": [
          {
            "text": "Search PubMed",
            "url": "https://www.ncbi.nlm.nih.gov/pubmed?term=4-Methylthiazole%20AND%20human%5Bmh%5D%20AND%20%28Occupational%20Diseases%20%5Bmh%5D%20OR%20Occupational%20Exposure%20%5Bmh%5D%29%20%20AND%20%28tox%5Bsb%5D%29&cmd=search"
          }
        ],
        "cross_references": []
      }
    },
    "exposure_assessment": {
      "vapor_pressure": {
        "original_name": "Vapor Pressure",
        "value": "8.6 mm Hg",
        "links": [],
        "cross_references": []
      },
      "explanatory_notes": {
        "original_name": "Explanatory Notes",
        "value": "VP from ChemIDplus;",
        "links": [],
        "cross_references": []
      }
    },
    "adverse_effects": {
      "hepatotoxin": {
        "original_name": "Hepatotoxin",
        "value": "Hepatoxic (a) from occupational exposure (secondary effect) or (b) in animal studies or in humans after ingestion",
        "links": [],
        "cross_references": []
      }
    },
    "diseases_processes_and_activities_linked_to_this_agent": {
      "other_information": {
        "original_name": "Other Information",
        "value": "No other related information on this agent was found.",
        "links": [],
        "cross_references": []
      }
    }
  },
  "cross_references": [
    {
      "type": "name_match",
      "text": "hepatitis a",
      "confidence": 1.0,
      "uuid": "09b2d371-e32a-4123-81c0-51e314e04e32",
      "name": "Hepatitis A",
      "url": "https://haz-map.com/Diseases/184",
      "category": "diseases"
    },
    {
      "type": "name_match",
      "text": "mica",
      "confidence": 1.0,
      "uuid": "433f26f1-c399-4596-b179-ce3843cfd465",
      "name": "Mica",
      "url": "https://haz-map.com/Agents/621",
      "category": "agents"
    },
    {
      "type": "name_match",
      "text": "nitrogen",
      "confidence": 1.0,
      "uuid": "db5e90a9-06d2-45b9-8b81-f345a89b0bc0",
      "name": "Nitrogen",
      "url": "https://haz-map.com/Agents/1072",
      "category": "agents"
    },
    {
      "type": "name_match",
      "text": "4-cyanothiazole",
      "confidence": 1.0,
      "uuid": "d8da8914-c443-4fb8-9527-88e1161e18cc",
      "name": "4-Cyanothiazole",
      "url": "https://haz-map.com/Agents/3296",
      "category": "agents"
    },
    {
      "type": "name_match",
      "text": "4-methylthiazole",
      "confidence": 1.0,
      "uuid": "ae6d1c2c-2fea-4fdc-ac57-a13d93394de6",
      "name": "4-Methylthiazole",
      "url": "https://haz-map.com/Agents/3312",
      "category": "agents"
    },
    {
      "type": "name_match",
      "text": "benzothiazole",
      "confidence": 1.0,
      "uuid": "6c7cc5de-c267-4997-9bab-ec67f286b5bb",
      "name": "Benzothiazole",
      "url": "https://haz-map.com/Agents/3866",
      "category": "agents"
    },
    {
      "type": "name_match",
      "text": "thiazole",
      "confidence": 1.0,
      "uuid": "239903f2-a226-4a4b-bc83-285f21b9610c",
      "name": "Thiazole",
      "url": "https://haz-map.com/Agents/17380",
      "category": "agents"
    }
  ],
  "all_links": [
    {
      "text": "Search PubMed",
      "url": "https://www.ncbi.nlm.nih.gov/pubmed?term=4-Methylthiazole%20AND%20human%5Bmh%5D%20AND%20%28Occupational%20Diseases%20%5Bmh%5D%20OR%20Occupational%20Exposure%20%5Bmh%5D%29%20%20AND%20%28tox%5Bsb%5D%29&cmd=search"
    }
  ]
}