{
  "metadata": {
    "scraped_from": "https://haz-map.com/Agents/4423",
    "entity_name": "Cinerin II",
    "category": "agents",
    "uuid": "ae7ab9c3-7130-4938-bd5c-452fa3465c8b",
    "scraped_at": "2025-07-23T19:40:50.008507"
  },
  "parsed_at": "2025-07-24T01:02:42.849032",
  "title": "Cinerin II",
  "sections": {
    "general": {
      "agent_name": {
        "original_name": "Agent Name",
        "value": "Cinerin II",
        "links": [],
        "cross_references": [
          {
            "type": "name_match",
            "text": "cinerin i",
            "confidence": 1.0,
            "uuid": "8a8de350-4583-4faf-803e-8437711c3e01",
            "name": "Cinerin I",
            "url": "https://haz-map.com/Agents/4422",
            "category": "agents"
          },
          {
            "type": "name_match",
            "text": "cinerin ii",
            "confidence": 1.0,
            "uuid": "ae7ab9c3-7130-4938-bd5c-452fa3465c8b",
            "name": "Cinerin II",
            "url": "https://haz-map.com/Agents/4423",
            "category": "agents"
          }
        ]
      },
      "cas_number": {
        "original_name": "CAS Number",
        "value": "121-20-0",
        "links": [],
        "cross_references": []
      },
      "formula": {
        "original_name": "Formula",
        "value": "C21-H28-O5",
        "links": [],
        "cross_references": []
      },
      "major_category": {
        "original_name": "Major Category",
        "value": "Pesticides",
        "links": [],
        "cross_references": []
      },
      "synonyms": {
        "original_name": "Synonyms",
        "value": "3-(3-Methoxy-2-methyl-3-oxo-1-propenyl)-2,2-dimethylcyclopropanecarboxylic acid 3-(2-butenyl)-2-methyl-4-oxo-2-cyclopenten-1-yl ester; Cinerine II [ISO-French]; [ChemIDplus]",
        "links": [],
        "cross_references": [
          {
            "type": "name_match",
            "text": "propane",
            "confidence": 1.0,
            "uuid": "563a611b-46ea-4bdc-b77b-17d8f7646283",
            "name": "Propane",
            "url": "https://haz-map.com/Agents/607",
            "category": "agents"
          },
          {
            "type": "name_match",
            "text": "cyclopropane",
            "confidence": 1.0,
            "uuid": "eff680c8-2b85-4f0d-9c04-449434d56b54",
            "name": "Cyclopropane",
            "url": "https://haz-map.com/Agents/4611",
            "category": "agents"
          },
          {
            "type": "name_match",
            "text": "ethylcyclopropane",
            "confidence": 1.0,
            "uuid": "3829e96b-c048-428e-a2ff-537a69ad5f8f",
            "name": "Ethylcyclopropane",
            "url": "https://haz-map.com/Agents/13535",
            "category": "agents"
          },
          {
            "type": "name_match",
            "text": "cyclopropanecarboxylic acid",
            "confidence": 1.0,
            "uuid": "34616f0c-ada5-417e-a983-ad8428383152",
            "name": "Cyclopropanecarboxylic acid",
            "url": "https://haz-map.com/Agents/13541",
            "category": "agents"
          },
          {
            "type": "fuzzy_match",
            "text": "2-dimethylcyclopropane",
            "matched_name": "trans-1,2-Dimethylcyclopropane",
            "confidence": 0.787719298245614,
            "uuid": "82a4a103-a5b0-4faf-9769-3edd1697a4bf",
            "category": "agents",
            "url": "https://haz-map.com/Agents/13526"
          }
        ]
      },
      "category": {
        "original_name": "Category",
        "value": "Pyrethrins/Pyrethroids",
        "links": [],
        "cross_references": []
      },
      "description": {
        "original_name": "Description",
        "value": "Viscous liquid; [Merck Index]",
        "links": [],
        "cross_references": []
      },
      "sourcesuses": {
        "original_name": "Sources/Uses",
        "value": "Insecticidal component of pyrethrum flowers; Used as an insecticide; [Merck Index]",
        "links": [],
        "cross_references": [
          {
            "type": "name_match",
            "text": "pyrethrum",
            "confidence": 1.0,
            "uuid": "2207eb81-00c4-4197-8027-9a241d9cab6a",
            "name": "Pyrethrum",
            "url": "https://haz-map.com/Agents/615",
            "category": "agents"
          }
        ]
      },
      "comments": {
        "original_name": "Comments",
        "value": "May cause allergic reactions; [Merck Index] See \"Pyrethrum.\"",
        "links": [],
        "cross_references": [
          {
            "type": "name_match",
            "text": "pyrethrum",
            "confidence": 1.0,
            "uuid": "2207eb81-00c4-4197-8027-9a241d9cab6a",
            "name": "Pyrethrum",
            "url": "https://haz-map.com/Agents/615",
            "category": "agents"
          }
        ]
      },
      "restricted": {
        "original_name": "Restricted",
        "value": "No longer registered as a pesticide for use in the US; [HSDB]",
        "links": [],
        "cross_references": []
      },
      "reference_link_1": {
        "original_name": "Reference Link #1",
        "value": "EPA Pesticide Chemical Search",
        "links": [
          {
            "text": "EPA Pesticide Chemical Search",
            "url": "https://iaspub.epa.gov/apex/pesticides/f?p=CHEMICALSEARCH:1:"
          }
        ],
        "cross_references": [
          {
            "type": "name_match",
            "text": "mica",
            "confidence": 1.0,
            "uuid": "433f26f1-c399-4596-b179-ce3843cfd465",
            "name": "Mica",
            "url": "https://haz-map.com/Agents/621",
            "category": "agents"
          }
        ]
      },
      "biomedical_references": {
        "original_name": "Biomedical References",
        "value": "Search PubMed",
        "links": [
          {
            "text": "Search PubMed",
            "url": "https://www.ncbi.nlm.nih.gov/pubmed?term=Cinerin+II%20AND%20human%5Bmh%5D%20AND%20%28Occupational%20Diseases%20%5Bmh%5D%20OR%20Occupational%20Exposure%20%5Bmh%5D%29%20%20AND%20%28tox%5Bsb%5D%29&cmd=search"
          }
        ],
        "cross_references": []
      }
    },
    "exposure_assessment": {
      "vapor_pressure": {
        "original_name": "Vapor Pressure",
        "value": "4.59E-07 mm Hg",
        "links": [],
        "cross_references": []
      }
    },
    "adverse_effects": {
      "neurotoxin": {
        "original_name": "Neurotoxin",
        "value": "Other CNS neurotoxin",
        "links": [],
        "cross_references": []
      }
    },
    "diseases_processes_and_activities_linked_to_this_agent": {
      "processes": {
        "original_name": "Processes",
        "value": "Industrial Processes with risk of exposure: Farming (Pesticides)",
        "links": [
          {
            "text": "Farming (Pesticides)",
            "url": "https://haz-map.com/Processes/218"
          }
        ],
        "cross_references": [
          {
            "type": "url_match",
            "text": "Farming (Pesticides)",
            "url": "https://haz-map.com/Processes/218",
            "confidence": 1.0,
            "uuid": "cf1e5815-c9bb-4917-82a5-391848170b7e",
            "name": "Farming (Pesticides)",
            "category": "processes"
          }
        ]
      }
    }
  },
  "cross_references": [
    {
      "type": "url_match",
      "text": "Farming (Pesticides)",
      "url": "https://haz-map.com/Processes/218",
      "confidence": 1.0,
      "uuid": "cf1e5815-c9bb-4917-82a5-391848170b7e",
      "name": "Farming (Pesticides)",
      "category": "processes"
    },
    {
      "type": "name_match",
      "text": "propane",
      "confidence": 1.0,
      "uuid": "563a611b-46ea-4bdc-b77b-17d8f7646283",
      "name": "Propane",
      "url": "https://haz-map.com/Agents/607",
      "category": "agents"
    },
    {
      "type": "name_match",
      "text": "pyrethrum",
      "confidence": 1.0,
      "uuid": "2207eb81-00c4-4197-8027-9a241d9cab6a",
      "name": "Pyrethrum",
      "url": "https://haz-map.com/Agents/615",
      "category": "agents"
    },
    {
      "type": "name_match",
      "text": "mica",
      "confidence": 1.0,
      "uuid": "433f26f1-c399-4596-b179-ce3843cfd465",
      "name": "Mica",
      "url": "https://haz-map.com/Agents/621",
      "category": "agents"
    },
    {
      "type": "name_match",
      "text": "cinerin i",
      "confidence": 1.0,
      "uuid": "8a8de350-4583-4faf-803e-8437711c3e01",
      "name": "Cinerin I",
      "url": "https://haz-map.com/Agents/4422",
      "category": "agents"
    },
    {
      "type": "name_match",
      "text": "cinerin ii",
      "confidence": 1.0,
      "uuid": "ae7ab9c3-7130-4938-bd5c-452fa3465c8b",
      "name": "Cinerin II",
      "url": "https://haz-map.com/Agents/4423",
      "category": "agents"
    },
    {
      "type": "name_match",
      "text": "cyclopropane",
      "confidence": 1.0,
      "uuid": "eff680c8-2b85-4f0d-9c04-449434d56b54",
      "name": "Cyclopropane",
      "url": "https://haz-map.com/Agents/4611",
      "category": "agents"
    },
    {
      "type": "name_match",
      "text": "ethylcyclopropane",
      "confidence": 1.0,
      "uuid": "3829e96b-c048-428e-a2ff-537a69ad5f8f",
      "name": "Ethylcyclopropane",
      "url": "https://haz-map.com/Agents/13535",
      "category": "agents"
    },
    {
      "type": "name_match",
      "text": "cyclopropanecarboxylic acid",
      "confidence": 1.0,
      "uuid": "34616f0c-ada5-417e-a983-ad8428383152",
      "name": "Cyclopropanecarboxylic acid",
      "url": "https://haz-map.com/Agents/13541",
      "category": "agents"
    },
    {
      "type": "fuzzy_match",
      "text": "2-dimethylcyclopropane",
      "matched_name": "trans-1,2-Dimethylcyclopropane",
      "confidence": 0.787719298245614,
      "uuid": "82a4a103-a5b0-4faf-9769-3edd1697a4bf",
      "category": "agents",
      "url": "https://haz-map.com/Agents/13526"
    }
  ],
  "all_links": [
    {
      "text": "EPA Pesticide Chemical Search",
      "url": "https://iaspub.epa.gov/apex/pesticides/f?p=CHEMICALSEARCH:1:"
    },
    {
      "text": "Search PubMed",
      "url": "https://www.ncbi.nlm.nih.gov/pubmed?term=Cinerin+II%20AND%20human%5Bmh%5D%20AND%20%28Occupational%20Diseases%20%5Bmh%5D%20OR%20Occupational%20Exposure%20%5Bmh%5D%29%20%20AND%20%28tox%5Bsb%5D%29&cmd=search"
    },
    {
      "text": "Farming (Pesticides)",
      "url": "https://haz-map.com/Processes/218"
    }
  ]
}