{
  "metadata": {
    "scraped_from": "https://haz-map.com/Agents/21276",
    "entity_name": "Nitrosocarbaryl",
    "category": "agents",
    "uuid": "ae9326c0-19bd-4ce0-a8a0-35bafb2c318d",
    "scraped_at": "2025-07-23T22:40:47.639522"
  },
  "parsed_at": "2025-07-24T01:18:36.628481",
  "title": "Nitrosocarbaryl",
  "sections": {
    "general": {
      "agent_name": {
        "original_name": "Agent Name",
        "value": "Nitrosocarbaryl",
        "links": [],
        "cross_references": [
          {
            "type": "name_match",
            "text": "carbaryl",
            "confidence": 1.0,
            "uuid": "2a77c1ad-999a-40bd-80ae-695bae75d754",
            "name": "Carbaryl",
            "url": "https://haz-map.com/Agents/256",
            "category": "agents"
          },
          {
            "type": "name_match",
            "text": "nitrosocarbaryl",
            "confidence": 1.0,
            "uuid": "ae9326c0-19bd-4ce0-a8a0-35bafb2c318d",
            "name": "Nitrosocarbaryl",
            "url": "https://haz-map.com/Agents/21276",
            "category": "agents"
          }
        ]
      },
      "cas_number": {
        "original_name": "CAS Number",
        "value": "7090-25-7",
        "links": [],
        "cross_references": []
      },
      "formula": {
        "original_name": "Formula",
        "value": "C12-H10-N2-O3",
        "links": [],
        "cross_references": []
      },
      "major_category": {
        "original_name": "Major Category",
        "value": "Nitrogen Compounds",
        "links": [],
        "cross_references": [
          {
            "type": "name_match",
            "text": "nitrogen",
            "confidence": 1.0,
            "uuid": "db5e90a9-06d2-45b9-8b81-f345a89b0bc0",
            "name": "Nitrogen",
            "url": "https://haz-map.com/Agents/1072",
            "category": "agents"
          }
        ]
      },
      "synonyms": {
        "original_name": "Synonyms",
        "value": "1-Naphthalenyl methylnitrosocarbamate; 1-Naphthyl methylnitrosocarbamate; 1-Naphthyl N-methyl-N-nitrosocarbamate; Carbamic acid, methylnitroso-, 1-naphthyl ester; Denapon, nitrosated [Japanese]; Methyl-nitrosocarbamic acid 1-naphthyl ester; N-Nitrosocarbaryl; Carbamic acid, methylnitroso-, 1-naphthalenyl ester (9CI); Carbamic acid, N-methyl-N-nitroso-, 1-naphthyl ester; N-Nitroso-1-naphthyl-N-methylcarbamate; [ChemIDplus]",
        "links": [],
        "cross_references": [
          {
            "type": "name_match",
            "text": "carbaryl",
            "confidence": 1.0,
            "uuid": "2a77c1ad-999a-40bd-80ae-695bae75d754",
            "name": "Carbaryl",
            "url": "https://haz-map.com/Agents/256",
            "category": "agents"
          },
          {
            "type": "name_match",
            "text": "ht",
            "confidence": 1.0,
            "uuid": "764df367-8d53-4a11-81a2-31ccfe122a8d",
            "name": "HT",
            "url": "https://haz-map.com/Agents/2168",
            "category": "agents"
          },
          {
            "type": "name_match",
            "text": "nitrosocarbaryl",
            "confidence": 1.0,
            "uuid": "ae9326c0-19bd-4ce0-a8a0-35bafb2c318d",
            "name": "Nitrosocarbaryl",
            "url": "https://haz-map.com/Agents/21276",
            "category": "agents"
          }
        ]
      },
      "category": {
        "original_name": "Category",
        "value": "Nitrosamines",
        "links": [],
        "cross_references": [
          {
            "type": "name_match",
            "text": "nitrosamines",
            "confidence": 1.0,
            "uuid": "71647706-f82f-4f7a-a1ad-2500c04c2ac0",
            "name": "NITROSAMINES",
            "url": "https://haz-map.com/Agents/767",
            "category": "agents"
          }
        ]
      },
      "comments": {
        "original_name": "Comments",
        "value": "See \"NITROSAMINES.\"",
        "links": [],
        "cross_references": [
          {
            "type": "name_match",
            "text": "nitrosamines",
            "confidence": 1.0,
            "uuid": "71647706-f82f-4f7a-a1ad-2500c04c2ac0",
            "name": "NITROSAMINES",
            "url": "https://haz-map.com/Agents/767",
            "category": "agents"
          }
        ]
      },
      "biomedical_references": {
        "original_name": "Biomedical References",
        "value": "Search PubMed",
        "links": [
          {
            "text": "Search PubMed",
            "url": "https://www.ncbi.nlm.nih.gov/pubmed?term=Nitrosocarbaryl%20AND%20human%5Bmh%5D%20AND%20%28Occupational%20Diseases%20%5Bmh%5D%20OR%20Occupational%20Exposure%20%5Bmh%5D%29%20%20AND%20%28tox%5Bsb%5D%29&cmd=search"
          }
        ],
        "cross_references": []
      }
    },
    "exposure_assessment": {
      "vapor_pressure": {
        "original_name": "Vapor Pressure",
        "value": "1.99E-06 mm Hg",
        "links": [],
        "cross_references": []
      }
    },
    "diseases_processes_and_activities_linked_to_this_agent": {
      "other_information": {
        "original_name": "Other Information",
        "value": "No other related information on this agent was found.",
        "links": [],
        "cross_references": []
      }
    }
  },
  "cross_references": [
    {
      "type": "name_match",
      "text": "carbaryl",
      "confidence": 1.0,
      "uuid": "2a77c1ad-999a-40bd-80ae-695bae75d754",
      "name": "Carbaryl",
      "url": "https://haz-map.com/Agents/256",
      "category": "agents"
    },
    {
      "type": "name_match",
      "text": "nitrosamines",
      "confidence": 1.0,
      "uuid": "71647706-f82f-4f7a-a1ad-2500c04c2ac0",
      "name": "NITROSAMINES",
      "url": "https://haz-map.com/Agents/767",
      "category": "agents"
    },
    {
      "type": "name_match",
      "text": "nitrogen",
      "confidence": 1.0,
      "uuid": "db5e90a9-06d2-45b9-8b81-f345a89b0bc0",
      "name": "Nitrogen",
      "url": "https://haz-map.com/Agents/1072",
      "category": "agents"
    },
    {
      "type": "name_match",
      "text": "ht",
      "confidence": 1.0,
      "uuid": "764df367-8d53-4a11-81a2-31ccfe122a8d",
      "name": "HT",
      "url": "https://haz-map.com/Agents/2168",
      "category": "agents"
    },
    {
      "type": "name_match",
      "text": "nitrosocarbaryl",
      "confidence": 1.0,
      "uuid": "ae9326c0-19bd-4ce0-a8a0-35bafb2c318d",
      "name": "Nitrosocarbaryl",
      "url": "https://haz-map.com/Agents/21276",
      "category": "agents"
    }
  ],
  "all_links": [
    {
      "text": "Search PubMed",
      "url": "https://www.ncbi.nlm.nih.gov/pubmed?term=Nitrosocarbaryl%20AND%20human%5Bmh%5D%20AND%20%28Occupational%20Diseases%20%5Bmh%5D%20OR%20Occupational%20Exposure%20%5Bmh%5D%29%20%20AND%20%28tox%5Bsb%5D%29&cmd=search"
    }
  ]
}