{
  "metadata": {
    "scraped_from": "https://haz-map.com/Agents/15470",
    "entity_name": "Methionine",
    "category": "agents",
    "uuid": "af201003-4553-40fa-b3f3-d5aad68fddc1",
    "scraped_at": "2025-07-23T21:30:07.304701"
  },
  "parsed_at": "2025-07-24T01:14:38.603952",
  "title": "Methionine",
  "sections": {
    "general": {
      "agent_name": {
        "original_name": "Agent Name",
        "value": "Methionine",
        "links": [],
        "cross_references": [
          {
            "type": "name_match",
            "text": "ethion",
            "confidence": 1.0,
            "uuid": "939737fc-7aa4-4626-9118-8460c75d6bda",
            "name": "Ethion",
            "url": "https://haz-map.com/Agents/265",
            "category": "agents"
          },
          {
            "type": "name_match",
            "text": "ethionine",
            "confidence": 1.0,
            "uuid": "fbc468ed-f614-49a0-a6ab-8e5d22730c65",
            "name": "Ethionine",
            "url": "https://haz-map.com/Agents/14172",
            "category": "agents"
          },
          {
            "type": "name_match",
            "text": "methionine",
            "confidence": 1.0,
            "uuid": "af201003-4553-40fa-b3f3-d5aad68fddc1",
            "name": "Methionine",
            "url": "https://haz-map.com/Agents/15470",
            "category": "agents"
          }
        ]
      },
      "cas_number": {
        "original_name": "CAS Number",
        "value": "63-68-3",
        "links": [],
        "cross_references": []
      },
      "formula": {
        "original_name": "Formula",
        "value": "C5-H11-N-O2-S",
        "links": [],
        "cross_references": []
      },
      "major_category": {
        "original_name": "Major Category",
        "value": "Biological Agents",
        "links": [],
        "cross_references": []
      },
      "synonyms": {
        "original_name": "Synonyms",
        "value": "(L)-Methionine; (S)-2-Amino-4-(methylthio)butanoic acid; 2-Amino-4-(methylthio)butyric acid, (S)-; 2-Amino-4-methylthiobutanoic acid (S)-; Butanoic acid, 2-amino-4-(methylthio)-, (S)-; Cymethion; L-(-)-Methionine; L-Homocysteine, S-methyl-; L-Methionine; L-Methioninum; L-alpha-Amino-gamma-methylmercaptobutyric acid; L-alpha-Amino-gamma-methylthiobutyric acid; L-gamma-Methylthio-alpha-aminobutyric acid; MET; Methioninum [INN-Latin]; Metionina [DCIT]; Neo-methidin; S-Methionine; Toxin WAR (Bacillus thuringiensis strain PS205C); Methionine, L-; [ChemIDplus] M; [Merck Index]",
        "links": [],
        "cross_references": [
          {
            "type": "name_match",
            "text": "ethion",
            "confidence": 1.0,
            "uuid": "939737fc-7aa4-4626-9118-8460c75d6bda",
            "name": "Ethion",
            "url": "https://haz-map.com/Agents/265",
            "category": "agents"
          },
          {
            "type": "name_match",
            "text": "butyric acid",
            "confidence": 1.0,
            "uuid": "a59c4184-bd52-40af-8450-80d14bbee018",
            "name": "Butyric acid",
            "url": "https://haz-map.com/Agents/1391",
            "category": "agents"
          },
          {
            "type": "name_match",
            "text": "cysteine",
            "confidence": 1.0,
            "uuid": "1172412c-8165-4312-af39-1107dc30e4f4",
            "name": "Cysteine",
            "url": "https://haz-map.com/Agents/13558",
            "category": "agents"
          },
          {
            "type": "name_match",
            "text": "ethionine",
            "confidence": 1.0,
            "uuid": "fbc468ed-f614-49a0-a6ab-8e5d22730c65",
            "name": "Ethionine",
            "url": "https://haz-map.com/Agents/14172",
            "category": "agents"
          },
          {
            "type": "name_match",
            "text": "methionine",
            "confidence": 1.0,
            "uuid": "af201003-4553-40fa-b3f3-d5aad68fddc1",
            "name": "Methionine",
            "url": "https://haz-map.com/Agents/15470",
            "category": "agents"
          }
        ]
      },
      "category": {
        "original_name": "Category",
        "value": "Amino Acids and Derivatives",
        "links": [],
        "cross_references": []
      },
      "description": {
        "original_name": "Description",
        "value": "Solid; [Merck Index] Colorless or white solid with a faint odor; [HSDB] White powder; [Sigma-Aldrich MSDS]",
        "links": [],
        "cross_references": []
      },
      "sourcesuses": {
        "original_name": "Sources/Uses",
        "value": "An essential amino acid; Used therapeutically as an antidote for acetaminophen poisoning and a urinary acidifier; [Merck Index] Chelating agent for heavy metals; [ChemIDplus] Used as a flavoring agent and nutritional supplement for foods; [FDA] Used in pharmaceuticals, as a feed additive, for vegetable oil enrichment, and as single cell protein; [NTP] Permitted for use as an inert ingredient in non-food pesticide products; [EPA]",
        "links": [],
        "cross_references": [
          {
            "type": "name_match",
            "text": "pharmaceuticals",
            "confidence": 1.0,
            "uuid": "713c3c30-b67e-4a2f-a90f-b32f8a306332",
            "name": "PHARMACEUTICALS",
            "url": "https://haz-map.com/Agents/1000",
            "category": "agents"
          },
          {
            "type": "name_match",
            "text": "acetaminophen",
            "confidence": 1.0,
            "uuid": "c49103ec-8251-4f02-b2da-fdbffef186cc",
            "name": "Acetaminophen",
            "url": "https://haz-map.com/Agents/11360",
            "category": "agents"
          },
          {
            "type": "name_match",
            "text": "vegetable oil",
            "confidence": 1.0,
            "uuid": "c24688f8-f00d-4b95-97a7-7b5569d8e87c",
            "name": "Vegetable oil",
            "url": "https://haz-map.com/Agents/18627",
            "category": "agents"
          }
        ]
      },
      "comments": {
        "original_name": "Comments",
        "value": "Reacts with water evolving hydrogen sulfide (toxic and flammable); [CAMEO] May cause irritation; [Sigma-Aldrich MSDS] See \"Hydrogen sulfide.\"",
        "links": [],
        "cross_references": [
          {
            "type": "name_match",
            "text": "hydrogen sulfide",
            "confidence": 1.0,
            "uuid": "f19cb2ec-fb76-4caf-bf11-33b23fef9ae6",
            "name": "Hydrogen sulfide",
            "url": "https://haz-map.com/Agents/22",
            "category": "agents"
          },
          {
            "type": "name_match",
            "text": "hydrogen",
            "confidence": 1.0,
            "uuid": "e2d9645f-5559-4d88-b820-fc4710c154f2",
            "name": "Hydrogen",
            "url": "https://haz-map.com/Agents/1070",
            "category": "agents"
          },
          {
            "type": "name_match",
            "text": "water",
            "confidence": 1.0,
            "uuid": "6f2a7557-dfd2-49bc-9b4b-a93cd8e225d4",
            "name": "Water",
            "url": "https://haz-map.com/Agents/18668",
            "category": "agents"
          }
        ]
      },
      "biomedical_references": {
        "original_name": "Biomedical References",
        "value": "Search PubMed",
        "links": [
          {
            "text": "Search PubMed",
            "url": "https://www.ncbi.nlm.nih.gov/pubmed?term=Methionine%20AND%20human%5Bmh%5D%20AND%20%28Occupational%20Diseases%20%5Bmh%5D%20OR%20Occupational%20Exposure%20%5Bmh%5D%29%20%20AND%20%28tox%5Bsb%5D%29&cmd=search"
          }
        ],
        "cross_references": []
      }
    },
    "exposure_assessment": {
      "vapor_pressure": {
        "original_name": "Vapor Pressure",
        "value": "5.23E-07 mm Hg",
        "links": [],
        "cross_references": []
      }
    },
    "diseases_processes_and_activities_linked_to_this_agent": {
      "processes": {
        "original_name": "Processes",
        "value": "Industrial Processes with risk of exposure: Farming (Feed Additives)",
        "links": [
          {
            "text": "Farming (Feed Additives)",
            "url": "https://haz-map.com/Processes/262"
          }
        ],
        "cross_references": []
      }
    }
  },
  "cross_references": [
    {
      "type": "name_match",
      "text": "hydrogen sulfide",
      "confidence": 1.0,
      "uuid": "f19cb2ec-fb76-4caf-bf11-33b23fef9ae6",
      "name": "Hydrogen sulfide",
      "url": "https://haz-map.com/Agents/22",
      "category": "agents"
    },
    {
      "type": "name_match",
      "text": "ethion",
      "confidence": 1.0,
      "uuid": "939737fc-7aa4-4626-9118-8460c75d6bda",
      "name": "Ethion",
      "url": "https://haz-map.com/Agents/265",
      "category": "agents"
    },
    {
      "type": "name_match",
      "text": "pharmaceuticals",
      "confidence": 1.0,
      "uuid": "713c3c30-b67e-4a2f-a90f-b32f8a306332",
      "name": "PHARMACEUTICALS",
      "url": "https://haz-map.com/Agents/1000",
      "category": "agents"
    },
    {
      "type": "name_match",
      "text": "hydrogen",
      "confidence": 1.0,
      "uuid": "e2d9645f-5559-4d88-b820-fc4710c154f2",
      "name": "Hydrogen",
      "url": "https://haz-map.com/Agents/1070",
      "category": "agents"
    },
    {
      "type": "name_match",
      "text": "butyric acid",
      "confidence": 1.0,
      "uuid": "a59c4184-bd52-40af-8450-80d14bbee018",
      "name": "Butyric acid",
      "url": "https://haz-map.com/Agents/1391",
      "category": "agents"
    },
    {
      "type": "name_match",
      "text": "acetaminophen",
      "confidence": 1.0,
      "uuid": "c49103ec-8251-4f02-b2da-fdbffef186cc",
      "name": "Acetaminophen",
      "url": "https://haz-map.com/Agents/11360",
      "category": "agents"
    },
    {
      "type": "name_match",
      "text": "cysteine",
      "confidence": 1.0,
      "uuid": "1172412c-8165-4312-af39-1107dc30e4f4",
      "name": "Cysteine",
      "url": "https://haz-map.com/Agents/13558",
      "category": "agents"
    },
    {
      "type": "name_match",
      "text": "ethionine",
      "confidence": 1.0,
      "uuid": "fbc468ed-f614-49a0-a6ab-8e5d22730c65",
      "name": "Ethionine",
      "url": "https://haz-map.com/Agents/14172",
      "category": "agents"
    },
    {
      "type": "name_match",
      "text": "methionine",
      "confidence": 1.0,
      "uuid": "af201003-4553-40fa-b3f3-d5aad68fddc1",
      "name": "Methionine",
      "url": "https://haz-map.com/Agents/15470",
      "category": "agents"
    },
    {
      "type": "name_match",
      "text": "vegetable oil",
      "confidence": 1.0,
      "uuid": "c24688f8-f00d-4b95-97a7-7b5569d8e87c",
      "name": "Vegetable oil",
      "url": "https://haz-map.com/Agents/18627",
      "category": "agents"
    },
    {
      "type": "name_match",
      "text": "water",
      "confidence": 1.0,
      "uuid": "6f2a7557-dfd2-49bc-9b4b-a93cd8e225d4",
      "name": "Water",
      "url": "https://haz-map.com/Agents/18668",
      "category": "agents"
    }
  ],
  "all_links": [
    {
      "text": "Search PubMed",
      "url": "https://www.ncbi.nlm.nih.gov/pubmed?term=Methionine%20AND%20human%5Bmh%5D%20AND%20%28Occupational%20Diseases%20%5Bmh%5D%20OR%20Occupational%20Exposure%20%5Bmh%5D%29%20%20AND%20%28tox%5Bsb%5D%29&cmd=search"
    },
    {
      "text": "Farming (Feed Additives)",
      "url": "https://haz-map.com/Processes/262"
    }
  ]
}