{
  "metadata": {
    "scraped_from": "https://haz-map.com/Agents/15528",
    "entity_name": "Methyl nonafluorobutyl ether",
    "category": "agents",
    "uuid": "af5a4b6e-d8e3-4515-8d28-2dd1f9511952",
    "scraped_at": "2025-07-23T21:30:34.152684"
  },
  "parsed_at": "2025-07-24T01:18:06.192692",
  "title": "Methyl nonafluorobutyl ether",
  "sections": {
    "general": {
      "agent_name": {
        "original_name": "Agent Name",
        "value": "Methyl nonafluorobutyl ether",
        "links": [],
        "cross_references": [
          {
            "type": "name_match",
            "text": "methyl nonafluorobutyl ether",
            "confidence": 1.0,
            "uuid": "af5a4b6e-d8e3-4515-8d28-2dd1f9511952",
            "name": "Methyl nonafluorobutyl ether",
            "url": "https://haz-map.com/Agents/15528",
            "category": "agents"
          }
        ]
      },
      "cas_number": {
        "original_name": "CAS Number",
        "value": "163702-07-6",
        "links": [],
        "cross_references": []
      },
      "formula": {
        "original_name": "Formula",
        "value": "C5-H3-F9-O",
        "links": [],
        "cross_references": []
      },
      "major_category": {
        "original_name": "Major Category",
        "value": "Other Classes",
        "links": [],
        "cross_references": []
      },
      "synonyms": {
        "original_name": "Synonyms",
        "value": "Butane, 1,1,1,2,2,3,3,4,4-nonafluoro-4-methoxy-; [ChemIDplus] Fractionated and Column Treated HFE-7100 from Methylbutyrate ECF. F-12429 (Intermediate); [3M MSDS]",
        "links": [],
        "cross_references": []
      },
      "category": {
        "original_name": "Category",
        "value": "Halogenated Ethers",
        "links": [],
        "cross_references": []
      },
      "description": {
        "original_name": "Description",
        "value": "Clear liquid with an odor of ether; [3M MSDS]",
        "links": [],
        "cross_references": []
      },
      "sourcesuses": {
        "original_name": "Sources/Uses",
        "value": "Used as an intermediate; [3M MSDS]",
        "links": [],
        "cross_references": []
      },
      "comments": {
        "original_name": "Comments",
        "value": "Perfluorobutyl methyl ether (Mixed Isomers), also known as Hydrofluoroether-7100 (HFE-7100), is a mixture of approximately 40% methyl nonafluorobutyl ether (CAS# 163702-07-6) and 60% methyl nonafluoroisobutyl ether (CAS# 163702-08-7); Causes eye irritation; [OSHA] Contains 3-7% methyl nonafluoroisobutyl ether (CAS# 163702-08-7); Not expected to cause significant skin or eye irritation; [3M MSDS] See \"Methyl nonafluoroisobutyl ether.\"",
        "links": [],
        "cross_references": [
          {
            "type": "name_match",
            "text": "ethyl ether",
            "confidence": 1.0,
            "uuid": "c95edddc-9ad3-44f8-bafa-78e0bd19db3a",
            "name": "Ethyl ether",
            "url": "https://haz-map.com/Agents/455",
            "category": "agents"
          },
          {
            "type": "name_match",
            "text": "methyl nonafluorobutyl ether",
            "confidence": 1.0,
            "uuid": "af5a4b6e-d8e3-4515-8d28-2dd1f9511952",
            "name": "Methyl nonafluorobutyl ether",
            "url": "https://haz-map.com/Agents/15528",
            "category": "agents"
          },
          {
            "type": "name_match",
            "text": "methyl nonafluoroisobutyl ether",
            "confidence": 1.0,
            "uuid": "358d766d-2980-4c58-b74e-89181aed46a3",
            "name": "Methyl nonafluoroisobutyl ether",
            "url": "https://haz-map.com/Agents/15529",
            "category": "agents"
          }
        ]
      },
      "biomedical_references": {
        "original_name": "Biomedical References",
        "value": "Search PubMed",
        "links": [
          {
            "text": "Search PubMed",
            "url": "https://www.ncbi.nlm.nih.gov/pubmed?term=Methyl+nonafluorobutyl+ether%20AND%20human%5Bmh%5D%20AND%20%28Occupational%20Diseases%20%5Bmh%5D%20OR%20Occupational%20Exposure%20%5Bmh%5D%29%20%20AND%20%28tox%5Bsb%5D%29&cmd=search"
          }
        ],
        "cross_references": []
      }
    },
    "exposure_assessment": {
      "vapor_pressure": {
        "original_name": "Vapor Pressure",
        "value": "202 mm Hg",
        "links": [],
        "cross_references": []
      },
      "weel": {
        "original_name": "WEEL",
        "value": "750 ppm",
        "links": [],
        "cross_references": []
      }
    },
    "diseases_processes_and_activities_linked_to_this_agent": {
      "other_information": {
        "original_name": "Other Information",
        "value": "No other related information on this agent was found.",
        "links": [],
        "cross_references": []
      }
    }
  },
  "cross_references": [
    {
      "type": "name_match",
      "text": "ethyl ether",
      "confidence": 1.0,
      "uuid": "c95edddc-9ad3-44f8-bafa-78e0bd19db3a",
      "name": "Ethyl ether",
      "url": "https://haz-map.com/Agents/455",
      "category": "agents"
    },
    {
      "type": "name_match",
      "text": "methyl nonafluorobutyl ether",
      "confidence": 1.0,
      "uuid": "af5a4b6e-d8e3-4515-8d28-2dd1f9511952",
      "name": "Methyl nonafluorobutyl ether",
      "url": "https://haz-map.com/Agents/15528",
      "category": "agents"
    },
    {
      "type": "name_match",
      "text": "methyl nonafluoroisobutyl ether",
      "confidence": 1.0,
      "uuid": "358d766d-2980-4c58-b74e-89181aed46a3",
      "name": "Methyl nonafluoroisobutyl ether",
      "url": "https://haz-map.com/Agents/15529",
      "category": "agents"
    }
  ],
  "all_links": [
    {
      "text": "Search PubMed",
      "url": "https://www.ncbi.nlm.nih.gov/pubmed?term=Methyl+nonafluorobutyl+ether%20AND%20human%5Bmh%5D%20AND%20%28Occupational%20Diseases%20%5Bmh%5D%20OR%20Occupational%20Exposure%20%5Bmh%5D%29%20%20AND%20%28tox%5Bsb%5D%29&cmd=search"
    }
  ]
}