{
  "metadata": {
    "scraped_from": "https://haz-map.com/Agents/10926",
    "entity_name": "Quinaldine",
    "category": "agents",
    "uuid": "afc8b0b1-b1a0-40ed-9105-49c483f30078",
    "scraped_at": "2025-07-23T20:54:24.302955"
  },
  "parsed_at": "2025-07-24T01:05:43.219940",
  "title": "Quinaldine",
  "sections": {
    "general": {
      "agent_name": {
        "original_name": "Agent Name",
        "value": "Quinaldine",
        "links": [],
        "cross_references": [
          {
            "type": "name_match",
            "text": "quinaldine",
            "confidence": 1.0,
            "uuid": "afc8b0b1-b1a0-40ed-9105-49c483f30078",
            "name": "Quinaldine",
            "url": "https://haz-map.com/Agents/10926",
            "category": "agents"
          }
        ]
      },
      "alternative_name": {
        "original_name": "Alternative Name",
        "value": "2-Methylquinoline",
        "links": [],
        "cross_references": [
          {
            "type": "name_match",
            "text": "quinoline",
            "confidence": 1.0,
            "uuid": "ba9097a5-8299-4dfd-a74a-f179b7d465d1",
            "name": "Quinoline",
            "url": "https://haz-map.com/Agents/6937",
            "category": "agents"
          }
        ]
      },
      "cas_number": {
        "original_name": "CAS Number",
        "value": "91-63-4",
        "links": [],
        "cross_references": []
      },
      "formula": {
        "original_name": "Formula",
        "value": "C10-H9-N",
        "links": [],
        "cross_references": []
      },
      "major_category": {
        "original_name": "Major Category",
        "value": "Nitrogen Compounds",
        "links": [],
        "cross_references": [
          {
            "type": "name_match",
            "text": "nitrogen",
            "confidence": 1.0,
            "uuid": "db5e90a9-06d2-45b9-8b81-f345a89b0bc0",
            "name": "Nitrogen",
            "url": "https://haz-map.com/Agents/1072",
            "category": "agents"
          }
        ]
      },
      "synonyms": {
        "original_name": "Synonyms",
        "value": "2-Methylquinoline; 2-Methylchinolin [Czech]; Chinaldine; Khinaldin; Quinoline, 2-methyl-; [ChemIDplus] alpha-Methylquinoline; [NTP]",
        "links": [],
        "cross_references": [
          {
            "type": "name_match",
            "text": "quinoline",
            "confidence": 1.0,
            "uuid": "ba9097a5-8299-4dfd-a74a-f179b7d465d1",
            "name": "Quinoline",
            "url": "https://haz-map.com/Agents/6937",
            "category": "agents"
          }
        ]
      },
      "category": {
        "original_name": "Category",
        "value": "Quinolines",
        "links": [],
        "cross_references": [
          {
            "type": "name_match",
            "text": "quinoline",
            "confidence": 1.0,
            "uuid": "ba9097a5-8299-4dfd-a74a-f179b7d465d1",
            "name": "Quinoline",
            "url": "https://haz-map.com/Agents/6937",
            "category": "agents"
          }
        ]
      },
      "description": {
        "original_name": "Description",
        "value": "Colorless oily liquid with an odor of quinoline; Turns reddish-brown on exposure to air; [Merck Index]",
        "links": [],
        "cross_references": [
          {
            "type": "name_match",
            "text": "quinoline",
            "confidence": 1.0,
            "uuid": "ba9097a5-8299-4dfd-a74a-f179b7d465d1",
            "name": "Quinoline",
            "url": "https://haz-map.com/Agents/6937",
            "category": "agents"
          }
        ]
      },
      "sourcesuses": {
        "original_name": "Sources/Uses",
        "value": "Found in coal tar; Used to transport fish (anesthetic); [Merck Index] Used to make dyes, pharmaceuticals, fine organic chemicals, and acid-base indicators; [NTP]",
        "links": [],
        "cross_references": [
          {
            "type": "name_match",
            "text": "mica",
            "confidence": 1.0,
            "uuid": "433f26f1-c399-4596-b179-ce3843cfd465",
            "name": "Mica",
            "url": "https://haz-map.com/Agents/621",
            "category": "agents"
          },
          {
            "type": "name_match",
            "text": "pharmaceuticals",
            "confidence": 1.0,
            "uuid": "713c3c30-b67e-4a2f-a90f-b32f8a306332",
            "name": "PHARMACEUTICALS",
            "url": "https://haz-map.com/Agents/1000",
            "category": "agents"
          },
          {
            "type": "name_match",
            "text": "coal tar",
            "confidence": 1.0,
            "uuid": "df40f58d-45ab-44c5-8e73-a9916bba6e2c",
            "name": "Coal tar",
            "url": "https://haz-map.com/Agents/1575",
            "category": "agents"
          }
        ]
      },
      "comments": {
        "original_name": "Comments",
        "value": "A mild skin irritant; [RTECS] A skin and mucous membrane irritant; [NTP] A skin and strong eye irritant; Toxic by ingestion and skin absorption; [Alfa Aesar MSDS] See \"Quinoline.\"",
        "links": [],
        "cross_references": [
          {
            "type": "name_match",
            "text": "quinoline",
            "confidence": 1.0,
            "uuid": "ba9097a5-8299-4dfd-a74a-f179b7d465d1",
            "name": "Quinoline",
            "url": "https://haz-map.com/Agents/6937",
            "category": "agents"
          }
        ]
      },
      "biomedical_references": {
        "original_name": "Biomedical References",
        "value": "Search PubMed",
        "links": [
          {
            "text": "Search PubMed",
            "url": "https://www.ncbi.nlm.nih.gov/pubmed?term=Quinaldine%20AND%20human%5Bmh%5D%20AND%20%28Occupational%20Diseases%20%5Bmh%5D%20OR%20Occupational%20Exposure%20%5Bmh%5D%29%20%20AND%20%28tox%5Bsb%5D%29&cmd=search"
          }
        ],
        "cross_references": []
      }
    },
    "exposure_assessment": {
      "vapor_pressure": {
        "original_name": "Vapor Pressure",
        "value": "0.00946 mm Hg",
        "links": [],
        "cross_references": []
      }
    },
    "diseases_processes_and_activities_linked_to_this_agent": {
      "other_information": {
        "original_name": "Other Information",
        "value": "No other related information on this agent was found.",
        "links": [],
        "cross_references": []
      }
    }
  },
  "cross_references": [
    {
      "type": "name_match",
      "text": "mica",
      "confidence": 1.0,
      "uuid": "433f26f1-c399-4596-b179-ce3843cfd465",
      "name": "Mica",
      "url": "https://haz-map.com/Agents/621",
      "category": "agents"
    },
    {
      "type": "name_match",
      "text": "pharmaceuticals",
      "confidence": 1.0,
      "uuid": "713c3c30-b67e-4a2f-a90f-b32f8a306332",
      "name": "PHARMACEUTICALS",
      "url": "https://haz-map.com/Agents/1000",
      "category": "agents"
    },
    {
      "type": "name_match",
      "text": "nitrogen",
      "confidence": 1.0,
      "uuid": "db5e90a9-06d2-45b9-8b81-f345a89b0bc0",
      "name": "Nitrogen",
      "url": "https://haz-map.com/Agents/1072",
      "category": "agents"
    },
    {
      "type": "name_match",
      "text": "coal tar",
      "confidence": 1.0,
      "uuid": "df40f58d-45ab-44c5-8e73-a9916bba6e2c",
      "name": "Coal tar",
      "url": "https://haz-map.com/Agents/1575",
      "category": "agents"
    },
    {
      "type": "name_match",
      "text": "quinoline",
      "confidence": 1.0,
      "uuid": "ba9097a5-8299-4dfd-a74a-f179b7d465d1",
      "name": "Quinoline",
      "url": "https://haz-map.com/Agents/6937",
      "category": "agents"
    },
    {
      "type": "name_match",
      "text": "quinaldine",
      "confidence": 1.0,
      "uuid": "afc8b0b1-b1a0-40ed-9105-49c483f30078",
      "name": "Quinaldine",
      "url": "https://haz-map.com/Agents/10926",
      "category": "agents"
    }
  ],
  "all_links": [
    {
      "text": "Search PubMed",
      "url": "https://www.ncbi.nlm.nih.gov/pubmed?term=Quinaldine%20AND%20human%5Bmh%5D%20AND%20%28Occupational%20Diseases%20%5Bmh%5D%20OR%20Occupational%20Exposure%20%5Bmh%5D%29%20%20AND%20%28tox%5Bsb%5D%29&cmd=search"
    }
  ]
}