{
  "metadata": {
    "scraped_from": "https://haz-map.com/Agents/1454",
    "entity_name": "Tabun",
    "category": "agents",
    "uuid": "b02e68cb-15e4-4ce6-83ac-59115856d563",
    "scraped_at": "2025-07-23T18:59:23.758659"
  },
  "parsed_at": "2025-07-24T00:59:39.758728",
  "title": "Tabun",
  "sections": {
    "general": {
      "agent_name": {
        "original_name": "Agent Name",
        "value": "Tabun",
        "links": [],
        "cross_references": [
          {
            "type": "name_match",
            "text": "tabun",
            "confidence": 1.0,
            "uuid": "b02e68cb-15e4-4ce6-83ac-59115856d563",
            "name": "Tabun",
            "url": "https://haz-map.com/Agents/1454",
            "category": "agents"
          }
        ]
      },
      "alternative_name": {
        "original_name": "Alternative Name",
        "value": "GA",
        "links": [],
        "cross_references": []
      },
      "cas_number": {
        "original_name": "CAS Number",
        "value": "77-81-6",
        "links": [],
        "cross_references": []
      },
      "formula": {
        "original_name": "Formula",
        "value": "C5-H11-N2-O2-P",
        "links": [],
        "cross_references": []
      },
      "major_category": {
        "original_name": "Major Category",
        "value": "Toxic Gases & Vapors",
        "links": [],
        "cross_references": []
      },
      "synonyms": {
        "original_name": "Synonyms",
        "value": "GA; Dimethylamidoethoxyphosphoryl cyanide; Dimethylaminocyanphosphorsaeureaethylester [German]; Dimethylphosphoramidocyanidic acid, ethyl ester; EA 1205; Ethyl N,N-dimethylphosphoramidocyanidate; Ethyl N-dimethylphosphoramidocyanidate; Ethyl dimethylamidocyanophosphate; Ethyl dimethylphosphoramido cyanidate; Ethyl dimethylphosphoramidocyanidate; Ethyl phosphorodimethylamidocyanidate; Ethylester-dimethylamid kyseliny kyanfosfonove [Czech]; GA [Chemical Warfare Agent]; Gelan I; Le-100; Nerve agent; O-Ethyl N,N-dimethylphosphoramidocyanidate; T-2104; TL 1578; Taboon A; Trilon 83; Phosphoramidocyanidic acid, N,N-dimethyl-, ethyl ester; Phosphoramidocyanidic acid, dimethyl-, ethyl ester; [ChemIDplus] UN2810",
        "links": [],
        "cross_references": [
          {
            "type": "name_match",
            "text": "mica",
            "confidence": 1.0,
            "uuid": "433f26f1-c399-4596-b179-ce3843cfd465",
            "name": "Mica",
            "url": "https://haz-map.com/Agents/621",
            "category": "agents"
          },
          {
            "type": "name_match",
            "text": "urea",
            "confidence": 1.0,
            "uuid": "a92a6129-bddd-4f79-9a78-136812ae610f",
            "name": "Urea",
            "url": "https://haz-map.com/Agents/2078",
            "category": "agents"
          },
          {
            "type": "name_match",
            "text": "cyanophos",
            "confidence": 1.0,
            "uuid": "a30cfab9-f080-474c-9637-8ed6d1dd9137",
            "name": "Cyanophos",
            "url": "https://haz-map.com/Agents/4566",
            "category": "agents"
          },
          {
            "type": "name_match",
            "text": "cyanide",
            "confidence": 1.0,
            "uuid": "0b4d38ba-cc5c-4386-8079-9e7ff8fb2d3a",
            "name": "Cyanide",
            "url": "https://haz-map.com/Agents/13350",
            "category": "agents"
          }
        ]
      },
      "category": {
        "original_name": "Category",
        "value": "Chemical Weapons",
        "links": [],
        "cross_references": [
          {
            "type": "name_match",
            "text": "mica",
            "confidence": 1.0,
            "uuid": "433f26f1-c399-4596-b179-ce3843cfd465",
            "name": "Mica",
            "url": "https://haz-map.com/Agents/621",
            "category": "agents"
          }
        ]
      },
      "description": {
        "original_name": "Description",
        "value": "Colorless to brown liquid with a mild fruity odor; Odorless when pure; [U.S. Army SBCCOM MSDS]",
        "links": [],
        "cross_references": []
      },
      "sourcesuses": {
        "original_name": "Sources/Uses",
        "value": "Chemical warfare",
        "links": [],
        "cross_references": [
          {
            "type": "name_match",
            "text": "mica",
            "confidence": 1.0,
            "uuid": "433f26f1-c399-4596-b179-ce3843cfd465",
            "name": "Mica",
            "url": "https://haz-map.com/Agents/621",
            "category": "agents"
          }
        ]
      },
      "comments": {
        "original_name": "Comments",
        "value": "Tabun is a colorless to brown liquid with a fruity odor and a vapor pressure of 0.037 at 68 degrees F. It persists in the soil with a half-life of 1-1.5 days. [Jane, p. 81-2] \"TABUN (GA) has an especially rapid onset of action, which on a weight basis is less potent than VX. The human fatal dose has been reported to be 0.01 mg/kg.\" [HSDB] \"As little as one drop of VX on the skin can be fatal and 1 to 10 mL of GA, GB, or GD can be fatal.\" [ATSDR Medical Management] An extremely poisonous cholinesterase inhibitor; Can be absorbed through skin and eyes; [Merck Index] See the disease, \"Organophosphate & carbamates, acute poisoning.\"",
        "links": [],
        "cross_references": [
          {
            "type": "name_match",
            "text": "tabun",
            "confidence": 1.0,
            "uuid": "b02e68cb-15e4-4ce6-83ac-59115856d563",
            "name": "Tabun",
            "url": "https://haz-map.com/Agents/1454",
            "category": "agents"
          },
          {
            "type": "name_match",
            "text": "vx",
            "confidence": 1.0,
            "uuid": "b7218a14-b130-4ca0-a815-ba4b69602337",
            "name": "VX",
            "url": "https://haz-map.com/Agents/1455",
            "category": "agents"
          },
          {
            "type": "name_match",
            "text": "ht",
            "confidence": 1.0,
            "uuid": "764df367-8d53-4a11-81a2-31ccfe122a8d",
            "name": "HT",
            "url": "https://haz-map.com/Agents/2168",
            "category": "agents"
          },
          {
            "type": "name_match",
            "text": "choline",
            "confidence": 1.0,
            "uuid": "a21a71e9-9d67-4563-9da2-98c4dcb1b766",
            "name": "Choline",
            "url": "https://haz-map.com/Agents/12978",
            "category": "agents"
          }
        ]
      },
      "reference_link_1": {
        "original_name": "Reference Link #1",
        "value": "ATSDR - Medical Management: Nerve Agents: Tabun (GA); Sarin (GB); Soman (GD); and VX",
        "links": [
          {
            "text": "ATSDR - Medical Management: Nerve Agents: Tabun (GA); Sarin (GB); Soman (GD); and VX",
            "url": "http://www.atsdr.cdc.gov/mmg/mmg.asp?id=523&tid=93"
          }
        ],
        "cross_references": [
          {
            "type": "name_match",
            "text": "sarin",
            "confidence": 1.0,
            "uuid": "0b2477bd-5683-4fa1-a959-0f0b278d6300",
            "name": "Sarin",
            "url": "https://haz-map.com/Agents/1452",
            "category": "agents"
          },
          {
            "type": "name_match",
            "text": "soman",
            "confidence": 1.0,
            "uuid": "7ba8fa7c-eb4e-45ad-bde5-5365fd12f0ae",
            "name": "Soman",
            "url": "https://haz-map.com/Agents/1453",
            "category": "agents"
          },
          {
            "type": "name_match",
            "text": "tabun",
            "confidence": 1.0,
            "uuid": "b02e68cb-15e4-4ce6-83ac-59115856d563",
            "name": "Tabun",
            "url": "https://haz-map.com/Agents/1454",
            "category": "agents"
          },
          {
            "type": "name_match",
            "text": "vx",
            "confidence": 1.0,
            "uuid": "b7218a14-b130-4ca0-a815-ba4b69602337",
            "name": "VX",
            "url": "https://haz-map.com/Agents/1455",
            "category": "agents"
          }
        ]
      },
      "biomedical_references": {
        "original_name": "Biomedical References",
        "value": "Search PubMed",
        "links": [
          {
            "text": "Search PubMed",
            "url": "https://www.ncbi.nlm.nih.gov/pubmed?term=Tabun%20AND%20human%5Bmh%5D%20AND%20%28Occupational%20Diseases%20%5Bmh%5D%20OR%20Occupational%20Exposure%20%5Bmh%5D%29%20%20AND%20%28tox%5Bsb%5D%29&cmd=search"
          }
        ],
        "cross_references": []
      }
    },
    "exposure_assessment": {
      "tih": {
        "original_name": "TIH",
        "value": "Yes",
        "links": [],
        "cross_references": []
      },
      "vapor_pressure": {
        "original_name": "Vapor Pressure",
        "value": "0.07 mm Hg",
        "links": [],
        "cross_references": []
      },
      "lethal_concentration": {
        "original_name": "Lethal Concentration",
        "value": "LCLo (human) = 150 mg/m3",
        "links": [],
        "cross_references": []
      },
      "explanatory_notes": {
        "original_name": "Explanatory Notes",
        "value": "VP from HSDB;",
        "links": [],
        "cross_references": []
      }
    },
    "adverse_effects": {
      "other_poison": {
        "original_name": "Other Poison",
        "value": "Organophosphate",
        "links": [],
        "cross_references": []
      }
    },
    "diseases_processes_and_activities_linked_to_this_agent": {
      "diseases": {
        "original_name": "Diseases",
        "value": "Occupational diseases associated with exposure to this agent: Organophosphates & carbamates, acute poisoning",
        "links": [
          {
            "text": "Organophosphates & carbamates, acute poisoning",
            "url": "https://haz-map.com/Diseases/66"
          }
        ],
        "cross_references": [
          {
            "type": "url_match",
            "text": "Organophosphates & carbamates, acute poisoning",
            "url": "https://haz-map.com/Diseases/66",
            "confidence": 1.0,
            "uuid": "aea2cba9-fb36-463f-84d8-b819551bb327",
            "name": "Organophosphates & carbamates, acute poisoning",
            "category": "diseases"
          },
          {
            "type": "name_match",
            "text": "organophosphates",
            "confidence": 1.0,
            "uuid": "8d2d239c-20f9-4f02-9916-5e7667b9990c",
            "name": "ORGANOPHOSPHATES",
            "url": "https://haz-map.com/Agents/702",
            "category": "agents"
          }
        ]
      }
    }
  },
  "cross_references": [
    {
      "type": "url_match",
      "text": "Organophosphates & carbamates, acute poisoning",
      "url": "https://haz-map.com/Diseases/66",
      "confidence": 1.0,
      "uuid": "aea2cba9-fb36-463f-84d8-b819551bb327",
      "name": "Organophosphates & carbamates, acute poisoning",
      "category": "diseases"
    },
    {
      "type": "name_match",
      "text": "mica",
      "confidence": 1.0,
      "uuid": "433f26f1-c399-4596-b179-ce3843cfd465",
      "name": "Mica",
      "url": "https://haz-map.com/Agents/621",
      "category": "agents"
    },
    {
      "type": "name_match",
      "text": "organophosphates",
      "confidence": 1.0,
      "uuid": "8d2d239c-20f9-4f02-9916-5e7667b9990c",
      "name": "ORGANOPHOSPHATES",
      "url": "https://haz-map.com/Agents/702",
      "category": "agents"
    },
    {
      "type": "name_match",
      "text": "sarin",
      "confidence": 1.0,
      "uuid": "0b2477bd-5683-4fa1-a959-0f0b278d6300",
      "name": "Sarin",
      "url": "https://haz-map.com/Agents/1452",
      "category": "agents"
    },
    {
      "type": "name_match",
      "text": "soman",
      "confidence": 1.0,
      "uuid": "7ba8fa7c-eb4e-45ad-bde5-5365fd12f0ae",
      "name": "Soman",
      "url": "https://haz-map.com/Agents/1453",
      "category": "agents"
    },
    {
      "type": "name_match",
      "text": "tabun",
      "confidence": 1.0,
      "uuid": "b02e68cb-15e4-4ce6-83ac-59115856d563",
      "name": "Tabun",
      "url": "https://haz-map.com/Agents/1454",
      "category": "agents"
    },
    {
      "type": "name_match",
      "text": "vx",
      "confidence": 1.0,
      "uuid": "b7218a14-b130-4ca0-a815-ba4b69602337",
      "name": "VX",
      "url": "https://haz-map.com/Agents/1455",
      "category": "agents"
    },
    {
      "type": "name_match",
      "text": "urea",
      "confidence": 1.0,
      "uuid": "a92a6129-bddd-4f79-9a78-136812ae610f",
      "name": "Urea",
      "url": "https://haz-map.com/Agents/2078",
      "category": "agents"
    },
    {
      "type": "name_match",
      "text": "ht",
      "confidence": 1.0,
      "uuid": "764df367-8d53-4a11-81a2-31ccfe122a8d",
      "name": "HT",
      "url": "https://haz-map.com/Agents/2168",
      "category": "agents"
    },
    {
      "type": "name_match",
      "text": "cyanophos",
      "confidence": 1.0,
      "uuid": "a30cfab9-f080-474c-9637-8ed6d1dd9137",
      "name": "Cyanophos",
      "url": "https://haz-map.com/Agents/4566",
      "category": "agents"
    },
    {
      "type": "name_match",
      "text": "choline",
      "confidence": 1.0,
      "uuid": "a21a71e9-9d67-4563-9da2-98c4dcb1b766",
      "name": "Choline",
      "url": "https://haz-map.com/Agents/12978",
      "category": "agents"
    },
    {
      "type": "name_match",
      "text": "cyanide",
      "confidence": 1.0,
      "uuid": "0b4d38ba-cc5c-4386-8079-9e7ff8fb2d3a",
      "name": "Cyanide",
      "url": "https://haz-map.com/Agents/13350",
      "category": "agents"
    }
  ],
  "all_links": [
    {
      "text": "ATSDR - Medical Management: Nerve Agents: Tabun (GA); Sarin (GB); Soman (GD); and VX",
      "url": "http://www.atsdr.cdc.gov/mmg/mmg.asp?id=523&tid=93"
    },
    {
      "text": "Search PubMed",
      "url": "https://www.ncbi.nlm.nih.gov/pubmed?term=Tabun%20AND%20human%5Bmh%5D%20AND%20%28Occupational%20Diseases%20%5Bmh%5D%20OR%20Occupational%20Exposure%20%5Bmh%5D%29%20%20AND%20%28tox%5Bsb%5D%29&cmd=search"
    },
    {
      "text": "Organophosphates & carbamates, acute poisoning",
      "url": "https://haz-map.com/Diseases/66"
    }
  ]
}