{
  "metadata": {
    "scraped_from": "https://haz-map.com/Agents/1970",
    "entity_name": "Methyl orange",
    "category": "agents",
    "uuid": "b05d00e9-089c-4d64-80fc-7cb74ae2fe78",
    "scraped_at": "2025-07-23T19:07:42.372834"
  },
  "parsed_at": "2025-07-24T00:58:22.986701",
  "title": "Methyl orange",
  "sections": {
    "general": {
      "agent_name": {
        "original_name": "Agent Name",
        "value": "Methyl orange",
        "links": [],
        "cross_references": [
          {
            "type": "name_match",
            "text": "methyl orange",
            "confidence": 1.0,
            "uuid": "b05d00e9-089c-4d64-80fc-7cb74ae2fe78",
            "name": "Methyl orange",
            "url": "https://haz-map.com/Agents/1970",
            "category": "agents"
          }
        ]
      },
      "cas_number": {
        "original_name": "CAS Number",
        "value": "547-58-0",
        "links": [],
        "cross_references": []
      },
      "formula": {
        "original_name": "Formula",
        "value": "C14-H15-N3-O3-S.Na",
        "links": [],
        "cross_references": []
      },
      "major_category": {
        "original_name": "Major Category",
        "value": "Dyes",
        "links": [],
        "cross_references": []
      },
      "synonyms": {
        "original_name": "Synonyms",
        "value": "4-Dimethylaminoazobenzene-4'-sulphonic acid sodium salt; C.I. 13025; C.I. Acid Orange 52; CI 13025; CI Acid Orange 52; Eniamethyl Orange; Gold Orange; Helianthine; Helianthine B; Kca Methyl Orange; Methyl Orange; Methyl Orange B; Methyloranz [Czech]; Orange 3; Orange III; Orange III (VAN); Oranz III [Czech]; Oranz kysela 52 [Czech]; Oranz methylova [Czech]; Sodium 4'-(dimethylamino)azobenzene-4-sulfonate; Sodium 4-(4-(dimethylamino)phenylazo)benzenesulfonate; Sodium 4-(dimethylamino)azobenzene-4'-sulfonate; Sodium p-dimethylaminoazobenzenesulfonate; Tropaeolin D; p-((p-(Dimethylamino)phenyl)azo)benzenesulfonic acid sodium; salt; Benzenesulfonic acid, 4-((4-(dimethylamino)phenyl)azo)-,; sodium salt; Benzenesulfonic acid, p-((p-(dimethylamino)phenyl)azo)-,; sodium salt; [ChemIDplus]",
        "links": [],
        "cross_references": [
          {
            "type": "name_match",
            "text": "benzene",
            "confidence": 1.0,
            "uuid": "b05124de-5f34-4c14-8f04-ccb20c3780d9",
            "name": "Benzene",
            "url": "https://haz-map.com/Agents/5",
            "category": "agents"
          },
          {
            "type": "name_match",
            "text": "4-dimethylaminoazobenzene",
            "confidence": 1.0,
            "uuid": "dadf0d93-0e72-4695-8b6c-a125f8fece58",
            "name": "4-Dimethylaminoazobenzene",
            "url": "https://haz-map.com/Agents/282",
            "category": "agents"
          },
          {
            "type": "name_match",
            "text": "gold",
            "confidence": 1.0,
            "uuid": "8f37bad1-17df-446f-b0ed-11d2ef239483",
            "name": "Gold",
            "url": "https://haz-map.com/Agents/1186",
            "category": "agents"
          },
          {
            "type": "name_match",
            "text": "sodium",
            "confidence": 1.0,
            "uuid": "1adffc42-a4d8-44d5-81d6-7dbd96ef8a6f",
            "name": "Sodium",
            "url": "https://haz-map.com/Agents/1527",
            "category": "agents"
          },
          {
            "type": "name_match",
            "text": "methyl orange",
            "confidence": 1.0,
            "uuid": "b05d00e9-089c-4d64-80fc-7cb74ae2fe78",
            "name": "Methyl orange",
            "url": "https://haz-map.com/Agents/1970",
            "category": "agents"
          },
          {
            "type": "name_match",
            "text": "azobenzene",
            "confidence": 1.0,
            "uuid": "e1a05c98-d051-4091-8654-3bf45ff3ecbf",
            "name": "Azobenzene",
            "url": "https://haz-map.com/Agents/3789",
            "category": "agents"
          },
          {
            "type": "name_match",
            "text": "benzenesulfonic acid",
            "confidence": 1.0,
            "uuid": "39630619-7b3f-4266-b4e1-e41deb2f24e6",
            "name": "Benzenesulfonic acid",
            "url": "https://haz-map.com/Agents/3840",
            "category": "agents"
          },
          {
            "type": "name_match",
            "text": "orange i",
            "confidence": 1.0,
            "uuid": "8e32ba5d-8182-4d74-b579-a7c77924f6a5",
            "name": "Orange I",
            "url": "https://haz-map.com/Agents/4065",
            "category": "agents"
          }
        ]
      },
      "category": {
        "original_name": "Category",
        "value": "Azo Dyes",
        "links": [],
        "cross_references": []
      },
      "description": {
        "original_name": "Description",
        "value": "Orange powder, insoluble in water; [CAMEO]",
        "links": [],
        "cross_references": [
          {
            "type": "name_match",
            "text": "water",
            "confidence": 1.0,
            "uuid": "6f2a7557-dfd2-49bc-9b4b-a93cd8e225d4",
            "name": "Water",
            "url": "https://haz-map.com/Agents/18668",
            "category": "agents"
          }
        ]
      },
      "sourcesuses": {
        "original_name": "Sources/Uses",
        "value": "Used as a pH indicator for the pH range of 3.1-4.4; [Ullmann]",
        "links": [],
        "cross_references": []
      },
      "comments": {
        "original_name": "Comments",
        "value": "Azo, diazo, azido compounds can detonate, especially organic azides that have been sensitized by adding metal salts or strong acids. [CAMEO]",
        "links": [],
        "cross_references": [
          {
            "type": "name_match",
            "text": "azides",
            "confidence": 1.0,
            "uuid": "4b502973-6d9a-4097-9366-4ff373e92c85",
            "name": "AZIDES",
            "url": "https://haz-map.com/Agents/1948",
            "category": "agents"
          }
        ]
      },
      "biomedical_references": {
        "original_name": "Biomedical References",
        "value": "Search PubMed",
        "links": [
          {
            "text": "Search PubMed",
            "url": "https://www.ncbi.nlm.nih.gov/pubmed?term=Methyl+orange%20AND%20human%5Bmh%5D%20AND%20%28Occupational%20Diseases%20%5Bmh%5D%20OR%20Occupational%20Exposure%20%5Bmh%5D%29%20%20AND%20%28tox%5Bsb%5D%29&cmd=search"
          }
        ],
        "cross_references": []
      }
    },
    "exposure_assessment": {
      "vapor_pressure": {
        "original_name": "Vapor Pressure",
        "value": "1.13E-15 mm Hg",
        "links": [],
        "cross_references": []
      }
    },
    "diseases_processes_and_activities_linked_to_this_agent": {
      "other_information": {
        "original_name": "Other Information",
        "value": "No other related information on this agent was found.",
        "links": [],
        "cross_references": []
      }
    }
  },
  "cross_references": [
    {
      "type": "name_match",
      "text": "benzene",
      "confidence": 1.0,
      "uuid": "b05124de-5f34-4c14-8f04-ccb20c3780d9",
      "name": "Benzene",
      "url": "https://haz-map.com/Agents/5",
      "category": "agents"
    },
    {
      "type": "name_match",
      "text": "4-dimethylaminoazobenzene",
      "confidence": 1.0,
      "uuid": "dadf0d93-0e72-4695-8b6c-a125f8fece58",
      "name": "4-Dimethylaminoazobenzene",
      "url": "https://haz-map.com/Agents/282",
      "category": "agents"
    },
    {
      "type": "name_match",
      "text": "gold",
      "confidence": 1.0,
      "uuid": "8f37bad1-17df-446f-b0ed-11d2ef239483",
      "name": "Gold",
      "url": "https://haz-map.com/Agents/1186",
      "category": "agents"
    },
    {
      "type": "name_match",
      "text": "sodium",
      "confidence": 1.0,
      "uuid": "1adffc42-a4d8-44d5-81d6-7dbd96ef8a6f",
      "name": "Sodium",
      "url": "https://haz-map.com/Agents/1527",
      "category": "agents"
    },
    {
      "type": "name_match",
      "text": "azides",
      "confidence": 1.0,
      "uuid": "4b502973-6d9a-4097-9366-4ff373e92c85",
      "name": "AZIDES",
      "url": "https://haz-map.com/Agents/1948",
      "category": "agents"
    },
    {
      "type": "name_match",
      "text": "methyl orange",
      "confidence": 1.0,
      "uuid": "b05d00e9-089c-4d64-80fc-7cb74ae2fe78",
      "name": "Methyl orange",
      "url": "https://haz-map.com/Agents/1970",
      "category": "agents"
    },
    {
      "type": "name_match",
      "text": "azobenzene",
      "confidence": 1.0,
      "uuid": "e1a05c98-d051-4091-8654-3bf45ff3ecbf",
      "name": "Azobenzene",
      "url": "https://haz-map.com/Agents/3789",
      "category": "agents"
    },
    {
      "type": "name_match",
      "text": "benzenesulfonic acid",
      "confidence": 1.0,
      "uuid": "39630619-7b3f-4266-b4e1-e41deb2f24e6",
      "name": "Benzenesulfonic acid",
      "url": "https://haz-map.com/Agents/3840",
      "category": "agents"
    },
    {
      "type": "name_match",
      "text": "orange i",
      "confidence": 1.0,
      "uuid": "8e32ba5d-8182-4d74-b579-a7c77924f6a5",
      "name": "Orange I",
      "url": "https://haz-map.com/Agents/4065",
      "category": "agents"
    },
    {
      "type": "name_match",
      "text": "water",
      "confidence": 1.0,
      "uuid": "6f2a7557-dfd2-49bc-9b4b-a93cd8e225d4",
      "name": "Water",
      "url": "https://haz-map.com/Agents/18668",
      "category": "agents"
    }
  ],
  "all_links": [
    {
      "text": "Search PubMed",
      "url": "https://www.ncbi.nlm.nih.gov/pubmed?term=Methyl+orange%20AND%20human%5Bmh%5D%20AND%20%28Occupational%20Diseases%20%5Bmh%5D%20OR%20Occupational%20Exposure%20%5Bmh%5D%29%20%20AND%20%28tox%5Bsb%5D%29&cmd=search"
    }
  ]
}