{
  "metadata": {
    "scraped_from": "https://haz-map.com/Agents/3453",
    "entity_name": "2-Chlorophenoxyacetic acid",
    "category": "agents",
    "uuid": "b0b82028-7835-4de3-b0cb-7f51cc11df8b",
    "scraped_at": "2025-07-23T19:29:22.453036"
  },
  "parsed_at": "2025-07-24T00:51:08.090893",
  "title": "2-Chlorophenoxyacetic acid",
  "sections": {
    "general": {
      "agent_name": {
        "original_name": "Agent Name",
        "value": "2-Chlorophenoxyacetic acid",
        "links": [],
        "cross_references": [
          {
            "type": "name_match",
            "text": "acetic acid",
            "confidence": 1.0,
            "uuid": "0905c6e4-df84-4895-a92d-658819239bbd",
            "name": "Acetic acid",
            "url": "https://haz-map.com/Agents/207",
            "category": "agents"
          },
          {
            "type": "name_match",
            "text": "2-chlorophenoxyacetic acid",
            "confidence": 1.0,
            "uuid": "b0b82028-7835-4de3-b0cb-7f51cc11df8b",
            "name": "2-Chlorophenoxyacetic acid",
            "url": "https://haz-map.com/Agents/3453",
            "category": "agents"
          }
        ]
      },
      "cas_number": {
        "original_name": "CAS Number",
        "value": "614-61-9",
        "links": [],
        "cross_references": []
      },
      "formula": {
        "original_name": "Formula",
        "value": "C8-H7-Cl-O3",
        "links": [],
        "cross_references": []
      },
      "major_category": {
        "original_name": "Major Category",
        "value": "Other Classes",
        "links": [],
        "cross_references": []
      },
      "synonyms": {
        "original_name": "Synonyms",
        "value": "(2-Chlorophenoxy)acetic acid; Acetic acid, (2-chlorophenoxy)-; Acetic acid, o-chlorophenoxy-; Acide o-chlorophenoxyacetique [French]; o-Chlorophenoxyacetic acid; [ChemIDplus]",
        "links": [],
        "cross_references": [
          {
            "type": "name_match",
            "text": "acetic acid",
            "confidence": 1.0,
            "uuid": "0905c6e4-df84-4895-a92d-658819239bbd",
            "name": "Acetic acid",
            "url": "https://haz-map.com/Agents/207",
            "category": "agents"
          }
        ]
      },
      "category": {
        "original_name": "Category",
        "value": "Organic Acids",
        "links": [],
        "cross_references": []
      },
      "description": {
        "original_name": "Description",
        "value": "Solid; [HSDB] White powder; [MSDSonline]",
        "links": [],
        "cross_references": []
      },
      "sourcesuses": {
        "original_name": "Sources/Uses",
        "value": "Used as a chemical reagent; May occur as a minor contaminant of the herbicide 4-chloro-2-methylphenoxy acetic acid (MCPA); [HSDB]",
        "links": [],
        "cross_references": [
          {
            "type": "name_match",
            "text": "acetic acid",
            "confidence": 1.0,
            "uuid": "0905c6e4-df84-4895-a92d-658819239bbd",
            "name": "Acetic acid",
            "url": "https://haz-map.com/Agents/207",
            "category": "agents"
          },
          {
            "type": "name_match",
            "text": "mica",
            "confidence": 1.0,
            "uuid": "433f26f1-c399-4596-b179-ce3843cfd465",
            "name": "Mica",
            "url": "https://haz-map.com/Agents/621",
            "category": "agents"
          }
        ]
      },
      "comments": {
        "original_name": "Comments",
        "value": "Emergency medical treatment: chlorophenoxy compounds; [HSDB] An irritant; [MSDSonline] See \"2-Methyl-4-chlorophenoxyacetic acid.\"",
        "links": [],
        "cross_references": [
          {
            "type": "name_match",
            "text": "acetic acid",
            "confidence": 1.0,
            "uuid": "0905c6e4-df84-4895-a92d-658819239bbd",
            "name": "Acetic acid",
            "url": "https://haz-map.com/Agents/207",
            "category": "agents"
          },
          {
            "type": "name_match",
            "text": "2-methyl-4-chlorophenoxyacetic acid",
            "confidence": 1.0,
            "uuid": "92f06e54-f125-4ed5-a031-031f4cd7a1fc",
            "name": "2-Methyl-4-chlorophenoxyacetic acid",
            "url": "https://haz-map.com/Agents/3456",
            "category": "agents"
          },
          {
            "type": "name_match",
            "text": "4-chlorophenoxyacetic acid",
            "confidence": 1.0,
            "uuid": "753989d9-2aac-41da-b6e1-e4223f2f18fd",
            "name": "4-Chlorophenoxyacetic acid",
            "url": "https://haz-map.com/Agents/3475",
            "category": "agents"
          }
        ]
      },
      "biomedical_references": {
        "original_name": "Biomedical References",
        "value": "Search PubMed",
        "links": [
          {
            "text": "Search PubMed",
            "url": "https://www.ncbi.nlm.nih.gov/pubmed?term=2-Chlorophenoxyacetic+acid%20AND%20human%5Bmh%5D%20AND%20%28Occupational%20Diseases%20%5Bmh%5D%20OR%20Occupational%20Exposure%20%5Bmh%5D%29%20%20AND%20%28tox%5Bsb%5D%29&cmd=search"
          }
        ],
        "cross_references": []
      }
    },
    "exposure_assessment": {
      "vapor_pressure": {
        "original_name": "Vapor Pressure",
        "value": "0.000318 mm Hg",
        "links": [],
        "cross_references": []
      }
    },
    "adverse_effects": {
      "hepatotoxin": {
        "original_name": "Hepatotoxin",
        "value": "Hepatoxic (a) from occupational exposure (secondary effect) or (b) in animal studies or in humans after ingestion",
        "links": [],
        "cross_references": []
      }
    },
    "diseases_processes_and_activities_linked_to_this_agent": {
      "other_information": {
        "original_name": "Other Information",
        "value": "No other related information on this agent was found.",
        "links": [],
        "cross_references": []
      }
    }
  },
  "cross_references": [
    {
      "type": "name_match",
      "text": "acetic acid",
      "confidence": 1.0,
      "uuid": "0905c6e4-df84-4895-a92d-658819239bbd",
      "name": "Acetic acid",
      "url": "https://haz-map.com/Agents/207",
      "category": "agents"
    },
    {
      "type": "name_match",
      "text": "mica",
      "confidence": 1.0,
      "uuid": "433f26f1-c399-4596-b179-ce3843cfd465",
      "name": "Mica",
      "url": "https://haz-map.com/Agents/621",
      "category": "agents"
    },
    {
      "type": "name_match",
      "text": "2-chlorophenoxyacetic acid",
      "confidence": 1.0,
      "uuid": "b0b82028-7835-4de3-b0cb-7f51cc11df8b",
      "name": "2-Chlorophenoxyacetic acid",
      "url": "https://haz-map.com/Agents/3453",
      "category": "agents"
    },
    {
      "type": "name_match",
      "text": "2-methyl-4-chlorophenoxyacetic acid",
      "confidence": 1.0,
      "uuid": "92f06e54-f125-4ed5-a031-031f4cd7a1fc",
      "name": "2-Methyl-4-chlorophenoxyacetic acid",
      "url": "https://haz-map.com/Agents/3456",
      "category": "agents"
    },
    {
      "type": "name_match",
      "text": "4-chlorophenoxyacetic acid",
      "confidence": 1.0,
      "uuid": "753989d9-2aac-41da-b6e1-e4223f2f18fd",
      "name": "4-Chlorophenoxyacetic acid",
      "url": "https://haz-map.com/Agents/3475",
      "category": "agents"
    }
  ],
  "all_links": [
    {
      "text": "Search PubMed",
      "url": "https://www.ncbi.nlm.nih.gov/pubmed?term=2-Chlorophenoxyacetic+acid%20AND%20human%5Bmh%5D%20AND%20%28Occupational%20Diseases%20%5Bmh%5D%20OR%20Occupational%20Exposure%20%5Bmh%5D%29%20%20AND%20%28tox%5Bsb%5D%29&cmd=search"
    }
  ]
}