{
  "metadata": {
    "scraped_from": "https://haz-map.com/Agents/18388",
    "entity_name": "Styphnic acid",
    "category": "agents",
    "uuid": "b1132eb6-90f5-48aa-b369-1996c19f243a",
    "scraped_at": "2025-07-23T21:55:13.003480"
  },
  "parsed_at": "2025-07-24T00:59:23.716958",
  "title": "Styphnic acid",
  "sections": {
    "general": {
      "agent_name": {
        "original_name": "Agent Name",
        "value": "Styphnic acid",
        "links": [],
        "cross_references": [
          {
            "type": "name_match",
            "text": "styphnic acid",
            "confidence": 1.0,
            "uuid": "b1132eb6-90f5-48aa-b369-1996c19f243a",
            "name": "Styphnic acid",
            "url": "https://haz-map.com/Agents/18388",
            "category": "agents"
          }
        ]
      },
      "alternative_name": {
        "original_name": "Alternative Name",
        "value": "Trinitroresorcinol",
        "links": [],
        "cross_references": [
          {
            "type": "name_match",
            "text": "resorcinol",
            "confidence": 1.0,
            "uuid": "ae206fe4-b82a-4fe5-80a6-c479c171146e",
            "name": "Resorcinol",
            "url": "https://haz-map.com/Agents/617",
            "category": "agents"
          },
          {
            "type": "name_match",
            "text": "orcinol",
            "confidence": 1.0,
            "uuid": "ec7be405-d3a6-4ffe-a998-44bdf8777b2a",
            "name": "Orcinol",
            "url": "https://haz-map.com/Agents/16285",
            "category": "agents"
          }
        ]
      },
      "cas_number": {
        "original_name": "CAS Number",
        "value": "82-71-3",
        "links": [],
        "cross_references": []
      },
      "formula": {
        "original_name": "Formula",
        "value": "C6-H3-N3-O8",
        "links": [],
        "cross_references": []
      },
      "major_category": {
        "original_name": "Major Category",
        "value": "Other Uses",
        "links": [],
        "cross_references": []
      },
      "synonyms": {
        "original_name": "Synonyms",
        "value": "1,3-Benzenediol, 2,4,6-trinitro-; Resorcinol, 2,4,6-trinitro- (8CI); Trinitroresorcinol or styphnic acid, dry or wetted with < 20% water, or mixture of alcohol and water, by mass; Trinitroresorcinol or styphnic acid, wetted with not < 20% water, or mixture of alcohol and water, by mass; 2,4,6-Trinitro-1,3-benzenediol; 2,4,6-Trinitroresorcinol; 2,4-Dihydroxy-1,3,5-trinitrobenzene; [ChemIDplus] UN0219 (dry or wetted with <20% water, or mixture of alcohol and water, by mass); UN0394 (wetted with not < 20% water, or mixture of alcohol and water, by mass)",
        "links": [],
        "cross_references": [
          {
            "type": "name_match",
            "text": "benzene",
            "confidence": 1.0,
            "uuid": "b05124de-5f34-4c14-8f04-ccb20c3780d9",
            "name": "Benzene",
            "url": "https://haz-map.com/Agents/5",
            "category": "agents"
          },
          {
            "type": "name_match",
            "text": "2,4-d",
            "confidence": 1.0,
            "uuid": "bed35f54-2d93-4ffd-a3ee-723ab365faf1",
            "name": "2,4-D",
            "url": "https://haz-map.com/Agents/389",
            "category": "agents"
          },
          {
            "type": "name_match",
            "text": "nitrobenzene",
            "confidence": 1.0,
            "uuid": "4488262c-4790-4774-a462-bf0cc71ff40c",
            "name": "Nitrobenzene",
            "url": "https://haz-map.com/Agents/569",
            "category": "agents"
          },
          {
            "type": "name_match",
            "text": "resorcinol",
            "confidence": 1.0,
            "uuid": "ae206fe4-b82a-4fe5-80a6-c479c171146e",
            "name": "Resorcinol",
            "url": "https://haz-map.com/Agents/617",
            "category": "agents"
          },
          {
            "type": "name_match",
            "text": "1,3,5-trinitrobenzene",
            "confidence": 1.0,
            "uuid": "32e8c7bd-b41c-4905-9ffe-fe68dbec0d5f",
            "name": "1,3,5-Trinitrobenzene",
            "url": "https://haz-map.com/Agents/1583",
            "category": "agents"
          },
          {
            "type": "name_match",
            "text": "orcinol",
            "confidence": 1.0,
            "uuid": "ec7be405-d3a6-4ffe-a998-44bdf8777b2a",
            "name": "Orcinol",
            "url": "https://haz-map.com/Agents/16285",
            "category": "agents"
          },
          {
            "type": "name_match",
            "text": "styphnic acid",
            "confidence": 1.0,
            "uuid": "b1132eb6-90f5-48aa-b369-1996c19f243a",
            "name": "Styphnic acid",
            "url": "https://haz-map.com/Agents/18388",
            "category": "agents"
          },
          {
            "type": "name_match",
            "text": "water",
            "confidence": 1.0,
            "uuid": "6f2a7557-dfd2-49bc-9b4b-a93cd8e225d4",
            "name": "Water",
            "url": "https://haz-map.com/Agents/18668",
            "category": "agents"
          }
        ]
      },
      "category": {
        "original_name": "Category",
        "value": "Explosives",
        "links": [],
        "cross_references": []
      },
      "description": {
        "original_name": "Description",
        "value": "Yellow solid; [Merck Index] Ellipsoid particles; [Olin Winchester Ammunition MSDS]",
        "links": [],
        "cross_references": []
      },
      "sourcesuses": {
        "original_name": "Sources/Uses",
        "value": "Has been used to make explosives; [Merck Index] Used as a priming agent; [CAMEO] Used as a secondary explosive; [Olin Winchester Ammunition MSDS]",
        "links": [],
        "cross_references": []
      },
      "comments": {
        "original_name": "Comments",
        "value": "A strong oxidizing agent; Highly sensitive to heat and may explode; [CAMEO] Explosive; A skin and eye irritant; May cause CNS depression and methemoglobinemia followed by liver and kidney injury; Toxic to the kidney, blood, and nervous system; Harmful by ingestion, inhalation, and skin absorption; [Olin Winchester Ammunition MSDS] See \"Barium styphnate.\" See \"1,3,5-Trinitrobenzene.\"",
        "links": [],
        "cross_references": [
          {
            "type": "name_match",
            "text": "benzene",
            "confidence": 1.0,
            "uuid": "b05124de-5f34-4c14-8f04-ccb20c3780d9",
            "name": "Benzene",
            "url": "https://haz-map.com/Agents/5",
            "category": "agents"
          },
          {
            "type": "name_match",
            "text": "barium",
            "confidence": 1.0,
            "uuid": "d7a1238c-4270-4036-a0c3-45a5192a51ba",
            "name": "Barium",
            "url": "https://haz-map.com/Agents/300",
            "category": "agents"
          },
          {
            "type": "name_match",
            "text": "nitrobenzene",
            "confidence": 1.0,
            "uuid": "4488262c-4790-4774-a462-bf0cc71ff40c",
            "name": "Nitrobenzene",
            "url": "https://haz-map.com/Agents/569",
            "category": "agents"
          },
          {
            "type": "name_match",
            "text": "1,3,5-trinitrobenzene",
            "confidence": 1.0,
            "uuid": "32e8c7bd-b41c-4905-9ffe-fe68dbec0d5f",
            "name": "1,3,5-Trinitrobenzene",
            "url": "https://haz-map.com/Agents/1583",
            "category": "agents"
          },
          {
            "type": "name_match",
            "text": "barium styphnate",
            "confidence": 1.0,
            "uuid": "2c1f724e-61c3-47ae-aaed-a990d61cb9f9",
            "name": "Barium styphnate",
            "url": "https://haz-map.com/Agents/1928",
            "category": "agents"
          },
          {
            "type": "name_match",
            "text": "methemoglobin",
            "confidence": 1.0,
            "uuid": "afb7ebf5-d2a3-4e60-8d2e-3a19456344ee",
            "name": "Methemoglobin",
            "url": "https://haz-map.com/Agents/15467",
            "category": "agents"
          },
          {
            "type": "fuzzy_match",
            "text": "methemoglobinemia",
            "matched_name": "Methemoglobinemia, acute",
            "confidence": 0.7208333333333333,
            "uuid": "473a44bd-cf11-4710-a769-e8e2b25ba317",
            "category": "diseases",
            "url": "https://haz-map.com/Diseases/210"
          }
        ]
      },
      "biomedical_references": {
        "original_name": "Biomedical References",
        "value": "Search PubMed",
        "links": [
          {
            "text": "Search PubMed",
            "url": "https://www.ncbi.nlm.nih.gov/pubmed?term=Styphnic+acid%20AND%20human%5Bmh%5D%20AND%20%28Occupational%20Diseases%20%5Bmh%5D%20OR%20Occupational%20Exposure%20%5Bmh%5D%29%20%20AND%20%28tox%5Bsb%5D%29&cmd=search"
          }
        ],
        "cross_references": []
      }
    },
    "exposure_assessment": {
      "vapor_pressure": {
        "original_name": "Vapor Pressure",
        "value": "2.57E-09 mm Hg",
        "links": [],
        "cross_references": []
      },
      "explanatory_notes": {
        "original_name": "Explanatory Notes",
        "value": "The Guide in the Emergency Response Guidebook is for \"Explosives, division 1.1, 1.2, 1.3, or 1.5.\"",
        "links": [],
        "cross_references": []
      }
    },
    "adverse_effects": {
      "methemoglobinemia": {
        "original_name": "Methemoglobinemia",
        "value": "MetHgb is secondary toxic effect",
        "links": [],
        "cross_references": []
      },
      "hepatotoxin": {
        "original_name": "Hepatotoxin",
        "value": "Hepatoxic (a) from occupational exposure (secondary effect) or (b) in animal studies or in humans after ingestion",
        "links": [],
        "cross_references": []
      }
    },
    "diseases_processes_and_activities_linked_to_this_agent": {
      "other_information": {
        "original_name": "Other Information",
        "value": "No other related information on this agent was found.",
        "links": [],
        "cross_references": []
      }
    }
  },
  "cross_references": [
    {
      "type": "name_match",
      "text": "benzene",
      "confidence": 1.0,
      "uuid": "b05124de-5f34-4c14-8f04-ccb20c3780d9",
      "name": "Benzene",
      "url": "https://haz-map.com/Agents/5",
      "category": "agents"
    },
    {
      "type": "name_match",
      "text": "barium",
      "confidence": 1.0,
      "uuid": "d7a1238c-4270-4036-a0c3-45a5192a51ba",
      "name": "Barium",
      "url": "https://haz-map.com/Agents/300",
      "category": "agents"
    },
    {
      "type": "name_match",
      "text": "2,4-d",
      "confidence": 1.0,
      "uuid": "bed35f54-2d93-4ffd-a3ee-723ab365faf1",
      "name": "2,4-D",
      "url": "https://haz-map.com/Agents/389",
      "category": "agents"
    },
    {
      "type": "name_match",
      "text": "nitrobenzene",
      "confidence": 1.0,
      "uuid": "4488262c-4790-4774-a462-bf0cc71ff40c",
      "name": "Nitrobenzene",
      "url": "https://haz-map.com/Agents/569",
      "category": "agents"
    },
    {
      "type": "name_match",
      "text": "resorcinol",
      "confidence": 1.0,
      "uuid": "ae206fe4-b82a-4fe5-80a6-c479c171146e",
      "name": "Resorcinol",
      "url": "https://haz-map.com/Agents/617",
      "category": "agents"
    },
    {
      "type": "name_match",
      "text": "1,3,5-trinitrobenzene",
      "confidence": 1.0,
      "uuid": "32e8c7bd-b41c-4905-9ffe-fe68dbec0d5f",
      "name": "1,3,5-Trinitrobenzene",
      "url": "https://haz-map.com/Agents/1583",
      "category": "agents"
    },
    {
      "type": "name_match",
      "text": "barium styphnate",
      "confidence": 1.0,
      "uuid": "2c1f724e-61c3-47ae-aaed-a990d61cb9f9",
      "name": "Barium styphnate",
      "url": "https://haz-map.com/Agents/1928",
      "category": "agents"
    },
    {
      "type": "name_match",
      "text": "methemoglobin",
      "confidence": 1.0,
      "uuid": "afb7ebf5-d2a3-4e60-8d2e-3a19456344ee",
      "name": "Methemoglobin",
      "url": "https://haz-map.com/Agents/15467",
      "category": "agents"
    },
    {
      "type": "name_match",
      "text": "orcinol",
      "confidence": 1.0,
      "uuid": "ec7be405-d3a6-4ffe-a998-44bdf8777b2a",
      "name": "Orcinol",
      "url": "https://haz-map.com/Agents/16285",
      "category": "agents"
    },
    {
      "type": "name_match",
      "text": "styphnic acid",
      "confidence": 1.0,
      "uuid": "b1132eb6-90f5-48aa-b369-1996c19f243a",
      "name": "Styphnic acid",
      "url": "https://haz-map.com/Agents/18388",
      "category": "agents"
    },
    {
      "type": "name_match",
      "text": "water",
      "confidence": 1.0,
      "uuid": "6f2a7557-dfd2-49bc-9b4b-a93cd8e225d4",
      "name": "Water",
      "url": "https://haz-map.com/Agents/18668",
      "category": "agents"
    },
    {
      "type": "fuzzy_match",
      "text": "methemoglobinemia",
      "matched_name": "Methemoglobinemia, acute",
      "confidence": 0.7208333333333333,
      "uuid": "473a44bd-cf11-4710-a769-e8e2b25ba317",
      "category": "diseases",
      "url": "https://haz-map.com/Diseases/210"
    }
  ],
  "all_links": [
    {
      "text": "Search PubMed",
      "url": "https://www.ncbi.nlm.nih.gov/pubmed?term=Styphnic+acid%20AND%20human%5Bmh%5D%20AND%20%28Occupational%20Diseases%20%5Bmh%5D%20OR%20Occupational%20Exposure%20%5Bmh%5D%29%20%20AND%20%28tox%5Bsb%5D%29&cmd=search"
    }
  ]
}