{
  "metadata": {
    "scraped_from": "https://haz-map.com/Agents/4758",
    "entity_name": "Dicapthon",
    "category": "agents",
    "uuid": "b13f6d37-aeab-426c-9c4b-ee611e73ba5c",
    "scraped_at": "2025-07-23T19:44:24.093850"
  },
  "parsed_at": "2025-07-24T01:09:30.028990",
  "title": "Dicapthon",
  "sections": {
    "general": {
      "agent_name": {
        "original_name": "Agent Name",
        "value": "Dicapthon",
        "links": [],
        "cross_references": [
          {
            "type": "name_match",
            "text": "dicapthon",
            "confidence": 1.0,
            "uuid": "b13f6d37-aeab-426c-9c4b-ee611e73ba5c",
            "name": "Dicapthon",
            "url": "https://haz-map.com/Agents/4758",
            "category": "agents"
          }
        ]
      },
      "cas_number": {
        "original_name": "CAS Number",
        "value": "2463-84-5",
        "links": [],
        "cross_references": []
      },
      "formula": {
        "original_name": "Formula",
        "value": "C8-H9-Cl-N-O5-P-S",
        "links": [],
        "cross_references": []
      },
      "major_category": {
        "original_name": "Major Category",
        "value": "Pesticides",
        "links": [],
        "cross_references": []
      },
      "synonyms": {
        "original_name": "Synonyms",
        "value": "2-Chloro-4-nitrophenyl dimethyl phosphorothioate; AC 4124; ACC 4124; American Cyanamid 4,124; BAY 14981; Bayer 22/190; Captec; Chlorthion; Dicaptan; Dicapthion; Dicapton; Dimethyl 2-chloronitrophenyl thiophosphate; ENT 17,035; Experimental Insecticide 4124; Insecticide ACC 4124; Isochloorthion; Isochloorthion [Dutch]; Isochlorothion; Isochlorthion; Isomeric chlorthion; Isomeric clorthio; O,O-Dimethyl O-(2-chloro-4-nitrophenyl)phosphorothioate; O,O-Dimethyl O-2-chloro-4-nitrophenyl phosphorothioate; O,O-Dimethyl-O-(2-chloro-4-nitrophenyl)thionophosphate; O-(2-Chloro-4-nitrophenyl) O,O-dimethyl phosphorothioate; O-(2-Chloro-4-nitrophenyl) O,O-dimethylphosphorothioate; O-(2-Chloor-4-nitro-fenyl)-O,O-dimethylmonothiofosfaat [Dutch]; O-(2-Chlor-4-nitro-phenyl)-O,O-dimethyl-monothiophosphat [German]; O-(2-Cloro-4-nitro-fenil)-O,O-dimetil-monotiofosfato [Italian]; OMS-214; Phenol, 2-chloro-4-nitro-, O-ester with O,O-dimethyl phosphorothioate; Phosnichlor; Phosnichlor [ISO]; Phosphorothioic acid O-(2-chloro-4-nitrophenyl) O,O-dimethyl ester; Thiophosphate de O,O-dimethyle et de O-2-chloro-4-nitrophenyle [French]; p-Nitro-o-chlorophenyl dimethyl thionophosphate; [ChemIDplus]",
        "links": [],
        "cross_references": [
          {
            "type": "name_match",
            "text": "phenol",
            "confidence": 1.0,
            "uuid": "03141a03-a7df-4f51-9a37-adde1a7c4b31",
            "name": "Phenol",
            "url": "https://haz-map.com/Agents/84",
            "category": "agents"
          },
          {
            "type": "name_match",
            "text": "captan",
            "confidence": 1.0,
            "uuid": "19bf918c-9caa-4481-999a-002bb3395f5a",
            "name": "Captan",
            "url": "https://haz-map.com/Agents/341",
            "category": "agents"
          },
          {
            "type": "name_match",
            "text": "tali",
            "confidence": 1.0,
            "uuid": "8c3a0f99-2143-4122-b539-ec5cc49596b0",
            "name": "Tali",
            "url": "https://haz-map.com/Agents/1128",
            "category": "agents"
          },
          {
            "type": "name_match",
            "text": "chlorothion",
            "confidence": 1.0,
            "uuid": "6adf265f-4f3e-437f-8015-c5e63dc8823e",
            "name": "Chlorothion",
            "url": "https://haz-map.com/Agents/4365",
            "category": "agents"
          }
        ]
      },
      "category": {
        "original_name": "Category",
        "value": "Organophosphate Insecticides",
        "links": [],
        "cross_references": []
      },
      "description": {
        "original_name": "Description",
        "value": "White solid; [Hawley]",
        "links": [],
        "cross_references": []
      },
      "sourcesuses": {
        "original_name": "Sources/Uses",
        "value": "Used as insecticide and acaricide for agricultural, household, and public health pest control; Also used for tick control in domestic animals; [HSDB]",
        "links": [],
        "cross_references": []
      },
      "comments": {
        "original_name": "Comments",
        "value": "A cholinesterase inhibitor; [Hawley] The only adverse effect noted in one year feeding study with rats (250 ppm highest dose group) was retarded growth; [HSDB] “The average of two baseline respective cholinesterase activity determinations three days apart, with no exposures to enzyme inhibiting pesticides for at least 30 days, is recommended for each worker prior to exposure to cholinesterase inhibitors because of large inter-individual differences in published baseline values. To be established at least once a year. Removal from workplace exposures is recommended until the cholinesterase activity returns to within 20% of baseline.” [TLVs and BEIs]",
        "links": [],
        "cross_references": [
          {
            "type": "name_match",
            "text": "choline",
            "confidence": 1.0,
            "uuid": "a21a71e9-9d67-4563-9da2-98c4dcb1b766",
            "name": "Choline",
            "url": "https://haz-map.com/Agents/12978",
            "category": "agents"
          }
        ]
      },
      "restricted": {
        "original_name": "Restricted",
        "value": "Cancelled--no longer registered as a pesticide for use in the US; [HSDB]",
        "links": [],
        "cross_references": []
      },
      "biomedical_references": {
        "original_name": "Biomedical References",
        "value": "Search PubMed",
        "links": [
          {
            "text": "Search PubMed",
            "url": "https://www.ncbi.nlm.nih.gov/pubmed?term=Dicapthon%20AND%20human%5Bmh%5D%20AND%20%28Occupational%20Diseases%20%5Bmh%5D%20OR%20Occupational%20Exposure%20%5Bmh%5D%29%20%20AND%20%28tox%5Bsb%5D%29&cmd=search"
          }
        ],
        "cross_references": []
      }
    },
    "exposure_assessment": {
      "bei": {
        "original_name": "BEI",
        "value": "Acetylcholinesterase activity in red blood cells = 70% of individual's baseline; Butylcholinesterase activity in serum or plasma = 60% of individual's baseline; Sample at end of shift; [TLVs and BEIs]",
        "links": [],
        "cross_references": [
          {
            "type": "name_match",
            "text": "choline",
            "confidence": 1.0,
            "uuid": "a21a71e9-9d67-4563-9da2-98c4dcb1b766",
            "name": "Choline",
            "url": "https://haz-map.com/Agents/12978",
            "category": "agents"
          }
        ]
      },
      "vapor_pressure": {
        "original_name": "Vapor Pressure",
        "value": "3.6E-06 mm Hg",
        "links": [],
        "cross_references": []
      }
    },
    "adverse_effects": {
      "other_poison": {
        "original_name": "Other Poison",
        "value": "Organophosphate",
        "links": [],
        "cross_references": []
      }
    },
    "diseases_processes_and_activities_linked_to_this_agent": {
      "diseases": {
        "original_name": "Diseases",
        "value": "Occupational diseases associated with exposure to this agent: Organophosphates & carbamates, acute poisoning",
        "links": [
          {
            "text": "Organophosphates & carbamates, acute poisoning",
            "url": "https://haz-map.com/Diseases/66"
          }
        ],
        "cross_references": [
          {
            "type": "url_match",
            "text": "Organophosphates & carbamates, acute poisoning",
            "url": "https://haz-map.com/Diseases/66",
            "confidence": 1.0,
            "uuid": "aea2cba9-fb36-463f-84d8-b819551bb327",
            "name": "Organophosphates & carbamates, acute poisoning",
            "category": "diseases"
          },
          {
            "type": "name_match",
            "text": "organophosphates",
            "confidence": 1.0,
            "uuid": "8d2d239c-20f9-4f02-9916-5e7667b9990c",
            "name": "ORGANOPHOSPHATES",
            "url": "https://haz-map.com/Agents/702",
            "category": "agents"
          }
        ]
      },
      "processes": {
        "original_name": "Processes",
        "value": "Industrial Processes with risk of exposure: Farming (Pesticides)",
        "links": [
          {
            "text": "Farming (Pesticides)",
            "url": "https://haz-map.com/Processes/218"
          }
        ],
        "cross_references": [
          {
            "type": "url_match",
            "text": "Farming (Pesticides)",
            "url": "https://haz-map.com/Processes/218",
            "confidence": 1.0,
            "uuid": "cf1e5815-c9bb-4917-82a5-391848170b7e",
            "name": "Farming (Pesticides)",
            "category": "processes"
          }
        ]
      }
    }
  },
  "cross_references": [
    {
      "type": "url_match",
      "text": "Organophosphates & carbamates, acute poisoning",
      "url": "https://haz-map.com/Diseases/66",
      "confidence": 1.0,
      "uuid": "aea2cba9-fb36-463f-84d8-b819551bb327",
      "name": "Organophosphates & carbamates, acute poisoning",
      "category": "diseases"
    },
    {
      "type": "url_match",
      "text": "Farming (Pesticides)",
      "url": "https://haz-map.com/Processes/218",
      "confidence": 1.0,
      "uuid": "cf1e5815-c9bb-4917-82a5-391848170b7e",
      "name": "Farming (Pesticides)",
      "category": "processes"
    },
    {
      "type": "name_match",
      "text": "phenol",
      "confidence": 1.0,
      "uuid": "03141a03-a7df-4f51-9a37-adde1a7c4b31",
      "name": "Phenol",
      "url": "https://haz-map.com/Agents/84",
      "category": "agents"
    },
    {
      "type": "name_match",
      "text": "captan",
      "confidence": 1.0,
      "uuid": "19bf918c-9caa-4481-999a-002bb3395f5a",
      "name": "Captan",
      "url": "https://haz-map.com/Agents/341",
      "category": "agents"
    },
    {
      "type": "name_match",
      "text": "organophosphates",
      "confidence": 1.0,
      "uuid": "8d2d239c-20f9-4f02-9916-5e7667b9990c",
      "name": "ORGANOPHOSPHATES",
      "url": "https://haz-map.com/Agents/702",
      "category": "agents"
    },
    {
      "type": "name_match",
      "text": "tali",
      "confidence": 1.0,
      "uuid": "8c3a0f99-2143-4122-b539-ec5cc49596b0",
      "name": "Tali",
      "url": "https://haz-map.com/Agents/1128",
      "category": "agents"
    },
    {
      "type": "name_match",
      "text": "chlorothion",
      "confidence": 1.0,
      "uuid": "6adf265f-4f3e-437f-8015-c5e63dc8823e",
      "name": "Chlorothion",
      "url": "https://haz-map.com/Agents/4365",
      "category": "agents"
    },
    {
      "type": "name_match",
      "text": "dicapthon",
      "confidence": 1.0,
      "uuid": "b13f6d37-aeab-426c-9c4b-ee611e73ba5c",
      "name": "Dicapthon",
      "url": "https://haz-map.com/Agents/4758",
      "category": "agents"
    },
    {
      "type": "name_match",
      "text": "choline",
      "confidence": 1.0,
      "uuid": "a21a71e9-9d67-4563-9da2-98c4dcb1b766",
      "name": "Choline",
      "url": "https://haz-map.com/Agents/12978",
      "category": "agents"
    }
  ],
  "all_links": [
    {
      "text": "Search PubMed",
      "url": "https://www.ncbi.nlm.nih.gov/pubmed?term=Dicapthon%20AND%20human%5Bmh%5D%20AND%20%28Occupational%20Diseases%20%5Bmh%5D%20OR%20Occupational%20Exposure%20%5Bmh%5D%29%20%20AND%20%28tox%5Bsb%5D%29&cmd=search"
    },
    {
      "text": "Organophosphates & carbamates, acute poisoning",
      "url": "https://haz-map.com/Diseases/66"
    },
    {
      "text": "Farming (Pesticides)",
      "url": "https://haz-map.com/Processes/218"
    }
  ]
}