{
  "metadata": {
    "scraped_from": "https://haz-map.com/Agents/18622",
    "entity_name": "Vanillin",
    "category": "agents",
    "uuid": "b18209ef-a08d-4dca-8b00-7907c33bb340",
    "scraped_at": "2025-07-23T21:56:48.755181"
  },
  "parsed_at": "2025-07-24T01:03:16.019371",
  "title": "Vanillin",
  "sections": {
    "general": {
      "agent_name": {
        "original_name": "Agent Name",
        "value": "Vanillin",
        "links": [],
        "cross_references": [
          {
            "type": "name_match",
            "text": "vanillin",
            "confidence": 1.0,
            "uuid": "b18209ef-a08d-4dca-8b00-7907c33bb340",
            "name": "Vanillin",
            "url": "https://haz-map.com/Agents/18622",
            "category": "agents"
          }
        ]
      },
      "cas_number": {
        "original_name": "CAS Number",
        "value": "121-33-5",
        "links": [],
        "cross_references": []
      },
      "formula": {
        "original_name": "Formula",
        "value": "C8-H8-O3",
        "links": [],
        "cross_references": []
      },
      "major_category": {
        "original_name": "Major Category",
        "value": "Biological Agents",
        "links": [],
        "cross_references": []
      },
      "synonyms": {
        "original_name": "Synonyms",
        "value": "2-Methoxy-4-formylphenol; 3-Methoxy-4-hydroxybenzaldehyde; 4-Formyl-2-methoxyphenol; 4-Hydroxy-3-methoxybenzaldehyde; 4-Hydroxy-5-methoxybenzaldehyde; 4-Hydroxy-m-anisaldehyde; Benzaldehyde, 4-hydroxy-3-methoxy-; Lioxin; Methylprotocatechuic aldehyde; Protocatechualdehyde 3-methyl ether; Protocatechualdehyde, methyl-; Vanilla; Vanillaldehyde; Vanillic aldehyde; Vanillin (natural); Vanilline; Zimco; m-Anisaldehyde, 4-hydroxy-; p-Hydroxy-m-methoxybenzaldehyde; p-Vanillin; [ChemIDplus] Rhonavil Extra Pure; [Merck Index] m-Methoxy-p-hydroxybenzaldehyde; [CAMEO] 3-Methoxy-4-hydroksy-benzaldehyd; 4-Hydroxy-3-methoxybenzaldehyd; Hydroxy-4-methoxy-3-benzaldehyde; para-Vanillin; Vanilla aldehyde; Vanillin ex lignin; [IUCLID]",
        "links": [],
        "cross_references": [
          {
            "type": "name_match",
            "text": "phenol",
            "confidence": 1.0,
            "uuid": "03141a03-a7df-4f51-9a37-adde1a7c4b31",
            "name": "Phenol",
            "url": "https://haz-map.com/Agents/84",
            "category": "agents"
          },
          {
            "type": "name_match",
            "text": "ethyl ether",
            "confidence": 1.0,
            "uuid": "c95edddc-9ad3-44f8-bafa-78e0bd19db3a",
            "name": "Ethyl ether",
            "url": "https://haz-map.com/Agents/455",
            "category": "agents"
          },
          {
            "type": "name_match",
            "text": "benzaldehyde",
            "confidence": 1.0,
            "uuid": "8546358a-fcfc-48f8-83d6-bf7adb438729",
            "name": "Benzaldehyde",
            "url": "https://haz-map.com/Agents/1884",
            "category": "agents"
          },
          {
            "type": "name_match",
            "text": "p-hydroxybenzaldehyde",
            "confidence": 1.0,
            "uuid": "db8de30a-fedb-43bf-a7ec-0a37f8c7effd",
            "name": "p-Hydroxybenzaldehyde",
            "url": "https://haz-map.com/Agents/9696",
            "category": "agents"
          },
          {
            "type": "name_match",
            "text": "protocatechualdehyde",
            "confidence": 1.0,
            "uuid": "9e8d6f0c-4921-41c8-a462-106988a92abc",
            "name": "Protocatechualdehyde",
            "url": "https://haz-map.com/Agents/10997",
            "category": "agents"
          },
          {
            "type": "name_match",
            "text": "vanillin",
            "confidence": 1.0,
            "uuid": "b18209ef-a08d-4dca-8b00-7907c33bb340",
            "name": "Vanillin",
            "url": "https://haz-map.com/Agents/18622",
            "category": "agents"
          }
        ]
      },
      "category": {
        "original_name": "Category",
        "value": "Plant Oils and Extracts",
        "links": [],
        "cross_references": []
      },
      "description": {
        "original_name": "Description",
        "value": "White or off-white solid with a pleasant odor of vanilla; [Merck Index] Light yellow solid; [Sigma-Aldrich MSDS]",
        "links": [],
        "cross_references": [
          {
            "type": "name_match",
            "text": "ht",
            "confidence": 1.0,
            "uuid": "764df367-8d53-4a11-81a2-31ccfe122a8d",
            "name": "HT",
            "url": "https://haz-map.com/Agents/2168",
            "category": "agents"
          }
        ]
      },
      "sourcesuses": {
        "original_name": "Sources/Uses",
        "value": "Found in foods and plants; Used as a flavoring agent and fragrance; [Merck Index] Used as a chemical intermediate, fuel additive, odor agent, and anti-UV agent; [IUCLID] In the group of essential oils with active product registrations in the US for uses as insect feeding depressants, insecticides, and repellants; Used to control clothes moths and fleas; [EPA REDs] Used in attractants for the control of flies, roaches, and crickets; [HSDB]",
        "links": [],
        "cross_references": [
          {
            "type": "name_match",
            "text": "mica",
            "confidence": 1.0,
            "uuid": "433f26f1-c399-4596-b179-ce3843cfd465",
            "name": "Mica",
            "url": "https://haz-map.com/Agents/621",
            "category": "agents"
          },
          {
            "type": "name_match",
            "text": "cricket",
            "confidence": 1.0,
            "uuid": "398c44c6-50d1-455b-9ccf-76dadd0888d5",
            "name": "Cricket",
            "url": "https://haz-map.com/Agents/905",
            "category": "agents"
          },
          {
            "type": "name_match",
            "text": "moth",
            "confidence": 1.0,
            "uuid": "14a33a40-8ea5-4ef5-b71a-3731a9d4ba32",
            "name": "Moth",
            "url": "https://haz-map.com/Agents/907",
            "category": "agents"
          }
        ]
      },
      "comments": {
        "original_name": "Comments",
        "value": "The pure substance and concentrations up to 20% caused no skin irritation in closed patch test studies; No skin sensitization observed in patch tests of 25 volunteers at 2% and 5% in petrolatum; Occupational exposure to vanilla pods commonly produces \"vanillism,\" with symptoms including skin reactions (papular itching eruptions of the hands, face, and eyelids), headache, gastritis, vertigo, and occasionally asthma; Calcium oxalate crystals in the sap and mites may contribute to the skin reactions; [IUCLID] Three studies of volunteers and workers showed no signs of skin sensitization; Reports of positive sensitization reactions in patients sensitized to Balsam of Peru; [Reference #1] Safe when used as a flavoring agent in food; [JECFA] Included in list of \"established contact allergens in humans\"; [EC: Scientific Committee on Consumer Safety: Fragrance allergens in cosmetic products (2011)] A skin and strong eye irritant; May cause skin sensitization; Harmful by ingestion and skin absorption; [Sigma-Aldrich MSDS] See \"Vanillic acid.\"",
        "links": [],
        "cross_references": [
          {
            "type": "name_match",
            "text": "headache",
            "confidence": 1.0,
            "uuid": "a474a38d-66ac-44da-92de-de1c781a30e7",
            "name": "headache",
            "url": "https://haz-map.com/Findings/17",
            "category": "findings"
          },
          {
            "type": "name_match",
            "text": "balsam of peru",
            "confidence": 1.0,
            "uuid": "a5723dc4-4d7d-444b-98d4-95cb876ad269",
            "name": "Balsam of Peru",
            "url": "https://haz-map.com/Agents/991",
            "category": "agents"
          },
          {
            "type": "name_match",
            "text": "calcium",
            "confidence": 1.0,
            "uuid": "1e5baf77-7a7a-476b-84c6-5b1ea504c5fc",
            "name": "Calcium",
            "url": "https://haz-map.com/Agents/1994",
            "category": "agents"
          },
          {
            "type": "name_match",
            "text": "petrolatum",
            "confidence": 1.0,
            "uuid": "3aa16d92-e402-405d-86f0-246be9009b2b",
            "name": "Petrolatum",
            "url": "https://haz-map.com/Agents/6605",
            "category": "agents"
          },
          {
            "type": "name_match",
            "text": "calcium oxalate",
            "confidence": 1.0,
            "uuid": "9088d44b-0211-4fee-93dd-c036ad576834",
            "name": "Calcium oxalate",
            "url": "https://haz-map.com/Agents/12696",
            "category": "agents"
          },
          {
            "type": "name_match",
            "text": "vanillic acid",
            "confidence": 1.0,
            "uuid": "5d78c8d8-b0e7-475c-9771-af9fa8c6e14e",
            "name": "Vanillic acid",
            "url": "https://haz-map.com/Agents/18621",
            "category": "agents"
          }
        ]
      },
      "reference_link_1": {
        "original_name": "Reference Link #1",
        "value": "OECD SIDS: Vanillin",
        "links": [
          {
            "text": "OECD SIDS: Vanillin",
            "url": "http://www.inchem.org/documents/sids/sids/121335.pdf"
          }
        ],
        "cross_references": [
          {
            "type": "name_match",
            "text": "vanillin",
            "confidence": 1.0,
            "uuid": "b18209ef-a08d-4dca-8b00-7907c33bb340",
            "name": "Vanillin",
            "url": "https://haz-map.com/Agents/18622",
            "category": "agents"
          }
        ]
      },
      "biomedical_references": {
        "original_name": "Biomedical References",
        "value": "Search PubMed",
        "links": [
          {
            "text": "Search PubMed",
            "url": "https://www.ncbi.nlm.nih.gov/pubmed?term=Vanillin%20AND%20human%5Bmh%5D%20AND%20%28Occupational%20Diseases%20%5Bmh%5D%20OR%20Occupational%20Exposure%20%5Bmh%5D%29%20%20AND%20%28tox%5Bsb%5D%29&cmd=search"
          }
        ],
        "cross_references": []
      }
    },
    "exposure_assessment": {
      "vapor_pressure": {
        "original_name": "Vapor Pressure",
        "value": "0.000118 mm Hg",
        "links": [],
        "cross_references": []
      },
      "lethal_concentration": {
        "original_name": "Lethal Concentration",
        "value": "LC (rat) > 41.7 mg/m3/4hr",
        "links": [],
        "cross_references": []
      },
      "weel": {
        "original_name": "WEEL",
        "value": "10 mg/m3",
        "links": [],
        "cross_references": []
      }
    },
    "adverse_effects": {
      "skin_sensitizer": {
        "original_name": "Skin Sensitizer",
        "value": "Yes",
        "links": [],
        "cross_references": []
      }
    },
    "diseases_processes_and_activities_linked_to_this_agent": {
      "diseases": {
        "original_name": "Diseases",
        "value": "Occupational diseases associated with exposure to this agent: Contact dermatitis, allergic",
        "links": [
          {
            "text": "Contact dermatitis, allergic",
            "url": "https://haz-map.com/Diseases/18"
          }
        ],
        "cross_references": [
          {
            "type": "url_match",
            "text": "Contact dermatitis, allergic",
            "url": "https://haz-map.com/Diseases/18",
            "confidence": 1.0,
            "uuid": "c9499de0-9aa1-41bf-8753-cd5b28a63e29",
            "name": "Contact dermatitis, allergic",
            "category": "diseases"
          },
          {
            "type": "name_match",
            "text": "dermatitis",
            "confidence": 1.0,
            "uuid": "fe9c05f2-b19f-4ceb-ac7a-ffb7d7a0cae0",
            "name": "dermatitis",
            "url": "https://haz-map.com/Findings/59",
            "category": "findings"
          }
        ]
      },
      "processes": {
        "original_name": "Processes",
        "value": "Industrial Processes with risk of exposure: Farming (Pesticides)",
        "links": [
          {
            "text": "Farming (Pesticides)",
            "url": "https://haz-map.com/Processes/218"
          }
        ],
        "cross_references": [
          {
            "type": "url_match",
            "text": "Farming (Pesticides)",
            "url": "https://haz-map.com/Processes/218",
            "confidence": 1.0,
            "uuid": "cf1e5815-c9bb-4917-82a5-391848170b7e",
            "name": "Farming (Pesticides)",
            "category": "processes"
          }
        ]
      }
    }
  },
  "cross_references": [
    {
      "type": "url_match",
      "text": "Contact dermatitis, allergic",
      "url": "https://haz-map.com/Diseases/18",
      "confidence": 1.0,
      "uuid": "c9499de0-9aa1-41bf-8753-cd5b28a63e29",
      "name": "Contact dermatitis, allergic",
      "category": "diseases"
    },
    {
      "type": "url_match",
      "text": "Farming (Pesticides)",
      "url": "https://haz-map.com/Processes/218",
      "confidence": 1.0,
      "uuid": "cf1e5815-c9bb-4917-82a5-391848170b7e",
      "name": "Farming (Pesticides)",
      "category": "processes"
    },
    {
      "type": "name_match",
      "text": "headache",
      "confidence": 1.0,
      "uuid": "a474a38d-66ac-44da-92de-de1c781a30e7",
      "name": "headache",
      "url": "https://haz-map.com/Findings/17",
      "category": "findings"
    },
    {
      "type": "name_match",
      "text": "dermatitis",
      "confidence": 1.0,
      "uuid": "fe9c05f2-b19f-4ceb-ac7a-ffb7d7a0cae0",
      "name": "dermatitis",
      "url": "https://haz-map.com/Findings/59",
      "category": "findings"
    },
    {
      "type": "name_match",
      "text": "phenol",
      "confidence": 1.0,
      "uuid": "03141a03-a7df-4f51-9a37-adde1a7c4b31",
      "name": "Phenol",
      "url": "https://haz-map.com/Agents/84",
      "category": "agents"
    },
    {
      "type": "name_match",
      "text": "ethyl ether",
      "confidence": 1.0,
      "uuid": "c95edddc-9ad3-44f8-bafa-78e0bd19db3a",
      "name": "Ethyl ether",
      "url": "https://haz-map.com/Agents/455",
      "category": "agents"
    },
    {
      "type": "name_match",
      "text": "mica",
      "confidence": 1.0,
      "uuid": "433f26f1-c399-4596-b179-ce3843cfd465",
      "name": "Mica",
      "url": "https://haz-map.com/Agents/621",
      "category": "agents"
    },
    {
      "type": "name_match",
      "text": "cricket",
      "confidence": 1.0,
      "uuid": "398c44c6-50d1-455b-9ccf-76dadd0888d5",
      "name": "Cricket",
      "url": "https://haz-map.com/Agents/905",
      "category": "agents"
    },
    {
      "type": "name_match",
      "text": "moth",
      "confidence": 1.0,
      "uuid": "14a33a40-8ea5-4ef5-b71a-3731a9d4ba32",
      "name": "Moth",
      "url": "https://haz-map.com/Agents/907",
      "category": "agents"
    },
    {
      "type": "name_match",
      "text": "balsam of peru",
      "confidence": 1.0,
      "uuid": "a5723dc4-4d7d-444b-98d4-95cb876ad269",
      "name": "Balsam of Peru",
      "url": "https://haz-map.com/Agents/991",
      "category": "agents"
    },
    {
      "type": "name_match",
      "text": "benzaldehyde",
      "confidence": 1.0,
      "uuid": "8546358a-fcfc-48f8-83d6-bf7adb438729",
      "name": "Benzaldehyde",
      "url": "https://haz-map.com/Agents/1884",
      "category": "agents"
    },
    {
      "type": "name_match",
      "text": "calcium",
      "confidence": 1.0,
      "uuid": "1e5baf77-7a7a-476b-84c6-5b1ea504c5fc",
      "name": "Calcium",
      "url": "https://haz-map.com/Agents/1994",
      "category": "agents"
    },
    {
      "type": "name_match",
      "text": "ht",
      "confidence": 1.0,
      "uuid": "764df367-8d53-4a11-81a2-31ccfe122a8d",
      "name": "HT",
      "url": "https://haz-map.com/Agents/2168",
      "category": "agents"
    },
    {
      "type": "name_match",
      "text": "petrolatum",
      "confidence": 1.0,
      "uuid": "3aa16d92-e402-405d-86f0-246be9009b2b",
      "name": "Petrolatum",
      "url": "https://haz-map.com/Agents/6605",
      "category": "agents"
    },
    {
      "type": "name_match",
      "text": "p-hydroxybenzaldehyde",
      "confidence": 1.0,
      "uuid": "db8de30a-fedb-43bf-a7ec-0a37f8c7effd",
      "name": "p-Hydroxybenzaldehyde",
      "url": "https://haz-map.com/Agents/9696",
      "category": "agents"
    },
    {
      "type": "name_match",
      "text": "protocatechualdehyde",
      "confidence": 1.0,
      "uuid": "9e8d6f0c-4921-41c8-a462-106988a92abc",
      "name": "Protocatechualdehyde",
      "url": "https://haz-map.com/Agents/10997",
      "category": "agents"
    },
    {
      "type": "name_match",
      "text": "calcium oxalate",
      "confidence": 1.0,
      "uuid": "9088d44b-0211-4fee-93dd-c036ad576834",
      "name": "Calcium oxalate",
      "url": "https://haz-map.com/Agents/12696",
      "category": "agents"
    },
    {
      "type": "name_match",
      "text": "vanillic acid",
      "confidence": 1.0,
      "uuid": "5d78c8d8-b0e7-475c-9771-af9fa8c6e14e",
      "name": "Vanillic acid",
      "url": "https://haz-map.com/Agents/18621",
      "category": "agents"
    },
    {
      "type": "name_match",
      "text": "vanillin",
      "confidence": 1.0,
      "uuid": "b18209ef-a08d-4dca-8b00-7907c33bb340",
      "name": "Vanillin",
      "url": "https://haz-map.com/Agents/18622",
      "category": "agents"
    }
  ],
  "all_links": [
    {
      "text": "OECD SIDS: Vanillin",
      "url": "http://www.inchem.org/documents/sids/sids/121335.pdf"
    },
    {
      "text": "Search PubMed",
      "url": "https://www.ncbi.nlm.nih.gov/pubmed?term=Vanillin%20AND%20human%5Bmh%5D%20AND%20%28Occupational%20Diseases%20%5Bmh%5D%20OR%20Occupational%20Exposure%20%5Bmh%5D%29%20%20AND%20%28tox%5Bsb%5D%29&cmd=search"
    },
    {
      "text": "Contact dermatitis, allergic",
      "url": "https://haz-map.com/Diseases/18"
    },
    {
      "text": "Farming (Pesticides)",
      "url": "https://haz-map.com/Processes/218"
    }
  ]
}