{
  "metadata": {
    "scraped_from": "https://haz-map.com/Agents/582",
    "entity_name": "Oxalic acid, anhydrous",
    "category": "agents",
    "uuid": "b2486bc3-f736-4f11-8ef7-dc721527e202",
    "scraped_at": "2025-07-23T18:44:51.948504"
  },
  "parsed_at": "2025-07-24T00:51:10.907861",
  "title": "Oxalic acid, anhydrous",
  "sections": {
    "general": {
      "agent_name": {
        "original_name": "Agent Name",
        "value": "Oxalic acid, anhydrous",
        "links": [],
        "cross_references": [
          {
            "type": "name_match",
            "text": "oxalic acid, anhydrous",
            "confidence": 1.0,
            "uuid": "b2486bc3-f736-4f11-8ef7-dc721527e202",
            "name": "Oxalic acid, anhydrous",
            "url": "https://haz-map.com/Agents/582",
            "category": "agents"
          }
        ]
      },
      "cas_number": {
        "original_name": "CAS Number",
        "value": "144-62-7",
        "links": [],
        "cross_references": []
      },
      "formula": {
        "original_name": "Formula",
        "value": "C2-H2-O4",
        "links": [],
        "cross_references": []
      },
      "major_category": {
        "original_name": "Major Category",
        "value": "Other Classes",
        "links": [],
        "cross_references": []
      },
      "synonyms": {
        "original_name": "Synonyms",
        "value": "Acide oxalique [French]; Acido ossalico [Italian]; Acidum oxalicum; Aktisal; Aquisal; Ethanedioic acid; Kyselina stavelova [Czech]; Oxaalzuur [Dutch]; Oxalate; Oxalic acid; Oxalsaeure [German]; Oxiric acid; [ChemIDplus] Dicarboxylic acid; [ACGIH]",
        "links": [],
        "cross_references": [
          {
            "type": "name_match",
            "text": "ethane",
            "confidence": 1.0,
            "uuid": "5162cc8c-dfb9-4060-81ac-38a8cec7f9dd",
            "name": "Ethane",
            "url": "https://haz-map.com/Agents/1075",
            "category": "agents"
          },
          {
            "type": "name_match",
            "text": "tali",
            "confidence": 1.0,
            "uuid": "8c3a0f99-2143-4122-b539-ec5cc49596b0",
            "name": "Tali",
            "url": "https://haz-map.com/Agents/1128",
            "category": "agents"
          }
        ]
      },
      "category": {
        "original_name": "Category",
        "value": "Organic Acids",
        "links": [],
        "cross_references": []
      },
      "description": {
        "original_name": "Description",
        "value": "Colorless, odorless powder or granular solid. [Note: The anhydrous form (COOH)2 is an odorless, white solid.]; [NIOSH]",
        "links": [],
        "cross_references": []
      },
      "sourcesuses": {
        "original_name": "Sources/Uses",
        "value": "Used in metal cleaning, chemical synthesis, dye and rubber manufacturing, and textile stripping/finishing; Also used as a disinfectant (swimming pool and drainage system) and bathroom sanitizer; [ACGIH] Several species of plants contain soluble and insoluble oxalate salts. [Olson, p. 360] Used in photography (toner and platinum printing); Also used as a mordant in textile dyeing; [www.ci.tucson.az.us/arthazards/medium.html]",
        "links": [],
        "cross_references": [
          {
            "type": "name_match",
            "text": "mica",
            "confidence": 1.0,
            "uuid": "433f26f1-c399-4596-b179-ce3843cfd465",
            "name": "Mica",
            "url": "https://haz-map.com/Agents/621",
            "category": "agents"
          },
          {
            "type": "name_match",
            "text": "ht",
            "confidence": 1.0,
            "uuid": "764df367-8d53-4a11-81a2-31ccfe122a8d",
            "name": "HT",
            "url": "https://haz-map.com/Agents/2168",
            "category": "agents"
          },
          {
            "type": "name_match",
            "text": "platinum",
            "confidence": 1.0,
            "uuid": "a9c8bc5c-a870-4bdd-a2d3-f2a10df75ddf",
            "name": "Platinum",
            "url": "https://haz-map.com/Agents/6734",
            "category": "agents"
          }
        ]
      },
      "comments": {
        "original_name": "Comments",
        "value": "Liquid causes second or third degree burns after short contact. [CHRIS] TLV Basis is irritation (eye, skin and upper respiratory tract); [ACGIH] Solutions range from irritating to corrosive. Inhalation of high concentrations may induce chemical pneumonitis. Ingestion of oxalic acid or soluble oxalate compounds causes acute hypocalcemia and deposition of calcium oxalate crystals in the brain, heart, kidney, and other organs. In plant poisoning cases, ingestion of insoluble oxalate compounds causes irritation and swelling of the mouth, throat, and esophagus. [Olson, p. 360-1] A corrosive substance that can cause pulmonary edema after inhalation of aerosol; [ICSC] May cause kidney damage, hypocalcemia, and hepatic necrosis in severe poisoning cases following ingestion; [HSDB]",
        "links": [],
        "cross_references": [
          {
            "type": "name_match",
            "text": "pulmonary edema",
            "confidence": 1.0,
            "uuid": "ee39114e-c922-40fd-9588-a532de404962",
            "name": "pulmonary edema",
            "url": "https://haz-map.com/Findings/186",
            "category": "findings"
          },
          {
            "type": "name_match",
            "text": "burn",
            "confidence": 1.0,
            "uuid": "63665de5-6376-4918-8dbf-4c10c4d63837",
            "name": "burn",
            "url": "https://haz-map.com/Findings/204",
            "category": "findings"
          },
          {
            "type": "name_match",
            "text": "mica",
            "confidence": 1.0,
            "uuid": "433f26f1-c399-4596-b179-ce3843cfd465",
            "name": "Mica",
            "url": "https://haz-map.com/Agents/621",
            "category": "agents"
          },
          {
            "type": "name_match",
            "text": "calcium",
            "confidence": 1.0,
            "uuid": "1e5baf77-7a7a-476b-84c6-5b1ea504c5fc",
            "name": "Calcium",
            "url": "https://haz-map.com/Agents/1994",
            "category": "agents"
          },
          {
            "type": "name_match",
            "text": "calcium oxalate",
            "confidence": 1.0,
            "uuid": "9088d44b-0211-4fee-93dd-c036ad576834",
            "name": "Calcium oxalate",
            "url": "https://haz-map.com/Agents/12696",
            "category": "agents"
          }
        ]
      },
      "reference_link_1": {
        "original_name": "Reference Link #1",
        "value": "EPA Pesticide Chemical Search",
        "links": [
          {
            "text": "EPA Pesticide Chemical Search",
            "url": "https://iaspub.epa.gov/apex/pesticides/f?p=CHEMICALSEARCH:1:"
          }
        ],
        "cross_references": [
          {
            "type": "name_match",
            "text": "mica",
            "confidence": 1.0,
            "uuid": "433f26f1-c399-4596-b179-ce3843cfd465",
            "name": "Mica",
            "url": "https://haz-map.com/Agents/621",
            "category": "agents"
          }
        ]
      },
      "biomedical_references": {
        "original_name": "Biomedical References",
        "value": "Search PubMed",
        "links": [
          {
            "text": "Search PubMed",
            "url": "https://www.ncbi.nlm.nih.gov/pubmed?term=Oxalic+acid%2c+anhydrous%20AND%20human%5Bmh%5D%20AND%20%28Occupational%20Diseases%20%5Bmh%5D%20OR%20Occupational%20Exposure%20%5Bmh%5D%29%20%20AND%20%28tox%5Bsb%5D%29&cmd=search"
          }
        ],
        "cross_references": []
      }
    },
    "exposure_assessment": {
      "skin_designation_acgih": {
        "original_name": "Skin Designation (ACGIH)",
        "value": "Insufficient data",
        "links": [],
        "cross_references": []
      },
      "tlv_acgih": {
        "original_name": "TLV (ACGIH)",
        "value": "1 mg/m3",
        "links": [],
        "cross_references": []
      },
      "stel_acgih": {
        "original_name": "STEL (ACGIH)",
        "value": "2 mg/m3",
        "links": [],
        "cross_references": []
      },
      "pel_osha": {
        "original_name": "PEL (OSHA)",
        "value": "1 mg/m3",
        "links": [],
        "cross_references": []
      },
      "idlh_niosh": {
        "original_name": "IDLH (NIOSH)",
        "value": "500 mg/m3",
        "links": [],
        "cross_references": []
      },
      "excerpts_from_documentation_for_idlhs": {
        "original_name": "Excerpts from Documentation for IDLHs",
        "value": "Human data: It has been reported that the lethal oral dose is 15 to 30 grams [Webster 1930]. [Note: An oral dose of 15 to 30 grams is equivalent to a 30­minute exposure to 10,000 to 20,000 mg/m3 assuming a 50 liter per minute breathing rate and 100% absorption.]",
        "links": [],
        "cross_references": []
      },
      "vapor_pressure": {
        "original_name": "Vapor Pressure",
        "value": "0.000234 mm Hg",
        "links": [],
        "cross_references": []
      },
      "explanatory_notes": {
        "original_name": "Explanatory Notes",
        "value": "VP = 0.54 mm Hg @ 105 deg C; [HSDB]",
        "links": [],
        "cross_references": []
      },
      "nfpa": {
        "original_name": "NFPA",
        "value": "must be preheated",
        "links": [],
        "cross_references": []
      }
    },
    "adverse_effects": {
      "toxic_pneumonitis": {
        "original_name": "Toxic Pneumonitis",
        "value": "Yes",
        "links": [],
        "cross_references": []
      },
      "hepatotoxin": {
        "original_name": "Hepatotoxin",
        "value": "Hepatoxic (a) from occupational exposure (secondary effect) or (b) in animal studies or in humans after ingestion",
        "links": [],
        "cross_references": []
      },
      "dermatotoxin": {
        "original_name": "Dermatotoxin",
        "value": "Skin burns",
        "links": [],
        "cross_references": [
          {
            "type": "name_match",
            "text": "burn",
            "confidence": 1.0,
            "uuid": "63665de5-6376-4918-8dbf-4c10c4d63837",
            "name": "burn",
            "url": "https://haz-map.com/Findings/204",
            "category": "findings"
          }
        ]
      }
    },
    "diseases_processes_and_activities_linked_to_this_agent": {
      "processes": {
        "original_name": "Processes",
        "value": "Industrial Processes with risk of exposure: Photographic Processing Textiles (Printing, Dyeing, or Finishing) Using Disinfectants or Biocides",
        "links": [
          {
            "text": "Photographic Processing",
            "url": "https://haz-map.com/Processes/231"
          },
          {
            "text": "Textiles (Printing, Dyeing, or Finishing)",
            "url": "https://haz-map.com/Processes/235"
          },
          {
            "text": "Using Disinfectants or Biocides",
            "url": "https://haz-map.com/Processes/167"
          }
        ],
        "cross_references": [
          {
            "type": "url_match",
            "text": "Using Disinfectants or Biocides",
            "url": "https://haz-map.com/Processes/167",
            "confidence": 1.0,
            "uuid": "7accb745-ad60-4ef8-9039-8ac4febb8fd8",
            "name": "Using Disinfectants or Biocides",
            "category": "processes"
          }
        ]
      },
      "activities": {
        "original_name": "Activities",
        "value": "Activities with risk of exposure: Applying metallic patinas Textile arts",
        "links": [
          {
            "text": "Applying metallic patinas",
            "url": "https://haz-map.com/Activities/65"
          },
          {
            "text": "Textile arts",
            "url": "https://haz-map.com/Activities/17"
          }
        ],
        "cross_references": [
          {
            "type": "url_match",
            "text": "Textile arts",
            "url": "https://haz-map.com/Activities/17",
            "confidence": 1.0,
            "uuid": "7330a82c-3fe4-4da0-bce1-bbd84318aa25",
            "name": "Textile arts",
            "category": "activities"
          }
        ]
      }
    }
  },
  "cross_references": [
    {
      "type": "url_match",
      "text": "Using Disinfectants or Biocides",
      "url": "https://haz-map.com/Processes/167",
      "confidence": 1.0,
      "uuid": "7accb745-ad60-4ef8-9039-8ac4febb8fd8",
      "name": "Using Disinfectants or Biocides",
      "category": "processes"
    },
    {
      "type": "url_match",
      "text": "Textile arts",
      "url": "https://haz-map.com/Activities/17",
      "confidence": 1.0,
      "uuid": "7330a82c-3fe4-4da0-bce1-bbd84318aa25",
      "name": "Textile arts",
      "category": "activities"
    },
    {
      "type": "name_match",
      "text": "pulmonary edema",
      "confidence": 1.0,
      "uuid": "ee39114e-c922-40fd-9588-a532de404962",
      "name": "pulmonary edema",
      "url": "https://haz-map.com/Findings/186",
      "category": "findings"
    },
    {
      "type": "name_match",
      "text": "burn",
      "confidence": 1.0,
      "uuid": "63665de5-6376-4918-8dbf-4c10c4d63837",
      "name": "burn",
      "url": "https://haz-map.com/Findings/204",
      "category": "findings"
    },
    {
      "type": "name_match",
      "text": "oxalic acid, anhydrous",
      "confidence": 1.0,
      "uuid": "b2486bc3-f736-4f11-8ef7-dc721527e202",
      "name": "Oxalic acid, anhydrous",
      "url": "https://haz-map.com/Agents/582",
      "category": "agents"
    },
    {
      "type": "name_match",
      "text": "mica",
      "confidence": 1.0,
      "uuid": "433f26f1-c399-4596-b179-ce3843cfd465",
      "name": "Mica",
      "url": "https://haz-map.com/Agents/621",
      "category": "agents"
    },
    {
      "type": "name_match",
      "text": "ethane",
      "confidence": 1.0,
      "uuid": "5162cc8c-dfb9-4060-81ac-38a8cec7f9dd",
      "name": "Ethane",
      "url": "https://haz-map.com/Agents/1075",
      "category": "agents"
    },
    {
      "type": "name_match",
      "text": "tali",
      "confidence": 1.0,
      "uuid": "8c3a0f99-2143-4122-b539-ec5cc49596b0",
      "name": "Tali",
      "url": "https://haz-map.com/Agents/1128",
      "category": "agents"
    },
    {
      "type": "name_match",
      "text": "calcium",
      "confidence": 1.0,
      "uuid": "1e5baf77-7a7a-476b-84c6-5b1ea504c5fc",
      "name": "Calcium",
      "url": "https://haz-map.com/Agents/1994",
      "category": "agents"
    },
    {
      "type": "name_match",
      "text": "ht",
      "confidence": 1.0,
      "uuid": "764df367-8d53-4a11-81a2-31ccfe122a8d",
      "name": "HT",
      "url": "https://haz-map.com/Agents/2168",
      "category": "agents"
    },
    {
      "type": "name_match",
      "text": "platinum",
      "confidence": 1.0,
      "uuid": "a9c8bc5c-a870-4bdd-a2d3-f2a10df75ddf",
      "name": "Platinum",
      "url": "https://haz-map.com/Agents/6734",
      "category": "agents"
    },
    {
      "type": "name_match",
      "text": "calcium oxalate",
      "confidence": 1.0,
      "uuid": "9088d44b-0211-4fee-93dd-c036ad576834",
      "name": "Calcium oxalate",
      "url": "https://haz-map.com/Agents/12696",
      "category": "agents"
    }
  ],
  "all_links": [
    {
      "text": "EPA Pesticide Chemical Search",
      "url": "https://iaspub.epa.gov/apex/pesticides/f?p=CHEMICALSEARCH:1:"
    },
    {
      "text": "Search PubMed",
      "url": "https://www.ncbi.nlm.nih.gov/pubmed?term=Oxalic+acid%2c+anhydrous%20AND%20human%5Bmh%5D%20AND%20%28Occupational%20Diseases%20%5Bmh%5D%20OR%20Occupational%20Exposure%20%5Bmh%5D%29%20%20AND%20%28tox%5Bsb%5D%29&cmd=search"
    },
    {
      "text": "Photographic Processing",
      "url": "https://haz-map.com/Processes/231"
    },
    {
      "text": "Textiles (Printing, Dyeing, or Finishing)",
      "url": "https://haz-map.com/Processes/235"
    },
    {
      "text": "Using Disinfectants or Biocides",
      "url": "https://haz-map.com/Processes/167"
    },
    {
      "text": "Applying metallic patinas",
      "url": "https://haz-map.com/Activities/65"
    },
    {
      "text": "Textile arts",
      "url": "https://haz-map.com/Activities/17"
    }
  ]
}