{
  "metadata": {
    "scraped_from": "https://haz-map.com/Agents/8544",
    "entity_name": "Methyl laurate",
    "category": "agents",
    "uuid": "b2937d0d-8341-4026-aef0-0484f4640ef5",
    "scraped_at": "2025-07-23T20:28:37.520450"
  },
  "parsed_at": "2025-07-24T01:13:35.428392",
  "title": "Methyl laurate",
  "sections": {
    "general": {
      "agent_name": {
        "original_name": "Agent Name",
        "value": "Methyl laurate",
        "links": [],
        "cross_references": [
          {
            "type": "name_match",
            "text": "methyl laurate",
            "confidence": 1.0,
            "uuid": "b2937d0d-8341-4026-aef0-0484f4640ef5",
            "name": "Methyl laurate",
            "url": "https://haz-map.com/Agents/8544",
            "category": "agents"
          }
        ]
      },
      "alternative_name": {
        "original_name": "Alternative Name",
        "value": "Methyl dodecanoate",
        "links": [],
        "cross_references": []
      },
      "cas_number": {
        "original_name": "CAS Number",
        "value": "111-82-0",
        "links": [],
        "cross_references": []
      },
      "formula": {
        "original_name": "Formula",
        "value": "C13-H26-O2",
        "links": [],
        "cross_references": []
      },
      "major_category": {
        "original_name": "Major Category",
        "value": "Other Classes",
        "links": [],
        "cross_references": []
      },
      "synonyms": {
        "original_name": "Synonyms",
        "value": "Methyl dodecanoate; Dodecanoic acid, methyl ester; Lauric acid, methyl ester; Metholene 2296; Methyl dodecylate; Methyl laurinate; Methyl n-dodecanoate; Stepan C40; Uniphat A40; [ChemIDplus]",
        "links": [],
        "cross_references": [
          {
            "type": "name_match",
            "text": "lauric acid",
            "confidence": 1.0,
            "uuid": "43b506b3-9881-4099-9951-2172b5c36577",
            "name": "Lauric acid",
            "url": "https://haz-map.com/Agents/5046",
            "category": "agents"
          },
          {
            "type": "name_match",
            "text": "aurin",
            "confidence": 1.0,
            "uuid": "d84a3e17-c22e-49c8-a819-c0f493df6b46",
            "name": "Aurin",
            "url": "https://haz-map.com/Agents/12002",
            "category": "agents"
          },
          {
            "type": "name_match",
            "text": "uric acid",
            "confidence": 1.0,
            "uuid": "bd67e9b1-899e-4f1c-95f0-d25380f3c966",
            "name": "Uric acid",
            "url": "https://haz-map.com/Agents/18587",
            "category": "agents"
          }
        ]
      },
      "category": {
        "original_name": "Category",
        "value": "Esters, Other",
        "links": [],
        "cross_references": []
      },
      "description": {
        "original_name": "Description",
        "value": "Water-white liquid; mp = 4.8 deg C; [Hawley] Colorless liquid; [MSDSonline]",
        "links": [],
        "cross_references": [
          {
            "type": "name_match",
            "text": "water",
            "confidence": 1.0,
            "uuid": "6f2a7557-dfd2-49bc-9b4b-a93cd8e225d4",
            "name": "Water",
            "url": "https://haz-map.com/Agents/18668",
            "category": "agents"
          }
        ]
      },
      "sourcesuses": {
        "original_name": "Sources/Uses",
        "value": "Made from coconut oil; [Hawley] Used as a flavoring agent and as an intermediate for detergents, emulsifiers, wetting agents, stabilizers, lubricants, plasticizers, textiles, alkanolamides, fatty alcohols, and acids; [HSDB]",
        "links": [],
        "cross_references": [
          {
            "type": "name_match",
            "text": "coconut oil",
            "confidence": 1.0,
            "uuid": "e703b4dd-2431-4c6b-9f20-4273ce7099ea",
            "name": "Coconut oil",
            "url": "https://haz-map.com/Agents/20464",
            "category": "agents"
          }
        ]
      },
      "comments": {
        "original_name": "Comments",
        "value": "May cause irritation; [MSDSonline]",
        "links": [],
        "cross_references": []
      },
      "biomedical_references": {
        "original_name": "Biomedical References",
        "value": "Search PubMed",
        "links": [
          {
            "text": "Search PubMed",
            "url": "https://www.ncbi.nlm.nih.gov/pubmed?term=Methyl+laurate%20AND%20human%5Bmh%5D%20AND%20%28Occupational%20Diseases%20%5Bmh%5D%20OR%20Occupational%20Exposure%20%5Bmh%5D%29%20%20AND%20%28tox%5Bsb%5D%29&cmd=search"
          }
        ],
        "cross_references": []
      }
    },
    "exposure_assessment": {
      "vapor_pressure": {
        "original_name": "Vapor Pressure",
        "value": "0.00411 mm Hg",
        "links": [],
        "cross_references": []
      },
      "explanatory_notes": {
        "original_name": "Explanatory Notes",
        "value": "VP from ChemIDplus;",
        "links": [],
        "cross_references": []
      }
    },
    "diseases_processes_and_activities_linked_to_this_agent": {
      "other_information": {
        "original_name": "Other Information",
        "value": "No other related information on this agent was found.",
        "links": [],
        "cross_references": []
      }
    }
  },
  "cross_references": [
    {
      "type": "name_match",
      "text": "lauric acid",
      "confidence": 1.0,
      "uuid": "43b506b3-9881-4099-9951-2172b5c36577",
      "name": "Lauric acid",
      "url": "https://haz-map.com/Agents/5046",
      "category": "agents"
    },
    {
      "type": "name_match",
      "text": "methyl laurate",
      "confidence": 1.0,
      "uuid": "b2937d0d-8341-4026-aef0-0484f4640ef5",
      "name": "Methyl laurate",
      "url": "https://haz-map.com/Agents/8544",
      "category": "agents"
    },
    {
      "type": "name_match",
      "text": "aurin",
      "confidence": 1.0,
      "uuid": "d84a3e17-c22e-49c8-a819-c0f493df6b46",
      "name": "Aurin",
      "url": "https://haz-map.com/Agents/12002",
      "category": "agents"
    },
    {
      "type": "name_match",
      "text": "uric acid",
      "confidence": 1.0,
      "uuid": "bd67e9b1-899e-4f1c-95f0-d25380f3c966",
      "name": "Uric acid",
      "url": "https://haz-map.com/Agents/18587",
      "category": "agents"
    },
    {
      "type": "name_match",
      "text": "water",
      "confidence": 1.0,
      "uuid": "6f2a7557-dfd2-49bc-9b4b-a93cd8e225d4",
      "name": "Water",
      "url": "https://haz-map.com/Agents/18668",
      "category": "agents"
    },
    {
      "type": "name_match",
      "text": "coconut oil",
      "confidence": 1.0,
      "uuid": "e703b4dd-2431-4c6b-9f20-4273ce7099ea",
      "name": "Coconut oil",
      "url": "https://haz-map.com/Agents/20464",
      "category": "agents"
    }
  ],
  "all_links": [
    {
      "text": "Search PubMed",
      "url": "https://www.ncbi.nlm.nih.gov/pubmed?term=Methyl+laurate%20AND%20human%5Bmh%5D%20AND%20%28Occupational%20Diseases%20%5Bmh%5D%20OR%20Occupational%20Exposure%20%5Bmh%5D%29%20%20AND%20%28tox%5Bsb%5D%29&cmd=search"
    }
  ]
}