{
  "metadata": {
    "scraped_from": "https://haz-map.com/Agents/15434",
    "entity_name": "meso-2,3-Butanediol",
    "category": "agents",
    "uuid": "b2aa6e5a-3f05-4fc4-a5bf-6a39bf47fc10",
    "scraped_at": "2025-07-23T21:29:53.200743"
  },
  "parsed_at": "2025-07-24T00:53:37.019366",
  "title": "meso-2,3-Butanediol",
  "sections": {
    "general": {
      "agent_name": {
        "original_name": "Agent Name",
        "value": "meso-2,3-Butanediol",
        "links": [],
        "cross_references": [
          {
            "type": "name_match",
            "text": "2,3-butanediol",
            "confidence": 1.0,
            "uuid": "60d705fd-0467-4085-9526-7ca621c24064",
            "name": "2,3-Butanediol",
            "url": "https://haz-map.com/Agents/2960",
            "category": "agents"
          },
          {
            "type": "name_match",
            "text": "butanediol",
            "confidence": 1.0,
            "uuid": "4503a08d-7604-45cb-97d3-9fc34b6475f6",
            "name": "Butanediol",
            "url": "https://haz-map.com/Agents/12518",
            "category": "agents"
          },
          {
            "type": "name_match",
            "text": "meso-2,3-butanediol",
            "confidence": 1.0,
            "uuid": "b2aa6e5a-3f05-4fc4-a5bf-6a39bf47fc10",
            "name": "meso-2,3-Butanediol",
            "url": "https://haz-map.com/Agents/15434",
            "category": "agents"
          },
          {
            "type": "fuzzy_match",
            "text": "3-butanediol",
            "matched_name": "1,3-Butanediol",
            "confidence": 0.8571428571428571,
            "uuid": "73dddca9-4efd-47d4-8540-75d03ae6f8aa",
            "category": "agents",
            "url": "https://haz-map.com/Agents/2785"
          }
        ]
      },
      "cas_number": {
        "original_name": "CAS Number",
        "value": "5341-95-7",
        "links": [],
        "cross_references": []
      },
      "formula": {
        "original_name": "Formula",
        "value": "C4-H10-O2",
        "links": [],
        "cross_references": []
      },
      "major_category": {
        "original_name": "Major Category",
        "value": "Other Classes",
        "links": [],
        "cross_references": []
      },
      "synonyms": {
        "original_name": "Synonyms",
        "value": "2,3-Butanediol, (R*,S*)- (9CI); 2,3-Butanediol, meso- (8CI); [ChemIDplus]",
        "links": [],
        "cross_references": [
          {
            "type": "name_match",
            "text": "2,3-butanediol",
            "confidence": 1.0,
            "uuid": "60d705fd-0467-4085-9526-7ca621c24064",
            "name": "2,3-Butanediol",
            "url": "https://haz-map.com/Agents/2960",
            "category": "agents"
          },
          {
            "type": "name_match",
            "text": "butanediol",
            "confidence": 1.0,
            "uuid": "4503a08d-7604-45cb-97d3-9fc34b6475f6",
            "name": "Butanediol",
            "url": "https://haz-map.com/Agents/12518",
            "category": "agents"
          },
          {
            "type": "fuzzy_match",
            "text": "3-butanediol",
            "matched_name": "1,3-Butanediol",
            "confidence": 0.8571428571428571,
            "uuid": "73dddca9-4efd-47d4-8540-75d03ae6f8aa",
            "category": "agents",
            "url": "https://haz-map.com/Agents/2785"
          }
        ]
      },
      "category": {
        "original_name": "Category",
        "value": "Alcohols and Polyols, Other",
        "links": [],
        "cross_references": []
      },
      "description": {
        "original_name": "Description",
        "value": "Hygroscopic solid; mp = 34.4 deg C; [Merck Index] Colorless hygroscopic crystals; [Sigma-Aldrich MSDS]",
        "links": [],
        "cross_references": []
      },
      "comments": {
        "original_name": "Comments",
        "value": "Commercial 2,3-Butanediol is usually the meso- or the D(-)- form; [Merck Index] May cause irritation; [Sigma-Aldrich MSDS] See \"2,3-Butanediol.\"",
        "links": [],
        "cross_references": [
          {
            "type": "name_match",
            "text": "2,3-butanediol",
            "confidence": 1.0,
            "uuid": "60d705fd-0467-4085-9526-7ca621c24064",
            "name": "2,3-Butanediol",
            "url": "https://haz-map.com/Agents/2960",
            "category": "agents"
          },
          {
            "type": "name_match",
            "text": "butanediol",
            "confidence": 1.0,
            "uuid": "4503a08d-7604-45cb-97d3-9fc34b6475f6",
            "name": "Butanediol",
            "url": "https://haz-map.com/Agents/12518",
            "category": "agents"
          },
          {
            "type": "fuzzy_match",
            "text": "3-butanediol",
            "matched_name": "1,3-Butanediol",
            "confidence": 0.8571428571428571,
            "uuid": "73dddca9-4efd-47d4-8540-75d03ae6f8aa",
            "category": "agents",
            "url": "https://haz-map.com/Agents/2785"
          }
        ]
      },
      "biomedical_references": {
        "original_name": "Biomedical References",
        "value": "Search PubMed",
        "links": [
          {
            "text": "Search PubMed",
            "url": "https://www.ncbi.nlm.nih.gov/pubmed?term=meso-2%2c3-Butanediol%20AND%20human%5Bmh%5D%20AND%20%28Occupational%20Diseases%20%5Bmh%5D%20OR%20Occupational%20Exposure%20%5Bmh%5D%29%20%20AND%20%28tox%5Bsb%5D%29&cmd=search"
          }
        ],
        "cross_references": []
      }
    },
    "exposure_assessment": {
      "vapor_pressure": {
        "original_name": "Vapor Pressure",
        "value": "0.38 mm Hg",
        "links": [],
        "cross_references": []
      },
      "explanatory_notes": {
        "original_name": "Explanatory Notes",
        "value": "VP from ChemIDplus;",
        "links": [],
        "cross_references": []
      }
    },
    "adverse_effects": {
      "neurotoxin": {
        "original_name": "Neurotoxin",
        "value": "Acute solvent syndrome",
        "links": [],
        "cross_references": []
      }
    },
    "diseases_processes_and_activities_linked_to_this_agent": {
      "diseases": {
        "original_name": "Diseases",
        "value": "Occupational diseases associated with exposure to this agent: Solvents, acute toxic effect",
        "links": [
          {
            "text": "Solvents, acute toxic effect",
            "url": "https://haz-map.com/Diseases/326"
          }
        ],
        "cross_references": [
          {
            "type": "url_match",
            "text": "Solvents, acute toxic effect",
            "url": "https://haz-map.com/Diseases/326",
            "confidence": 1.0,
            "uuid": "581e90e3-9d0c-45f0-aa6c-3468c28da129",
            "name": "Solvents, acute toxic effect",
            "category": "diseases"
          }
        ]
      }
    }
  },
  "cross_references": [
    {
      "type": "url_match",
      "text": "Solvents, acute toxic effect",
      "url": "https://haz-map.com/Diseases/326",
      "confidence": 1.0,
      "uuid": "581e90e3-9d0c-45f0-aa6c-3468c28da129",
      "name": "Solvents, acute toxic effect",
      "category": "diseases"
    },
    {
      "type": "name_match",
      "text": "2,3-butanediol",
      "confidence": 1.0,
      "uuid": "60d705fd-0467-4085-9526-7ca621c24064",
      "name": "2,3-Butanediol",
      "url": "https://haz-map.com/Agents/2960",
      "category": "agents"
    },
    {
      "type": "name_match",
      "text": "butanediol",
      "confidence": 1.0,
      "uuid": "4503a08d-7604-45cb-97d3-9fc34b6475f6",
      "name": "Butanediol",
      "url": "https://haz-map.com/Agents/12518",
      "category": "agents"
    },
    {
      "type": "name_match",
      "text": "meso-2,3-butanediol",
      "confidence": 1.0,
      "uuid": "b2aa6e5a-3f05-4fc4-a5bf-6a39bf47fc10",
      "name": "meso-2,3-Butanediol",
      "url": "https://haz-map.com/Agents/15434",
      "category": "agents"
    },
    {
      "type": "fuzzy_match",
      "text": "3-butanediol",
      "matched_name": "1,3-Butanediol",
      "confidence": 0.8571428571428571,
      "uuid": "73dddca9-4efd-47d4-8540-75d03ae6f8aa",
      "category": "agents",
      "url": "https://haz-map.com/Agents/2785"
    }
  ],
  "all_links": [
    {
      "text": "Search PubMed",
      "url": "https://www.ncbi.nlm.nih.gov/pubmed?term=meso-2%2c3-Butanediol%20AND%20human%5Bmh%5D%20AND%20%28Occupational%20Diseases%20%5Bmh%5D%20OR%20Occupational%20Exposure%20%5Bmh%5D%29%20%20AND%20%28tox%5Bsb%5D%29&cmd=search"
    },
    {
      "text": "Solvents, acute toxic effect",
      "url": "https://haz-map.com/Diseases/326"
    }
  ]
}