{
  "metadata": {
    "scraped_from": "https://haz-map.com/Agents/7568",
    "entity_name": "Triethylene glycol bis(2-ethylbutyrate)",
    "category": "agents",
    "uuid": "b2cf8d2c-0ad3-46c2-8629-9734e471eb72",
    "scraped_at": "2025-07-23T20:14:17.566035"
  },
  "parsed_at": "2025-07-24T00:57:03.420253",
  "title": "Triethylene glycol bis(2-ethylbutyrate)",
  "sections": {
    "general": {
      "agent_name": {
        "original_name": "Agent Name",
        "value": "Triethylene glycol bis(2-ethylbutyrate)",
        "links": [],
        "cross_references": [
          {
            "type": "name_match",
            "text": "ethylene glycol",
            "confidence": 1.0,
            "uuid": "99589035-d71c-415a-914c-81c7a166be11",
            "name": "Ethylene glycol",
            "url": "https://haz-map.com/Agents/488",
            "category": "agents"
          },
          {
            "type": "name_match",
            "text": "ethylene",
            "confidence": 1.0,
            "uuid": "958eacc0-5135-4b62-bb93-6df972bf552f",
            "name": "Ethylene",
            "url": "https://haz-map.com/Agents/1076",
            "category": "agents"
          },
          {
            "type": "name_match",
            "text": "triethylene glycol",
            "confidence": 1.0,
            "uuid": "d663b8c5-8e07-4966-958a-ce0f5e532bd0",
            "name": "Triethylene glycol",
            "url": "https://haz-map.com/Agents/7567",
            "category": "agents"
          },
          {
            "type": "name_match",
            "text": "triethylene glycol bis(2-ethylbutyrate)",
            "confidence": 1.0,
            "uuid": "b2cf8d2c-0ad3-46c2-8629-9734e471eb72",
            "name": "Triethylene glycol bis(2-ethylbutyrate)",
            "url": "https://haz-map.com/Agents/7568",
            "category": "agents"
          }
        ]
      },
      "cas_number": {
        "original_name": "CAS Number",
        "value": "95-08-9",
        "links": [],
        "cross_references": []
      },
      "formula": {
        "original_name": "Formula",
        "value": "C18-H34-O6",
        "links": [],
        "cross_references": []
      },
      "major_category": {
        "original_name": "Major Category",
        "value": "Other Classes",
        "links": [],
        "cross_references": []
      },
      "synonyms": {
        "original_name": "Synonyms",
        "value": "2,2'-(Ethylenedioxy)di(ethyl 2-ethylbutyrate); 2-Ethylbutric acid, triethylene glycol diester; 2-Ethylbutyric acid, diester with triethylene glycol; 2-Ethylbutyric acid, triethylene glycol diester; Butanoic acid, 2-ethyl-, 1,2-ethanediylbis(oxy-2,1-ethanediyl) ester; Butyric acid, 2-ethyl-, diester with triethylene glycol; Flexol plasticizer 3GH; Plasticizer 3GH; Triethylene glycol bis(2-ethyl butyrate); Triethylene glycol di(2-ethyl butyrate); Triethylene glycol di-2-ethylbutyrate; Triethylene glycol, bis(2-ethylbutyrate); Triethyleneglycol diethyl butyrate; Triglycol di-(2-ethylbutyrate); Triglycol dicaproate; Triglycol dihexoate; [ChemIDplus]",
        "links": [],
        "cross_references": [
          {
            "type": "name_match",
            "text": "ethylene glycol",
            "confidence": 1.0,
            "uuid": "99589035-d71c-415a-914c-81c7a166be11",
            "name": "Ethylene glycol",
            "url": "https://haz-map.com/Agents/488",
            "category": "agents"
          },
          {
            "type": "name_match",
            "text": "ethane",
            "confidence": 1.0,
            "uuid": "5162cc8c-dfb9-4060-81ac-38a8cec7f9dd",
            "name": "Ethane",
            "url": "https://haz-map.com/Agents/1075",
            "category": "agents"
          },
          {
            "type": "name_match",
            "text": "ethylene",
            "confidence": 1.0,
            "uuid": "958eacc0-5135-4b62-bb93-6df972bf552f",
            "name": "Ethylene",
            "url": "https://haz-map.com/Agents/1076",
            "category": "agents"
          },
          {
            "type": "name_match",
            "text": "butyric acid",
            "confidence": 1.0,
            "uuid": "a59c4184-bd52-40af-8450-80d14bbee018",
            "name": "Butyric acid",
            "url": "https://haz-map.com/Agents/1391",
            "category": "agents"
          },
          {
            "type": "name_match",
            "text": "ethyl butyrate",
            "confidence": 1.0,
            "uuid": "1909172b-d429-48f7-8bc7-6c77eed10fee",
            "name": "Ethyl butyrate",
            "url": "https://haz-map.com/Agents/5177",
            "category": "agents"
          },
          {
            "type": "name_match",
            "text": "triethylene glycol",
            "confidence": 1.0,
            "uuid": "d663b8c5-8e07-4966-958a-ce0f5e532bd0",
            "name": "Triethylene glycol",
            "url": "https://haz-map.com/Agents/7567",
            "category": "agents"
          },
          {
            "type": "name_match",
            "text": "2-ethylbutyric acid",
            "confidence": 1.0,
            "uuid": "263b013a-0ab7-4fd0-a8a8-f17860dd8fbf",
            "name": "2-Ethylbutyric acid",
            "url": "https://haz-map.com/Agents/19600",
            "category": "agents"
          }
        ]
      },
      "category": {
        "original_name": "Category",
        "value": "Ethylene Glycols",
        "links": [],
        "cross_references": [
          {
            "type": "name_match",
            "text": "ethylene glycol",
            "confidence": 1.0,
            "uuid": "99589035-d71c-415a-914c-81c7a166be11",
            "name": "Ethylene glycol",
            "url": "https://haz-map.com/Agents/488",
            "category": "agents"
          },
          {
            "type": "name_match",
            "text": "ethylene",
            "confidence": 1.0,
            "uuid": "958eacc0-5135-4b62-bb93-6df972bf552f",
            "name": "Ethylene",
            "url": "https://haz-map.com/Agents/1076",
            "category": "agents"
          }
        ]
      },
      "description": {
        "original_name": "Description",
        "value": "Light colored liquid; [HSDB] Hygroscopic; [CAMEO] Fruity pleasant odor; [MSDSonline]",
        "links": [],
        "cross_references": [
          {
            "type": "name_match",
            "text": "ht",
            "confidence": 1.0,
            "uuid": "764df367-8d53-4a11-81a2-31ccfe122a8d",
            "name": "HT",
            "url": "https://haz-map.com/Agents/2168",
            "category": "agents"
          }
        ]
      },
      "sourcesuses": {
        "original_name": "Sources/Uses",
        "value": "Used as plasticizer; [HSDB]",
        "links": [],
        "cross_references": []
      },
      "comments": {
        "original_name": "Comments",
        "value": "In lethal-dose feeding studies, causes somnolence and kidney changes; [RTECS] An eye, nose, and throat irritant; [CAMEO] May cause irritation; [MSDSonline] See \"Triethylene glycol.\"",
        "links": [],
        "cross_references": [
          {
            "type": "name_match",
            "text": "ethylene glycol",
            "confidence": 1.0,
            "uuid": "99589035-d71c-415a-914c-81c7a166be11",
            "name": "Ethylene glycol",
            "url": "https://haz-map.com/Agents/488",
            "category": "agents"
          },
          {
            "type": "name_match",
            "text": "ethylene",
            "confidence": 1.0,
            "uuid": "958eacc0-5135-4b62-bb93-6df972bf552f",
            "name": "Ethylene",
            "url": "https://haz-map.com/Agents/1076",
            "category": "agents"
          },
          {
            "type": "name_match",
            "text": "triethylene glycol",
            "confidence": 1.0,
            "uuid": "d663b8c5-8e07-4966-958a-ce0f5e532bd0",
            "name": "Triethylene glycol",
            "url": "https://haz-map.com/Agents/7567",
            "category": "agents"
          }
        ]
      },
      "biomedical_references": {
        "original_name": "Biomedical References",
        "value": "Search PubMed",
        "links": [
          {
            "text": "Search PubMed",
            "url": "https://www.ncbi.nlm.nih.gov/pubmed?term=Triethylene+glycol+bis(2-ethylbutyrate)%20AND%20human%5Bmh%5D%20AND%20%28Occupational%20Diseases%20%5Bmh%5D%20OR%20Occupational%20Exposure%20%5Bmh%5D%29%20%20AND%20%28tox%5Bsb%5D%29&cmd=search"
          }
        ],
        "cross_references": []
      }
    },
    "exposure_assessment": {
      "vapor_pressure": {
        "original_name": "Vapor Pressure",
        "value": "9.05E-05 mm Hg",
        "links": [],
        "cross_references": []
      }
    },
    "diseases_processes_and_activities_linked_to_this_agent": {
      "other_information": {
        "original_name": "Other Information",
        "value": "No other related information on this agent was found.",
        "links": [],
        "cross_references": []
      }
    }
  },
  "cross_references": [
    {
      "type": "name_match",
      "text": "ethylene glycol",
      "confidence": 1.0,
      "uuid": "99589035-d71c-415a-914c-81c7a166be11",
      "name": "Ethylene glycol",
      "url": "https://haz-map.com/Agents/488",
      "category": "agents"
    },
    {
      "type": "name_match",
      "text": "ethane",
      "confidence": 1.0,
      "uuid": "5162cc8c-dfb9-4060-81ac-38a8cec7f9dd",
      "name": "Ethane",
      "url": "https://haz-map.com/Agents/1075",
      "category": "agents"
    },
    {
      "type": "name_match",
      "text": "ethylene",
      "confidence": 1.0,
      "uuid": "958eacc0-5135-4b62-bb93-6df972bf552f",
      "name": "Ethylene",
      "url": "https://haz-map.com/Agents/1076",
      "category": "agents"
    },
    {
      "type": "name_match",
      "text": "butyric acid",
      "confidence": 1.0,
      "uuid": "a59c4184-bd52-40af-8450-80d14bbee018",
      "name": "Butyric acid",
      "url": "https://haz-map.com/Agents/1391",
      "category": "agents"
    },
    {
      "type": "name_match",
      "text": "ht",
      "confidence": 1.0,
      "uuid": "764df367-8d53-4a11-81a2-31ccfe122a8d",
      "name": "HT",
      "url": "https://haz-map.com/Agents/2168",
      "category": "agents"
    },
    {
      "type": "name_match",
      "text": "ethyl butyrate",
      "confidence": 1.0,
      "uuid": "1909172b-d429-48f7-8bc7-6c77eed10fee",
      "name": "Ethyl butyrate",
      "url": "https://haz-map.com/Agents/5177",
      "category": "agents"
    },
    {
      "type": "name_match",
      "text": "triethylene glycol",
      "confidence": 1.0,
      "uuid": "d663b8c5-8e07-4966-958a-ce0f5e532bd0",
      "name": "Triethylene glycol",
      "url": "https://haz-map.com/Agents/7567",
      "category": "agents"
    },
    {
      "type": "name_match",
      "text": "triethylene glycol bis(2-ethylbutyrate)",
      "confidence": 1.0,
      "uuid": "b2cf8d2c-0ad3-46c2-8629-9734e471eb72",
      "name": "Triethylene glycol bis(2-ethylbutyrate)",
      "url": "https://haz-map.com/Agents/7568",
      "category": "agents"
    },
    {
      "type": "name_match",
      "text": "2-ethylbutyric acid",
      "confidence": 1.0,
      "uuid": "263b013a-0ab7-4fd0-a8a8-f17860dd8fbf",
      "name": "2-Ethylbutyric acid",
      "url": "https://haz-map.com/Agents/19600",
      "category": "agents"
    }
  ],
  "all_links": [
    {
      "text": "Search PubMed",
      "url": "https://www.ncbi.nlm.nih.gov/pubmed?term=Triethylene+glycol+bis(2-ethylbutyrate)%20AND%20human%5Bmh%5D%20AND%20%28Occupational%20Diseases%20%5Bmh%5D%20OR%20Occupational%20Exposure%20%5Bmh%5D%29%20%20AND%20%28tox%5Bsb%5D%29&cmd=search"
    }
  ]
}