{
  "metadata": {
    "scraped_from": "https://haz-map.com/Agents/10248",
    "entity_name": "Butyloctanol",
    "category": "agents",
    "uuid": "b2d9c4f8-c16f-4758-97b1-b49cd76ebb9a",
    "scraped_at": "2025-07-23T20:45:49.680458"
  },
  "parsed_at": "2025-07-24T01:07:45.850745",
  "title": "Butyloctanol",
  "sections": {
    "general": {
      "agent_name": {
        "original_name": "Agent Name",
        "value": "Butyloctanol",
        "links": [],
        "cross_references": [
          {
            "type": "name_match",
            "text": "butyloctanol",
            "confidence": 1.0,
            "uuid": "b2d9c4f8-c16f-4758-97b1-b49cd76ebb9a",
            "name": "Butyloctanol",
            "url": "https://haz-map.com/Agents/10248",
            "category": "agents"
          }
        ]
      },
      "cas_number": {
        "original_name": "CAS Number",
        "value": "3913-02-8",
        "links": [],
        "cross_references": []
      },
      "formula": {
        "original_name": "Formula",
        "value": "C12-H26-O",
        "links": [],
        "cross_references": []
      },
      "major_category": {
        "original_name": "Major Category",
        "value": "Other Classes",
        "links": [],
        "cross_references": []
      },
      "synonyms": {
        "original_name": "Synonyms",
        "value": "2-Butyl-1-octanol; 2-Butyloctanol; 2-Butyloctyl alcohol; 5-(Hydroxymethyl)undecane; 1-Octanol, 2-butyl-; 2-Butyloctan-1-ol; [ChemIDplus] ISOFOL 12 Alcohol; [Sasol MSDS]",
        "links": [],
        "cross_references": [
          {
            "type": "name_match",
            "text": "undecane",
            "confidence": 1.0,
            "uuid": "88158023-ae31-4548-a174-0b1b4cbf252b",
            "name": "Undecane",
            "url": "https://haz-map.com/Agents/1919",
            "category": "agents"
          },
          {
            "type": "name_match",
            "text": "1-octanol",
            "confidence": 1.0,
            "uuid": "c73abd5d-2b7c-4354-92c8-91ab1b01d982",
            "name": "1-Octanol",
            "url": "https://haz-map.com/Agents/2916",
            "category": "agents"
          },
          {
            "type": "name_match",
            "text": "butyloctanol",
            "confidence": 1.0,
            "uuid": "b2d9c4f8-c16f-4758-97b1-b49cd76ebb9a",
            "name": "Butyloctanol",
            "url": "https://haz-map.com/Agents/10248",
            "category": "agents"
          }
        ]
      },
      "category": {
        "original_name": "Category",
        "value": "Alcohols and Polyols, Other",
        "links": [],
        "cross_references": []
      },
      "description": {
        "original_name": "Description",
        "value": "Colorless oily liquid with a sweet odor; [Sasol MSDS]",
        "links": [],
        "cross_references": []
      },
      "sourcesuses": {
        "original_name": "Sources/Uses",
        "value": "Used for industrial and institutional cleaning; [Sasol MSDS]",
        "links": [],
        "cross_references": []
      },
      "comments": {
        "original_name": "Comments",
        "value": "A mild skin irritant; [RTECS] An eye irritant; Ingestion may cause CNS depression, irritation, vomiting, diarrhea, and lung injury from aspiration; [Sasol MSDS] See \"Diisobutyl carbinol.\"",
        "links": [],
        "cross_references": [
          {
            "type": "name_match",
            "text": "diarrhea",
            "confidence": 1.0,
            "uuid": "001ae7b5-5f3c-42c2-bc33-81e7581abd53",
            "name": "diarrhea",
            "url": "https://haz-map.com/Findings/15",
            "category": "findings"
          },
          {
            "type": "name_match",
            "text": "diisobutyl carbinol",
            "confidence": 1.0,
            "uuid": "ecf65f87-2e38-4cc4-b8e0-07c3bd882b15",
            "name": "Diisobutyl carbinol",
            "url": "https://haz-map.com/Agents/4889",
            "category": "agents"
          }
        ]
      },
      "biomedical_references": {
        "original_name": "Biomedical References",
        "value": "Search PubMed",
        "links": [
          {
            "text": "Search PubMed",
            "url": "https://www.ncbi.nlm.nih.gov/pubmed?term=Butyloctanol%20AND%20human%5Bmh%5D%20AND%20%28Occupational%20Diseases%20%5Bmh%5D%20OR%20Occupational%20Exposure%20%5Bmh%5D%29%20%20AND%20%28tox%5Bsb%5D%29&cmd=search"
          }
        ],
        "cross_references": []
      }
    },
    "exposure_assessment": {
      "explanatory_notes": {
        "original_name": "Explanatory Notes",
        "value": "Vapor pressure = 7.5 mm Hg at 117 deg C; [Sasol MSDS]",
        "links": [],
        "cross_references": []
      },
      "nfpa": {
        "original_name": "NFPA",
        "value": "must be preheated",
        "links": [],
        "cross_references": []
      }
    },
    "adverse_effects": {
      "neurotoxin": {
        "original_name": "Neurotoxin",
        "value": "Acute solvent syndrome",
        "links": [],
        "cross_references": []
      }
    },
    "diseases_processes_and_activities_linked_to_this_agent": {
      "diseases": {
        "original_name": "Diseases",
        "value": "Occupational diseases associated with exposure to this agent: Solvents, acute toxic effect",
        "links": [
          {
            "text": "Solvents, acute toxic effect",
            "url": "https://haz-map.com/Diseases/326"
          }
        ],
        "cross_references": [
          {
            "type": "url_match",
            "text": "Solvents, acute toxic effect",
            "url": "https://haz-map.com/Diseases/326",
            "confidence": 1.0,
            "uuid": "581e90e3-9d0c-45f0-aa6c-3468c28da129",
            "name": "Solvents, acute toxic effect",
            "category": "diseases"
          }
        ]
      },
      "processes": {
        "original_name": "Processes",
        "value": "Industrial Processes with risk of exposure: Metal Degreasing",
        "links": [
          {
            "text": "Metal Degreasing",
            "url": "https://haz-map.com/Processes/9"
          }
        ],
        "cross_references": [
          {
            "type": "url_match",
            "text": "Metal Degreasing",
            "url": "https://haz-map.com/Processes/9",
            "confidence": 1.0,
            "uuid": "7f7d1988-b456-403f-a356-245ce5458f96",
            "name": "Metal Degreasing",
            "category": "processes"
          }
        ]
      }
    }
  },
  "cross_references": [
    {
      "type": "url_match",
      "text": "Solvents, acute toxic effect",
      "url": "https://haz-map.com/Diseases/326",
      "confidence": 1.0,
      "uuid": "581e90e3-9d0c-45f0-aa6c-3468c28da129",
      "name": "Solvents, acute toxic effect",
      "category": "diseases"
    },
    {
      "type": "url_match",
      "text": "Metal Degreasing",
      "url": "https://haz-map.com/Processes/9",
      "confidence": 1.0,
      "uuid": "7f7d1988-b456-403f-a356-245ce5458f96",
      "name": "Metal Degreasing",
      "category": "processes"
    },
    {
      "type": "name_match",
      "text": "diarrhea",
      "confidence": 1.0,
      "uuid": "001ae7b5-5f3c-42c2-bc33-81e7581abd53",
      "name": "diarrhea",
      "url": "https://haz-map.com/Findings/15",
      "category": "findings"
    },
    {
      "type": "name_match",
      "text": "undecane",
      "confidence": 1.0,
      "uuid": "88158023-ae31-4548-a174-0b1b4cbf252b",
      "name": "Undecane",
      "url": "https://haz-map.com/Agents/1919",
      "category": "agents"
    },
    {
      "type": "name_match",
      "text": "1-octanol",
      "confidence": 1.0,
      "uuid": "c73abd5d-2b7c-4354-92c8-91ab1b01d982",
      "name": "1-Octanol",
      "url": "https://haz-map.com/Agents/2916",
      "category": "agents"
    },
    {
      "type": "name_match",
      "text": "diisobutyl carbinol",
      "confidence": 1.0,
      "uuid": "ecf65f87-2e38-4cc4-b8e0-07c3bd882b15",
      "name": "Diisobutyl carbinol",
      "url": "https://haz-map.com/Agents/4889",
      "category": "agents"
    },
    {
      "type": "name_match",
      "text": "butyloctanol",
      "confidence": 1.0,
      "uuid": "b2d9c4f8-c16f-4758-97b1-b49cd76ebb9a",
      "name": "Butyloctanol",
      "url": "https://haz-map.com/Agents/10248",
      "category": "agents"
    }
  ],
  "all_links": [
    {
      "text": "Search PubMed",
      "url": "https://www.ncbi.nlm.nih.gov/pubmed?term=Butyloctanol%20AND%20human%5Bmh%5D%20AND%20%28Occupational%20Diseases%20%5Bmh%5D%20OR%20Occupational%20Exposure%20%5Bmh%5D%29%20%20AND%20%28tox%5Bsb%5D%29&cmd=search"
    },
    {
      "text": "Solvents, acute toxic effect",
      "url": "https://haz-map.com/Diseases/326"
    },
    {
      "text": "Metal Degreasing",
      "url": "https://haz-map.com/Processes/9"
    }
  ]
}