{
  "metadata": {
    "scraped_from": "https://haz-map.com/Agents/7698",
    "entity_name": "Valone",
    "category": "agents",
    "uuid": "b3023c8f-a993-4965-9218-64e9676bfb15",
    "scraped_at": "2025-07-23T20:15:50.250121"
  },
  "parsed_at": "2025-07-24T01:16:12.812250",
  "title": "Valone",
  "sections": {
    "general": {
      "agent_name": {
        "original_name": "Agent Name",
        "value": "Valone",
        "links": [],
        "cross_references": [
          {
            "type": "name_match",
            "text": "valone",
            "confidence": 1.0,
            "uuid": "b3023c8f-a993-4965-9218-64e9676bfb15",
            "name": "Valone",
            "url": "https://haz-map.com/Agents/7698",
            "category": "agents"
          }
        ]
      },
      "cas_number": {
        "original_name": "CAS Number",
        "value": "83-28-3",
        "links": [],
        "cross_references": []
      },
      "formula": {
        "original_name": "Formula",
        "value": "C14-H14-O3",
        "links": [],
        "cross_references": []
      },
      "major_category": {
        "original_name": "Major Category",
        "value": "Pesticides",
        "links": [],
        "cross_references": []
      },
      "synonyms": {
        "original_name": "Synonyms",
        "value": "2-Isopentanoyl-1,3-indanedione; 2-Isovaleryl-1,3-indanedione; 2-Isovalerylindan-1,3-dione; 2-Isovalerylindane-1,3-dione; Isoval; Isovaleryl indandione; Motomco tracking powder; 1,3-Indandione, 2-isovaleryl-; 1H-Indene-1,3(2H)-dione, 2-(3-methyl-1-oxobutyl)-; [ChemIDplus]",
        "links": [],
        "cross_references": [
          {
            "type": "name_match",
            "text": "lindane",
            "confidence": 1.0,
            "uuid": "19252c2d-d3f7-459f-ae99-e081be2534c9",
            "name": "Lindane",
            "url": "https://haz-map.com/Agents/237",
            "category": "agents"
          },
          {
            "type": "name_match",
            "text": "indene",
            "confidence": 1.0,
            "uuid": "abe76b78-2986-4d49-b6e5-d1ce49774b99",
            "name": "Indene",
            "url": "https://haz-map.com/Agents/520",
            "category": "agents"
          },
          {
            "type": "name_match",
            "text": "1,3-indandione",
            "confidence": 1.0,
            "uuid": "11f3f730-a7f0-4fbe-b7e1-443b9dfaf6c9",
            "name": "1,3-Indandione",
            "url": "https://haz-map.com/Agents/19260",
            "category": "agents"
          },
          {
            "type": "name_match",
            "text": "indan",
            "confidence": 1.0,
            "uuid": "ebba867b-a993-436a-85fb-f7d1183da941",
            "name": "Indan",
            "url": "https://haz-map.com/Agents/19450",
            "category": "agents"
          }
        ]
      },
      "category": {
        "original_name": "Category",
        "value": "Rodenticides, Anticoagulant",
        "links": [],
        "cross_references": []
      },
      "description": {
        "original_name": "Description",
        "value": "Yellow solid; [Merck Index] Yellow crystalline solid; [MSDSonline]",
        "links": [],
        "cross_references": [
          {
            "type": "fuzzy_match",
            "text": "crystalline",
            "matched_name": "Silica, crystalline",
            "confidence": 0.7061403508771931,
            "uuid": "f920e8a2-46df-41b7-af8d-0368a777251e",
            "category": "agents",
            "url": "https://haz-map.com/Agents/427"
          }
        ]
      },
      "sourcesuses": {
        "original_name": "Sources/Uses",
        "value": "Used as rodenticide and insecticide; [Merck Index]",
        "links": [],
        "cross_references": []
      },
      "comments": {
        "original_name": "Comments",
        "value": "A vitamin K antagonist--causes disruption of clotting factors and bleeding; [HSDB] An indandione anticoagulant rodenticide; [INCHEM] See \"Warfarin.\"",
        "links": [],
        "cross_references": [
          {
            "type": "name_match",
            "text": "warfarin",
            "confidence": 1.0,
            "uuid": "53672f20-d5e2-4d2b-a15a-3c933026cc64",
            "name": "Warfarin",
            "url": "https://haz-map.com/Agents/673",
            "category": "agents"
          },
          {
            "type": "name_match",
            "text": "indan",
            "confidence": 1.0,
            "uuid": "ebba867b-a993-436a-85fb-f7d1183da941",
            "name": "Indan",
            "url": "https://haz-map.com/Agents/19450",
            "category": "agents"
          }
        ]
      },
      "restricted": {
        "original_name": "Restricted",
        "value": "Cancelled--no longer registered as a pesticide for use in the US; [HSDB]",
        "links": [],
        "cross_references": []
      },
      "biomedical_references": {
        "original_name": "Biomedical References",
        "value": "Search PubMed",
        "links": [
          {
            "text": "Search PubMed",
            "url": "https://www.ncbi.nlm.nih.gov/pubmed?term=Valone%20AND%20human%5Bmh%5D%20AND%20%28Occupational%20Diseases%20%5Bmh%5D%20OR%20Occupational%20Exposure%20%5Bmh%5D%29%20%20AND%20%28tox%5Bsb%5D%29&cmd=search"
          }
        ],
        "cross_references": []
      }
    },
    "exposure_assessment": {
      "vapor_pressure": {
        "original_name": "Vapor Pressure",
        "value": "6.88E-06 mm Hg",
        "links": [],
        "cross_references": []
      }
    },
    "diseases_processes_and_activities_linked_to_this_agent": {
      "processes": {
        "original_name": "Processes",
        "value": "Industrial Processes with risk of exposure: Farming (Pesticides)",
        "links": [
          {
            "text": "Farming (Pesticides)",
            "url": "https://haz-map.com/Processes/218"
          }
        ],
        "cross_references": [
          {
            "type": "url_match",
            "text": "Farming (Pesticides)",
            "url": "https://haz-map.com/Processes/218",
            "confidence": 1.0,
            "uuid": "cf1e5815-c9bb-4917-82a5-391848170b7e",
            "name": "Farming (Pesticides)",
            "category": "processes"
          }
        ]
      }
    }
  },
  "cross_references": [
    {
      "type": "url_match",
      "text": "Farming (Pesticides)",
      "url": "https://haz-map.com/Processes/218",
      "confidence": 1.0,
      "uuid": "cf1e5815-c9bb-4917-82a5-391848170b7e",
      "name": "Farming (Pesticides)",
      "category": "processes"
    },
    {
      "type": "name_match",
      "text": "lindane",
      "confidence": 1.0,
      "uuid": "19252c2d-d3f7-459f-ae99-e081be2534c9",
      "name": "Lindane",
      "url": "https://haz-map.com/Agents/237",
      "category": "agents"
    },
    {
      "type": "name_match",
      "text": "indene",
      "confidence": 1.0,
      "uuid": "abe76b78-2986-4d49-b6e5-d1ce49774b99",
      "name": "Indene",
      "url": "https://haz-map.com/Agents/520",
      "category": "agents"
    },
    {
      "type": "name_match",
      "text": "warfarin",
      "confidence": 1.0,
      "uuid": "53672f20-d5e2-4d2b-a15a-3c933026cc64",
      "name": "Warfarin",
      "url": "https://haz-map.com/Agents/673",
      "category": "agents"
    },
    {
      "type": "name_match",
      "text": "valone",
      "confidence": 1.0,
      "uuid": "b3023c8f-a993-4965-9218-64e9676bfb15",
      "name": "Valone",
      "url": "https://haz-map.com/Agents/7698",
      "category": "agents"
    },
    {
      "type": "name_match",
      "text": "1,3-indandione",
      "confidence": 1.0,
      "uuid": "11f3f730-a7f0-4fbe-b7e1-443b9dfaf6c9",
      "name": "1,3-Indandione",
      "url": "https://haz-map.com/Agents/19260",
      "category": "agents"
    },
    {
      "type": "name_match",
      "text": "indan",
      "confidence": 1.0,
      "uuid": "ebba867b-a993-436a-85fb-f7d1183da941",
      "name": "Indan",
      "url": "https://haz-map.com/Agents/19450",
      "category": "agents"
    },
    {
      "type": "fuzzy_match",
      "text": "crystalline",
      "matched_name": "Silica, crystalline",
      "confidence": 0.7061403508771931,
      "uuid": "f920e8a2-46df-41b7-af8d-0368a777251e",
      "category": "agents",
      "url": "https://haz-map.com/Agents/427"
    }
  ],
  "all_links": [
    {
      "text": "Search PubMed",
      "url": "https://www.ncbi.nlm.nih.gov/pubmed?term=Valone%20AND%20human%5Bmh%5D%20AND%20%28Occupational%20Diseases%20%5Bmh%5D%20OR%20Occupational%20Exposure%20%5Bmh%5D%29%20%20AND%20%28tox%5Bsb%5D%29&cmd=search"
    },
    {
      "text": "Farming (Pesticides)",
      "url": "https://haz-map.com/Processes/218"
    }
  ]
}