{
  "metadata": {
    "scraped_from": "https://haz-map.com/Agents/7320",
    "entity_name": "Terbacil",
    "category": "agents",
    "uuid": "b33fc349-728a-495e-93f8-d3c03965a17f",
    "scraped_at": "2025-07-23T20:11:28.962325"
  },
  "parsed_at": "2025-07-24T01:19:16.671579",
  "title": "Terbacil",
  "sections": {
    "general": {
      "agent_name": {
        "original_name": "Agent Name",
        "value": "Terbacil",
        "links": [],
        "cross_references": [
          {
            "type": "name_match",
            "text": "terbacil",
            "confidence": 1.0,
            "uuid": "b33fc349-728a-495e-93f8-d3c03965a17f",
            "name": "Terbacil",
            "url": "https://haz-map.com/Agents/7320",
            "category": "agents"
          }
        ]
      },
      "cas_number": {
        "original_name": "CAS Number",
        "value": "5902-51-2",
        "links": [],
        "cross_references": []
      },
      "formula": {
        "original_name": "Formula",
        "value": "C9-H13-Cl-N2-O2",
        "links": [],
        "cross_references": []
      },
      "major_category": {
        "original_name": "Major Category",
        "value": "Pesticides",
        "links": [],
        "cross_references": []
      },
      "synonyms": {
        "original_name": "Synonyms",
        "value": "2,4(1H,3H)-Pyrimidinedione, 5-chloro-3-(1,1-dimethylethyl)-6-methyl-; 3-t-Butyl-5-chloro-6-methyluracil; 3-tert-Butyl-5-chloro-6-methyluracil; 3-tert.Butyl-5-chlor-6-methyluracil [German]; 5-Chloro-3-(1,1-dimethylethyl)-6-methyl-2,4(1H,3H)-pyrimidinedione; 5-Chloro-3-tert-butyl-6-methyluracil; Compound 732; Du Pont 732; Du Pont herbicide 732; Experimental Herbicide 732; Geonter; Sinbar; Turbacil; [ChemIDplus]",
        "links": [],
        "cross_references": [
          {
            "type": "name_match",
            "text": "pyrimidine",
            "confidence": 1.0,
            "uuid": "8c810e75-fc30-4402-838c-43fcd0d46a84",
            "name": "Pyrimidine",
            "url": "https://haz-map.com/Agents/9521",
            "category": "agents"
          },
          {
            "type": "name_match",
            "text": "uracil",
            "confidence": 1.0,
            "uuid": "c0961edf-610d-41fb-8b25-bd80c4f22b92",
            "name": "Uracil",
            "url": "https://haz-map.com/Agents/18531",
            "category": "agents"
          }
        ]
      },
      "category": {
        "original_name": "Category",
        "value": "Herbicides, Other",
        "links": [],
        "cross_references": [
          {
            "type": "name_match",
            "text": "herbicides",
            "confidence": 1.0,
            "uuid": "195f29ae-3f15-47c5-836d-0a9791db3fc1",
            "name": "HERBICIDES",
            "url": "https://haz-map.com/Agents/703",
            "category": "agents"
          }
        ]
      },
      "description": {
        "original_name": "Description",
        "value": "Colorless or white odorless solid; [HSDB]",
        "links": [],
        "cross_references": []
      },
      "sourcesuses": {
        "original_name": "Sources/Uses",
        "value": "Used as selective herbicide for control of annual and some perennial weeds; [HSDB]",
        "links": [],
        "cross_references": []
      },
      "comments": {
        "original_name": "Comments",
        "value": "May cause skin, eye, nose, and throat irritation; Toxic to liver in animal studies; [HSDB] Targets the liver and thyroid gland in animal feeding studies; [Reference #1] May cause irritation; [MSDSonline]",
        "links": [],
        "cross_references": []
      },
      "reference_link_1": {
        "original_name": "Reference Link #1",
        "value": "EPA Pesticide Chemical Search",
        "links": [
          {
            "text": "EPA Pesticide Chemical Search",
            "url": "https://iaspub.epa.gov/apex/pesticides/f?p=CHEMICALSEARCH:1:"
          }
        ],
        "cross_references": [
          {
            "type": "name_match",
            "text": "mica",
            "confidence": 1.0,
            "uuid": "433f26f1-c399-4596-b179-ce3843cfd465",
            "name": "Mica",
            "url": "https://haz-map.com/Agents/621",
            "category": "agents"
          }
        ]
      },
      "biomedical_references": {
        "original_name": "Biomedical References",
        "value": "Search PubMed",
        "links": [
          {
            "text": "Search PubMed",
            "url": "https://www.ncbi.nlm.nih.gov/pubmed?term=Terbacil%20AND%20human%5Bmh%5D%20AND%20%28Occupational%20Diseases%20%5Bmh%5D%20OR%20Occupational%20Exposure%20%5Bmh%5D%29%20%20AND%20%28tox%5Bsb%5D%29&cmd=search"
          }
        ],
        "cross_references": []
      }
    },
    "exposure_assessment": {
      "vapor_pressure": {
        "original_name": "Vapor Pressure",
        "value": "4.7E-07 mm Hg",
        "links": [],
        "cross_references": []
      }
    },
    "adverse_effects": {
      "hepatotoxin": {
        "original_name": "Hepatotoxin",
        "value": "Hepatoxic (a) from occupational exposure (secondary effect) or (b) in animal studies or in humans after ingestion",
        "links": [],
        "cross_references": []
      }
    },
    "diseases_processes_and_activities_linked_to_this_agent": {
      "processes": {
        "original_name": "Processes",
        "value": "Industrial Processes with risk of exposure: Farming (Pesticides)",
        "links": [
          {
            "text": "Farming (Pesticides)",
            "url": "https://haz-map.com/Processes/218"
          }
        ],
        "cross_references": [
          {
            "type": "url_match",
            "text": "Farming (Pesticides)",
            "url": "https://haz-map.com/Processes/218",
            "confidence": 1.0,
            "uuid": "cf1e5815-c9bb-4917-82a5-391848170b7e",
            "name": "Farming (Pesticides)",
            "category": "processes"
          }
        ]
      }
    }
  },
  "cross_references": [
    {
      "type": "url_match",
      "text": "Farming (Pesticides)",
      "url": "https://haz-map.com/Processes/218",
      "confidence": 1.0,
      "uuid": "cf1e5815-c9bb-4917-82a5-391848170b7e",
      "name": "Farming (Pesticides)",
      "category": "processes"
    },
    {
      "type": "name_match",
      "text": "mica",
      "confidence": 1.0,
      "uuid": "433f26f1-c399-4596-b179-ce3843cfd465",
      "name": "Mica",
      "url": "https://haz-map.com/Agents/621",
      "category": "agents"
    },
    {
      "type": "name_match",
      "text": "herbicides",
      "confidence": 1.0,
      "uuid": "195f29ae-3f15-47c5-836d-0a9791db3fc1",
      "name": "HERBICIDES",
      "url": "https://haz-map.com/Agents/703",
      "category": "agents"
    },
    {
      "type": "name_match",
      "text": "terbacil",
      "confidence": 1.0,
      "uuid": "b33fc349-728a-495e-93f8-d3c03965a17f",
      "name": "Terbacil",
      "url": "https://haz-map.com/Agents/7320",
      "category": "agents"
    },
    {
      "type": "name_match",
      "text": "pyrimidine",
      "confidence": 1.0,
      "uuid": "8c810e75-fc30-4402-838c-43fcd0d46a84",
      "name": "Pyrimidine",
      "url": "https://haz-map.com/Agents/9521",
      "category": "agents"
    },
    {
      "type": "name_match",
      "text": "uracil",
      "confidence": 1.0,
      "uuid": "c0961edf-610d-41fb-8b25-bd80c4f22b92",
      "name": "Uracil",
      "url": "https://haz-map.com/Agents/18531",
      "category": "agents"
    }
  ],
  "all_links": [
    {
      "text": "EPA Pesticide Chemical Search",
      "url": "https://iaspub.epa.gov/apex/pesticides/f?p=CHEMICALSEARCH:1:"
    },
    {
      "text": "Search PubMed",
      "url": "https://www.ncbi.nlm.nih.gov/pubmed?term=Terbacil%20AND%20human%5Bmh%5D%20AND%20%28Occupational%20Diseases%20%5Bmh%5D%20OR%20Occupational%20Exposure%20%5Bmh%5D%29%20%20AND%20%28tox%5Bsb%5D%29&cmd=search"
    },
    {
      "text": "Farming (Pesticides)",
      "url": "https://haz-map.com/Processes/218"
    }
  ]
}