{
  "metadata": {
    "scraped_from": "https://haz-map.com/Agents/18533",
    "entity_name": "Fluorescein sodium",
    "category": "agents",
    "uuid": "b34f85be-25f1-47c3-9051-61957a37a8e5",
    "scraped_at": "2025-07-23T21:56:25.659824"
  },
  "parsed_at": "2025-07-24T01:06:44.193754",
  "title": "Fluorescein sodium",
  "sections": {
    "general": {
      "agent_name": {
        "original_name": "Agent Name",
        "value": "Fluorescein sodium",
        "links": [],
        "cross_references": [
          {
            "type": "name_match",
            "text": "sodium",
            "confidence": 1.0,
            "uuid": "1adffc42-a4d8-44d5-81d6-7dbd96ef8a6f",
            "name": "Sodium",
            "url": "https://haz-map.com/Agents/1527",
            "category": "agents"
          },
          {
            "type": "name_match",
            "text": "fluorescein",
            "confidence": 1.0,
            "uuid": "ce2748eb-e92d-4e58-802f-915861b9dd8e",
            "name": "Fluorescein",
            "url": "https://haz-map.com/Agents/5344",
            "category": "agents"
          },
          {
            "type": "name_match",
            "text": "fluorescein sodium",
            "confidence": 1.0,
            "uuid": "b34f85be-25f1-47c3-9051-61957a37a8e5",
            "name": "Fluorescein sodium",
            "url": "https://haz-map.com/Agents/18533",
            "category": "agents"
          }
        ]
      },
      "cas_number": {
        "original_name": "CAS Number",
        "value": "518-47-8",
        "links": [],
        "cross_references": []
      },
      "formula": {
        "original_name": "Formula",
        "value": "C20-H10-O5.2Na",
        "links": [],
        "cross_references": []
      },
      "major_category": {
        "original_name": "Major Category",
        "value": "Dyes",
        "links": [],
        "cross_references": []
      },
      "synonyms": {
        "original_name": "Synonyms",
        "value": "3',6'-Dihydroxyspiro(isobenzofuran-1(3H),9'-(9H)xanthen)-3-one, disodium salt; CI 45350; CI 45350 (Na salt); D & C Yellow No. 8; Disodium 2-(3-oxo-6-oxidoxanthen-9-yl)benzoate; Spiro(isobenzofuran-1(3H),9'-(9H)xanthen)-3-one, 3',6'-dihydroxy-, sodium salt (1:2); 11824 Yellow; 12417 Yellow; 9-o-Carboxyphenyl-6-hydroxy-3-isoxanthone, disodium salt; Acid Yellow 73; Aizen Uranine; Ak-Fluor; Basacid Yellow 226; C.I. 45350; C.I. Acid Yellow 73; Calcocid Uranine B4315; Certiqual Fluoresceine; D&C Yellow No. 8; Disodium 6-hydroxy-3-oxo-9-xanthene-o-benzoate; Fluor-I-Strip; Fluor-I-strip A.T.; Fluorescein LT; Fluorescein disodium salt; Fluorescein sodium B.P; Fluorescein, disodium salt; Fluorescein, soluble; Fluorescite; Flurenate; Ful-Glo; Funduscein; Funduscein-25; Furanium; Hidacid Uranine; Japan Yellow 202(1); Obiturine; Resorcinol phthalein sodium; Sodium fluorescein; Sodium fluoresceinate; Sodium salt of hydroxy-o-carboxy-phenyl-fluorone; Soluble Fluoresceine BPS; Soluble Fluorescein; Soluble Fluoresceine; Spiro(isobenzofuran-1(3H),9'-(9H)xanthen)-3-one, 3',6'-dihydroxy-, disodium salt; Uranin; Uranin A; Uranin S; Uranine; Uranine A; Uranine A Extra; Uranine O; Uranine SS; Uranine WSS; Uranine Yellow; [ChemIDplus]",
        "links": [],
        "cross_references": [
          {
            "type": "name_match",
            "text": "uranium",
            "confidence": 1.0,
            "uuid": "6790b1d5-8068-41c3-ad2c-112a904fbba8",
            "name": "Uranium",
            "url": "https://haz-map.com/Agents/43",
            "category": "agents"
          },
          {
            "type": "name_match",
            "text": "resorcinol",
            "confidence": 1.0,
            "uuid": "ae206fe4-b82a-4fe5-80a6-c479c171146e",
            "name": "Resorcinol",
            "url": "https://haz-map.com/Agents/617",
            "category": "agents"
          },
          {
            "type": "name_match",
            "text": "furan",
            "confidence": 1.0,
            "uuid": "96da3d2e-f46b-4100-9000-704d1a86985b",
            "name": "Furan",
            "url": "https://haz-map.com/Agents/1477",
            "category": "agents"
          },
          {
            "type": "name_match",
            "text": "sodium",
            "confidence": 1.0,
            "uuid": "1adffc42-a4d8-44d5-81d6-7dbd96ef8a6f",
            "name": "Sodium",
            "url": "https://haz-map.com/Agents/1527",
            "category": "agents"
          },
          {
            "type": "name_match",
            "text": "ht",
            "confidence": 1.0,
            "uuid": "764df367-8d53-4a11-81a2-31ccfe122a8d",
            "name": "HT",
            "url": "https://haz-map.com/Agents/2168",
            "category": "agents"
          },
          {
            "type": "name_match",
            "text": "benzofuran",
            "confidence": 1.0,
            "uuid": "433f9324-e799-4045-b9dc-d8468b9b9b05",
            "name": "Benzofuran",
            "url": "https://haz-map.com/Agents/3855",
            "category": "agents"
          },
          {
            "type": "name_match",
            "text": "fluorescein",
            "confidence": 1.0,
            "uuid": "ce2748eb-e92d-4e58-802f-915861b9dd8e",
            "name": "Fluorescein",
            "url": "https://haz-map.com/Agents/5344",
            "category": "agents"
          },
          {
            "type": "name_match",
            "text": "orcinol",
            "confidence": 1.0,
            "uuid": "ec7be405-d3a6-4ffe-a998-44bdf8777b2a",
            "name": "Orcinol",
            "url": "https://haz-map.com/Agents/16285",
            "category": "agents"
          },
          {
            "type": "name_match",
            "text": "fluorescein sodium",
            "confidence": 1.0,
            "uuid": "b34f85be-25f1-47c3-9051-61957a37a8e5",
            "name": "Fluorescein sodium",
            "url": "https://haz-map.com/Agents/18533",
            "category": "agents"
          },
          {
            "type": "name_match",
            "text": "xanthene",
            "confidence": 1.0,
            "uuid": "35deaaf9-5d82-459b-9ab4-655bfc7929e0",
            "name": "Xanthene",
            "url": "https://haz-map.com/Agents/18694",
            "category": "agents"
          }
        ]
      },
      "category": {
        "original_name": "Category",
        "value": "Other Dyes",
        "links": [],
        "cross_references": []
      },
      "description": {
        "original_name": "Description",
        "value": "Orange-red hygroscopic solid; [Merck Index] Dark red powder; [Sigma-Aldrich MSDS]",
        "links": [],
        "cross_references": []
      },
      "sourcesuses": {
        "original_name": "Sources/Uses",
        "value": "Used in analysis of subterranean waters, as a reagent (protein label, immunohistological stain, and immunofluorescent label), diagnostic aid (corneal abrasions), and for ophthalmic angiography and contact lens fitting; [Merck Index] Used as a marker for sea rescues, for dyeing silk and wool, to make fluorescent laminates, and in commercial antifreezes; [HSDB] Permitted for use as an inert ingredient in non-food pesticide products; [EPA]",
        "links": [],
        "cross_references": [
          {
            "type": "name_match",
            "text": "ht",
            "confidence": 1.0,
            "uuid": "764df367-8d53-4a11-81a2-31ccfe122a8d",
            "name": "HT",
            "url": "https://haz-map.com/Agents/2168",
            "category": "agents"
          },
          {
            "type": "name_match",
            "text": "water",
            "confidence": 1.0,
            "uuid": "6f2a7557-dfd2-49bc-9b4b-a93cd8e225d4",
            "name": "Water",
            "url": "https://haz-map.com/Agents/18668",
            "category": "agents"
          }
        ]
      },
      "comments": {
        "original_name": "Comments",
        "value": "Causes changes in motor activity, ataxia, and dyspnea in oral lethal-dose studies of mice and rats; [RTECS] A skin, eye, and respiratory tract irritant; [HSDB] May cause irritation; Targets the kidney; [Sigma-Aldrich MSDS] See \" Fluorescein.\"",
        "links": [],
        "cross_references": [
          {
            "type": "name_match",
            "text": "fluorescein",
            "confidence": 1.0,
            "uuid": "ce2748eb-e92d-4e58-802f-915861b9dd8e",
            "name": "Fluorescein",
            "url": "https://haz-map.com/Agents/5344",
            "category": "agents"
          }
        ]
      },
      "biomedical_references": {
        "original_name": "Biomedical References",
        "value": "Search PubMed",
        "links": [
          {
            "text": "Search PubMed",
            "url": "https://www.ncbi.nlm.nih.gov/pubmed?term=Fluorescein+sodium%20AND%20human%5Bmh%5D%20AND%20%28Occupational%20Diseases%20%5Bmh%5D%20OR%20Occupational%20Exposure%20%5Bmh%5D%29%20%20AND%20%28tox%5Bsb%5D%29&cmd=search"
          }
        ],
        "cross_references": []
      }
    },
    "exposure_assessment": {
      "vapor_pressure": {
        "original_name": "Vapor Pressure",
        "value": "1.6E-17 mm Hg",
        "links": [],
        "cross_references": []
      }
    },
    "diseases_processes_and_activities_linked_to_this_agent": {
      "processes": {
        "original_name": "Processes",
        "value": "Industrial Processes with risk of exposure: Textiles (Printing, Dyeing, or Finishing)",
        "links": [
          {
            "text": "Textiles (Printing, Dyeing, or Finishing)",
            "url": "https://haz-map.com/Processes/235"
          }
        ],
        "cross_references": []
      }
    }
  },
  "cross_references": [
    {
      "type": "name_match",
      "text": "uranium",
      "confidence": 1.0,
      "uuid": "6790b1d5-8068-41c3-ad2c-112a904fbba8",
      "name": "Uranium",
      "url": "https://haz-map.com/Agents/43",
      "category": "agents"
    },
    {
      "type": "name_match",
      "text": "resorcinol",
      "confidence": 1.0,
      "uuid": "ae206fe4-b82a-4fe5-80a6-c479c171146e",
      "name": "Resorcinol",
      "url": "https://haz-map.com/Agents/617",
      "category": "agents"
    },
    {
      "type": "name_match",
      "text": "furan",
      "confidence": 1.0,
      "uuid": "96da3d2e-f46b-4100-9000-704d1a86985b",
      "name": "Furan",
      "url": "https://haz-map.com/Agents/1477",
      "category": "agents"
    },
    {
      "type": "name_match",
      "text": "sodium",
      "confidence": 1.0,
      "uuid": "1adffc42-a4d8-44d5-81d6-7dbd96ef8a6f",
      "name": "Sodium",
      "url": "https://haz-map.com/Agents/1527",
      "category": "agents"
    },
    {
      "type": "name_match",
      "text": "ht",
      "confidence": 1.0,
      "uuid": "764df367-8d53-4a11-81a2-31ccfe122a8d",
      "name": "HT",
      "url": "https://haz-map.com/Agents/2168",
      "category": "agents"
    },
    {
      "type": "name_match",
      "text": "benzofuran",
      "confidence": 1.0,
      "uuid": "433f9324-e799-4045-b9dc-d8468b9b9b05",
      "name": "Benzofuran",
      "url": "https://haz-map.com/Agents/3855",
      "category": "agents"
    },
    {
      "type": "name_match",
      "text": "fluorescein",
      "confidence": 1.0,
      "uuid": "ce2748eb-e92d-4e58-802f-915861b9dd8e",
      "name": "Fluorescein",
      "url": "https://haz-map.com/Agents/5344",
      "category": "agents"
    },
    {
      "type": "name_match",
      "text": "orcinol",
      "confidence": 1.0,
      "uuid": "ec7be405-d3a6-4ffe-a998-44bdf8777b2a",
      "name": "Orcinol",
      "url": "https://haz-map.com/Agents/16285",
      "category": "agents"
    },
    {
      "type": "name_match",
      "text": "fluorescein sodium",
      "confidence": 1.0,
      "uuid": "b34f85be-25f1-47c3-9051-61957a37a8e5",
      "name": "Fluorescein sodium",
      "url": "https://haz-map.com/Agents/18533",
      "category": "agents"
    },
    {
      "type": "name_match",
      "text": "water",
      "confidence": 1.0,
      "uuid": "6f2a7557-dfd2-49bc-9b4b-a93cd8e225d4",
      "name": "Water",
      "url": "https://haz-map.com/Agents/18668",
      "category": "agents"
    },
    {
      "type": "name_match",
      "text": "xanthene",
      "confidence": 1.0,
      "uuid": "35deaaf9-5d82-459b-9ab4-655bfc7929e0",
      "name": "Xanthene",
      "url": "https://haz-map.com/Agents/18694",
      "category": "agents"
    }
  ],
  "all_links": [
    {
      "text": "Search PubMed",
      "url": "https://www.ncbi.nlm.nih.gov/pubmed?term=Fluorescein+sodium%20AND%20human%5Bmh%5D%20AND%20%28Occupational%20Diseases%20%5Bmh%5D%20OR%20Occupational%20Exposure%20%5Bmh%5D%29%20%20AND%20%28tox%5Bsb%5D%29&cmd=search"
    },
    {
      "text": "Textiles (Printing, Dyeing, or Finishing)",
      "url": "https://haz-map.com/Processes/235"
    }
  ]
}