{
  "metadata": {
    "scraped_from": "https://haz-map.com/Agents/6143",
    "entity_name": "Methyl salicylate",
    "category": "agents",
    "uuid": "b36c01da-b7d2-4733-83fe-09a6779b43c1",
    "scraped_at": "2025-07-23T19:58:58.032916"
  },
  "parsed_at": "2025-07-24T00:59:11.593918",
  "title": "Methyl salicylate",
  "sections": {
    "general": {
      "agent_name": {
        "original_name": "Agent Name",
        "value": "Methyl salicylate",
        "links": [],
        "cross_references": [
          {
            "type": "name_match",
            "text": "methyl salicylate",
            "confidence": 1.0,
            "uuid": "b36c01da-b7d2-4733-83fe-09a6779b43c1",
            "name": "Methyl salicylate",
            "url": "https://haz-map.com/Agents/6143",
            "category": "agents"
          },
          {
            "type": "name_match",
            "text": "ethyl salicylate",
            "confidence": 1.0,
            "uuid": "3a9399c8-7ab3-45a0-9fad-63d5ad887d60",
            "name": "Ethyl salicylate",
            "url": "https://haz-map.com/Agents/20792",
            "category": "agents"
          }
        ]
      },
      "cas_number": {
        "original_name": "CAS Number",
        "value": "119-36-8",
        "links": [],
        "cross_references": []
      },
      "formula": {
        "original_name": "Formula",
        "value": "C8-H8-O3",
        "links": [],
        "cross_references": []
      },
      "major_category": {
        "original_name": "Major Category",
        "value": "Other Uses",
        "links": [],
        "cross_references": []
      },
      "synonyms": {
        "original_name": "Synonyms",
        "value": "2-(Methoxycarbonyl)phenol; 2-Carbomethoxyphenol; 2-Hydroxybenzoic acid methyl ester; Analgit; Benzoic acid, 2-hydroxy-, methyl ester; Betula; Betula Lenta; Betula oil; Exagien; Flucarmit; Gaultheria oil; Gaultheria oil, artificial; Gaultheriaoel; Methyl 2-hydroxybenzoate; Methyl o-hydroxybenzoate; Methyl salicylate (natural); Methylester kyseliny salicylove [Czech]; Metylester kyseliny salicylove [Czech]; Natural wintergreen oil; Oil of wintergreen; Salicylic acid, methyl ester; Spicewood Oil; Sweet birch oil; Synthetic wintergreen oil; Teaberry oil; Wintergreen oil; Wintergreen oil, synthetic; Wintergruenoel; o-Hydroxybenzoic acid, methyl ester; [ChemIDplus]",
        "links": [],
        "cross_references": [
          {
            "type": "name_match",
            "text": "phenol",
            "confidence": 1.0,
            "uuid": "03141a03-a7df-4f51-9a37-adde1a7c4b31",
            "name": "Phenol",
            "url": "https://haz-map.com/Agents/84",
            "category": "agents"
          },
          {
            "type": "name_match",
            "text": "tea",
            "confidence": 1.0,
            "uuid": "773409e5-ac1a-4c9e-9470-9667ca82091c",
            "name": "Tea",
            "url": "https://haz-map.com/Agents/878",
            "category": "agents"
          },
          {
            "type": "name_match",
            "text": "benzoic acid",
            "confidence": 1.0,
            "uuid": "d2c5d3be-d826-4f55-bc32-7b16821aef40",
            "name": "Benzoic acid",
            "url": "https://haz-map.com/Agents/1883",
            "category": "agents"
          },
          {
            "type": "name_match",
            "text": "carbon",
            "confidence": 1.0,
            "uuid": "b53f8815-ee80-40ef-b4aa-3b000e17dab5",
            "name": "Carbon",
            "url": "https://haz-map.com/Agents/1891",
            "category": "agents"
          },
          {
            "type": "name_match",
            "text": "salicylic acid",
            "confidence": 1.0,
            "uuid": "8a628207-ea97-4f5a-8ad4-dce124203ade",
            "name": "Salicylic acid",
            "url": "https://haz-map.com/Agents/1914",
            "category": "agents"
          },
          {
            "type": "name_match",
            "text": "methyl salicylate",
            "confidence": 1.0,
            "uuid": "b36c01da-b7d2-4733-83fe-09a6779b43c1",
            "name": "Methyl salicylate",
            "url": "https://haz-map.com/Agents/6143",
            "category": "agents"
          },
          {
            "type": "name_match",
            "text": "hydroxybenzoic acid",
            "confidence": 1.0,
            "uuid": "c0fe1112-f757-4a77-a4ed-4b5a9997c734",
            "name": "Hydroxybenzoic acid",
            "url": "https://haz-map.com/Agents/14820",
            "category": "agents"
          },
          {
            "type": "name_match",
            "text": "ethyl salicylate",
            "confidence": 1.0,
            "uuid": "3a9399c8-7ab3-45a0-9fad-63d5ad887d60",
            "name": "Ethyl salicylate",
            "url": "https://haz-map.com/Agents/20792",
            "category": "agents"
          }
        ]
      },
      "category": {
        "original_name": "Category",
        "value": "Sunscreens",
        "links": [],
        "cross_references": [
          {
            "type": "name_match",
            "text": "sunscreens",
            "confidence": 1.0,
            "uuid": "7527d0ea-c1e0-4597-897e-e7f8794ae03b",
            "name": "SUNSCREENS",
            "url": "https://haz-map.com/Agents/1167",
            "category": "agents"
          }
        ]
      },
      "description": {
        "original_name": "Description",
        "value": "Colorless, yellow, or red liquid with a wintergreen odor; [HSDB] Clear slightly yellow-green liquid; [MSDSonline]",
        "links": [],
        "cross_references": [
          {
            "type": "name_match",
            "text": "ht",
            "confidence": 1.0,
            "uuid": "764df367-8d53-4a11-81a2-31ccfe122a8d",
            "name": "HT",
            "url": "https://haz-map.com/Agents/2168",
            "category": "agents"
          }
        ]
      },
      "sourcesuses": {
        "original_name": "Sources/Uses",
        "value": "Used as food flavor (restricted by FDA); [Hawley] Used as flavor, UV-absorber in sunscreens, fragrance, solvent (insecticides, polishes, and inks), antiseptic in oral hygiene products, dye carrier, UV light stabilizer in acrylic resins, and topical analgesic in human and veterinary medicine; [HSDB]",
        "links": [],
        "cross_references": [
          {
            "type": "name_match",
            "text": "sunscreens",
            "confidence": 1.0,
            "uuid": "7527d0ea-c1e0-4597-897e-e7f8794ae03b",
            "name": "SUNSCREENS",
            "url": "https://haz-map.com/Agents/1167",
            "category": "agents"
          },
          {
            "type": "name_match",
            "text": "ht",
            "confidence": 1.0,
            "uuid": "764df367-8d53-4a11-81a2-31ccfe122a8d",
            "name": "HT",
            "url": "https://haz-map.com/Agents/2168",
            "category": "agents"
          }
        ]
      },
      "comments": {
        "original_name": "Comments",
        "value": "A skin and eye irritant; Can be absorbed through skin; May have CNS adverse effects; [ICSC] A skin, eye, mucous membrane, and upper respiratory tract irritant; [CAMEO] A skin and eye irritant; [eChemPortal: ERMA] Included in list of \"established contact allergens in humans\"; [EC: Scientific Committee on Consumer Safety: Fragrance allergens in cosmetic products (2011)] An irritant; Can be absorbed through skin; May cause skin sensitization; Effects in poisoning cases include disturbance of acid-base balance, convulsions, and coma; [MSDSonline] See \"Acetylsalicylic acid.\"",
        "links": [],
        "cross_references": [
          {
            "type": "name_match",
            "text": "convulsion",
            "confidence": 1.0,
            "uuid": "af2c36f8-707a-48e3-a62b-1aa07adc9b72",
            "name": "convulsion",
            "url": "https://haz-map.com/Findings/14",
            "category": "findings"
          },
          {
            "type": "name_match",
            "text": "acetylsalicylic acid",
            "confidence": 1.0,
            "uuid": "7ee62de1-1976-4a3a-9bad-4d9924e1d4bd",
            "name": "Acetylsalicylic acid",
            "url": "https://haz-map.com/Agents/212",
            "category": "agents"
          },
          {
            "type": "name_match",
            "text": "salicylic acid",
            "confidence": 1.0,
            "uuid": "8a628207-ea97-4f5a-8ad4-dce124203ade",
            "name": "Salicylic acid",
            "url": "https://haz-map.com/Agents/1914",
            "category": "agents"
          }
        ]
      },
      "reference_link_1": {
        "original_name": "Reference Link #1",
        "value": "EPA Pesticide Chemical Search",
        "links": [
          {
            "text": "EPA Pesticide Chemical Search",
            "url": "https://iaspub.epa.gov/apex/pesticides/f?p=CHEMICALSEARCH:1:"
          }
        ],
        "cross_references": [
          {
            "type": "name_match",
            "text": "mica",
            "confidence": 1.0,
            "uuid": "433f26f1-c399-4596-b179-ce3843cfd465",
            "name": "Mica",
            "url": "https://haz-map.com/Agents/621",
            "category": "agents"
          }
        ]
      },
      "biomedical_references": {
        "original_name": "Biomedical References",
        "value": "Search PubMed",
        "links": [
          {
            "text": "Search PubMed",
            "url": "https://www.ncbi.nlm.nih.gov/pubmed?term=Methyl+salicylate%20AND%20human%5Bmh%5D%20AND%20%28Occupational%20Diseases%20%5Bmh%5D%20OR%20Occupational%20Exposure%20%5Bmh%5D%29%20%20AND%20%28tox%5Bsb%5D%29&cmd=search"
          }
        ],
        "cross_references": []
      }
    },
    "exposure_assessment": {
      "vapor_pressure": {
        "original_name": "Vapor Pressure",
        "value": "0.0343 mm Hg",
        "links": [],
        "cross_references": []
      },
      "explanatory_notes": {
        "original_name": "Explanatory Notes",
        "value": "VP from ChemIDplus;",
        "links": [],
        "cross_references": []
      },
      "nfpa": {
        "original_name": "NFPA",
        "value": "must be preheated",
        "links": [],
        "cross_references": []
      }
    },
    "adverse_effects": {
      "skin_sensitizer": {
        "original_name": "Skin Sensitizer",
        "value": "Yes",
        "links": [],
        "cross_references": []
      },
      "neurotoxin": {
        "original_name": "Neurotoxin",
        "value": "Other CNS neurotoxin",
        "links": [],
        "cross_references": []
      }
    },
    "diseases_processes_and_activities_linked_to_this_agent": {
      "diseases": {
        "original_name": "Diseases",
        "value": "Occupational diseases associated with exposure to this agent: Contact dermatitis, allergic",
        "links": [
          {
            "text": "Contact dermatitis, allergic",
            "url": "https://haz-map.com/Diseases/18"
          }
        ],
        "cross_references": [
          {
            "type": "url_match",
            "text": "Contact dermatitis, allergic",
            "url": "https://haz-map.com/Diseases/18",
            "confidence": 1.0,
            "uuid": "c9499de0-9aa1-41bf-8753-cd5b28a63e29",
            "name": "Contact dermatitis, allergic",
            "category": "diseases"
          },
          {
            "type": "name_match",
            "text": "dermatitis",
            "confidence": 1.0,
            "uuid": "fe9c05f2-b19f-4ceb-ac7a-ffb7d7a0cae0",
            "name": "dermatitis",
            "url": "https://haz-map.com/Findings/59",
            "category": "findings"
          }
        ]
      },
      "processes": {
        "original_name": "Processes",
        "value": "Industrial Processes with risk of exposure: Using Disinfectants or Biocides",
        "links": [
          {
            "text": "Using Disinfectants or Biocides",
            "url": "https://haz-map.com/Processes/167"
          }
        ],
        "cross_references": [
          {
            "type": "url_match",
            "text": "Using Disinfectants or Biocides",
            "url": "https://haz-map.com/Processes/167",
            "confidence": 1.0,
            "uuid": "7accb745-ad60-4ef8-9039-8ac4febb8fd8",
            "name": "Using Disinfectants or Biocides",
            "category": "processes"
          }
        ]
      }
    }
  },
  "cross_references": [
    {
      "type": "url_match",
      "text": "Contact dermatitis, allergic",
      "url": "https://haz-map.com/Diseases/18",
      "confidence": 1.0,
      "uuid": "c9499de0-9aa1-41bf-8753-cd5b28a63e29",
      "name": "Contact dermatitis, allergic",
      "category": "diseases"
    },
    {
      "type": "url_match",
      "text": "Using Disinfectants or Biocides",
      "url": "https://haz-map.com/Processes/167",
      "confidence": 1.0,
      "uuid": "7accb745-ad60-4ef8-9039-8ac4febb8fd8",
      "name": "Using Disinfectants or Biocides",
      "category": "processes"
    },
    {
      "type": "name_match",
      "text": "convulsion",
      "confidence": 1.0,
      "uuid": "af2c36f8-707a-48e3-a62b-1aa07adc9b72",
      "name": "convulsion",
      "url": "https://haz-map.com/Findings/14",
      "category": "findings"
    },
    {
      "type": "name_match",
      "text": "dermatitis",
      "confidence": 1.0,
      "uuid": "fe9c05f2-b19f-4ceb-ac7a-ffb7d7a0cae0",
      "name": "dermatitis",
      "url": "https://haz-map.com/Findings/59",
      "category": "findings"
    },
    {
      "type": "name_match",
      "text": "phenol",
      "confidence": 1.0,
      "uuid": "03141a03-a7df-4f51-9a37-adde1a7c4b31",
      "name": "Phenol",
      "url": "https://haz-map.com/Agents/84",
      "category": "agents"
    },
    {
      "type": "name_match",
      "text": "acetylsalicylic acid",
      "confidence": 1.0,
      "uuid": "7ee62de1-1976-4a3a-9bad-4d9924e1d4bd",
      "name": "Acetylsalicylic acid",
      "url": "https://haz-map.com/Agents/212",
      "category": "agents"
    },
    {
      "type": "name_match",
      "text": "mica",
      "confidence": 1.0,
      "uuid": "433f26f1-c399-4596-b179-ce3843cfd465",
      "name": "Mica",
      "url": "https://haz-map.com/Agents/621",
      "category": "agents"
    },
    {
      "type": "name_match",
      "text": "tea",
      "confidence": 1.0,
      "uuid": "773409e5-ac1a-4c9e-9470-9667ca82091c",
      "name": "Tea",
      "url": "https://haz-map.com/Agents/878",
      "category": "agents"
    },
    {
      "type": "name_match",
      "text": "sunscreens",
      "confidence": 1.0,
      "uuid": "7527d0ea-c1e0-4597-897e-e7f8794ae03b",
      "name": "SUNSCREENS",
      "url": "https://haz-map.com/Agents/1167",
      "category": "agents"
    },
    {
      "type": "name_match",
      "text": "benzoic acid",
      "confidence": 1.0,
      "uuid": "d2c5d3be-d826-4f55-bc32-7b16821aef40",
      "name": "Benzoic acid",
      "url": "https://haz-map.com/Agents/1883",
      "category": "agents"
    },
    {
      "type": "name_match",
      "text": "carbon",
      "confidence": 1.0,
      "uuid": "b53f8815-ee80-40ef-b4aa-3b000e17dab5",
      "name": "Carbon",
      "url": "https://haz-map.com/Agents/1891",
      "category": "agents"
    },
    {
      "type": "name_match",
      "text": "salicylic acid",
      "confidence": 1.0,
      "uuid": "8a628207-ea97-4f5a-8ad4-dce124203ade",
      "name": "Salicylic acid",
      "url": "https://haz-map.com/Agents/1914",
      "category": "agents"
    },
    {
      "type": "name_match",
      "text": "ht",
      "confidence": 1.0,
      "uuid": "764df367-8d53-4a11-81a2-31ccfe122a8d",
      "name": "HT",
      "url": "https://haz-map.com/Agents/2168",
      "category": "agents"
    },
    {
      "type": "name_match",
      "text": "methyl salicylate",
      "confidence": 1.0,
      "uuid": "b36c01da-b7d2-4733-83fe-09a6779b43c1",
      "name": "Methyl salicylate",
      "url": "https://haz-map.com/Agents/6143",
      "category": "agents"
    },
    {
      "type": "name_match",
      "text": "hydroxybenzoic acid",
      "confidence": 1.0,
      "uuid": "c0fe1112-f757-4a77-a4ed-4b5a9997c734",
      "name": "Hydroxybenzoic acid",
      "url": "https://haz-map.com/Agents/14820",
      "category": "agents"
    },
    {
      "type": "name_match",
      "text": "ethyl salicylate",
      "confidence": 1.0,
      "uuid": "3a9399c8-7ab3-45a0-9fad-63d5ad887d60",
      "name": "Ethyl salicylate",
      "url": "https://haz-map.com/Agents/20792",
      "category": "agents"
    }
  ],
  "all_links": [
    {
      "text": "EPA Pesticide Chemical Search",
      "url": "https://iaspub.epa.gov/apex/pesticides/f?p=CHEMICALSEARCH:1:"
    },
    {
      "text": "Search PubMed",
      "url": "https://www.ncbi.nlm.nih.gov/pubmed?term=Methyl+salicylate%20AND%20human%5Bmh%5D%20AND%20%28Occupational%20Diseases%20%5Bmh%5D%20OR%20Occupational%20Exposure%20%5Bmh%5D%29%20%20AND%20%28tox%5Bsb%5D%29&cmd=search"
    },
    {
      "text": "Contact dermatitis, allergic",
      "url": "https://haz-map.com/Diseases/18"
    },
    {
      "text": "Using Disinfectants or Biocides",
      "url": "https://haz-map.com/Processes/167"
    }
  ]
}