{
  "metadata": {
    "scraped_from": "https://haz-map.com/Agents/21347",
    "entity_name": "N-Nitrosophenmetrazine",
    "category": "agents",
    "uuid": "b3d224e8-8f0a-4d47-b741-8c1cca5d63fc",
    "scraped_at": "2025-07-23T22:42:17.599853"
  },
  "parsed_at": "2025-07-24T00:58:58.045290",
  "title": "N-Nitrosophenmetrazine",
  "sections": {
    "general": {
      "agent_name": {
        "original_name": "Agent Name",
        "value": "N-Nitrosophenmetrazine",
        "links": [],
        "cross_references": [
          {
            "type": "name_match",
            "text": "n-nitrosophenmetrazine",
            "confidence": 1.0,
            "uuid": "b3d224e8-8f0a-4d47-b741-8c1cca5d63fc",
            "name": "N-Nitrosophenmetrazine",
            "url": "https://haz-map.com/Agents/21347",
            "category": "agents"
          }
        ]
      },
      "cas_number": {
        "original_name": "CAS Number",
        "value": "34993-08-3",
        "links": [],
        "cross_references": []
      },
      "formula": {
        "original_name": "Formula",
        "value": "C11-H14-N2-O2",
        "links": [],
        "cross_references": []
      },
      "major_category": {
        "original_name": "Major Category",
        "value": "Nitrogen Compounds",
        "links": [],
        "cross_references": [
          {
            "type": "name_match",
            "text": "nitrogen",
            "confidence": 1.0,
            "uuid": "db5e90a9-06d2-45b9-8b81-f345a89b0bc0",
            "name": "Nitrogen",
            "url": "https://haz-map.com/Agents/1072",
            "category": "agents"
          }
        ]
      },
      "synonyms": {
        "original_name": "Synonyms",
        "value": "4-Nitroso-2-phenyl-3-methylmorpholine; N-Nitroso-2-phenyl-3-methylmorpholine; Morpholine, 3-methyl-4-nitroso-2-phenyl-; [ChemIDplus]",
        "links": [],
        "cross_references": [
          {
            "type": "name_match",
            "text": "morpholine",
            "confidence": 1.0,
            "uuid": "af6fb818-2e60-4cef-bb55-5972a728ae37",
            "name": "Morpholine",
            "url": "https://haz-map.com/Agents/565",
            "category": "agents"
          }
        ]
      },
      "category": {
        "original_name": "Category",
        "value": "Nitrosamines",
        "links": [],
        "cross_references": [
          {
            "type": "name_match",
            "text": "nitrosamines",
            "confidence": 1.0,
            "uuid": "71647706-f82f-4f7a-a1ad-2500c04c2ac0",
            "name": "NITROSAMINES",
            "url": "https://haz-map.com/Agents/767",
            "category": "agents"
          }
        ]
      },
      "comments": {
        "original_name": "Comments",
        "value": "See \"NITROSAMINES.\"",
        "links": [],
        "cross_references": [
          {
            "type": "name_match",
            "text": "nitrosamines",
            "confidence": 1.0,
            "uuid": "71647706-f82f-4f7a-a1ad-2500c04c2ac0",
            "name": "NITROSAMINES",
            "url": "https://haz-map.com/Agents/767",
            "category": "agents"
          }
        ]
      },
      "biomedical_references": {
        "original_name": "Biomedical References",
        "value": "Search PubMed",
        "links": [
          {
            "text": "Search PubMed",
            "url": "https://www.ncbi.nlm.nih.gov/pubmed?term=N-Nitrosophenmetrazine%20AND%20human%5Bmh%5D%20AND%20%28Occupational%20Diseases%20%5Bmh%5D%20OR%20Occupational%20Exposure%20%5Bmh%5D%29%20%20AND%20%28tox%5Bsb%5D%29&cmd=search"
          }
        ],
        "cross_references": []
      }
    },
    "exposure_assessment": {
      "vapor_pressure": {
        "original_name": "Vapor Pressure",
        "value": "5.89E-05 mm Hg",
        "links": [],
        "cross_references": []
      }
    },
    "diseases_processes_and_activities_linked_to_this_agent": {
      "other_information": {
        "original_name": "Other Information",
        "value": "No other related information on this agent was found.",
        "links": [],
        "cross_references": []
      }
    }
  },
  "cross_references": [
    {
      "type": "name_match",
      "text": "morpholine",
      "confidence": 1.0,
      "uuid": "af6fb818-2e60-4cef-bb55-5972a728ae37",
      "name": "Morpholine",
      "url": "https://haz-map.com/Agents/565",
      "category": "agents"
    },
    {
      "type": "name_match",
      "text": "nitrosamines",
      "confidence": 1.0,
      "uuid": "71647706-f82f-4f7a-a1ad-2500c04c2ac0",
      "name": "NITROSAMINES",
      "url": "https://haz-map.com/Agents/767",
      "category": "agents"
    },
    {
      "type": "name_match",
      "text": "nitrogen",
      "confidence": 1.0,
      "uuid": "db5e90a9-06d2-45b9-8b81-f345a89b0bc0",
      "name": "Nitrogen",
      "url": "https://haz-map.com/Agents/1072",
      "category": "agents"
    },
    {
      "type": "name_match",
      "text": "n-nitrosophenmetrazine",
      "confidence": 1.0,
      "uuid": "b3d224e8-8f0a-4d47-b741-8c1cca5d63fc",
      "name": "N-Nitrosophenmetrazine",
      "url": "https://haz-map.com/Agents/21347",
      "category": "agents"
    }
  ],
  "all_links": [
    {
      "text": "Search PubMed",
      "url": "https://www.ncbi.nlm.nih.gov/pubmed?term=N-Nitrosophenmetrazine%20AND%20human%5Bmh%5D%20AND%20%28Occupational%20Diseases%20%5Bmh%5D%20OR%20Occupational%20Exposure%20%5Bmh%5D%29%20%20AND%20%28tox%5Bsb%5D%29&cmd=search"
    }
  ]
}