{
  "metadata": {
    "scraped_from": "https://haz-map.com/Agents/16376",
    "entity_name": "POPOP",
    "category": "agents",
    "uuid": "b3e7370b-90f1-4890-af4f-a34be037f752",
    "scraped_at": "2025-07-23T21:36:52.547027"
  },
  "parsed_at": "2025-07-24T01:11:07.941731",
  "title": "POPOP",
  "sections": {
    "general": {
      "agent_name": {
        "original_name": "Agent Name",
        "value": "POPOP",
        "links": [],
        "cross_references": [
          {
            "type": "name_match",
            "text": "popop",
            "confidence": 1.0,
            "uuid": "b3e7370b-90f1-4890-af4f-a34be037f752",
            "name": "POPOP",
            "url": "https://haz-map.com/Agents/16376",
            "category": "agents"
          }
        ]
      },
      "cas_number": {
        "original_name": "CAS Number",
        "value": "1806-34-4",
        "links": [],
        "cross_references": []
      },
      "formula": {
        "original_name": "Formula",
        "value": "C24-H16-N2-O2",
        "links": [],
        "cross_references": []
      },
      "major_category": {
        "original_name": "Major Category",
        "value": "Dyes",
        "links": [],
        "cross_references": []
      },
      "synonyms": {
        "original_name": "Synonyms",
        "value": "1,4-Bis(5-phenyloxazol-2-yl)benzene; 2,2'-p-Phenylenebis(5-phenyloxazole); p-Bis(5-phenyloxazol-2-yl)benzene; Oxazole, 2,2'-(1,4-phenylene)bis(5-phenyl-; Oxazole, 2,2'-p-phenylenebis(5-phenyl- (8CI); [ChemIDplus] 1,4-Bis(5-phenyl-2-oxazolyl)benzene; [Sigma-Aldrich MSDS]",
        "links": [],
        "cross_references": [
          {
            "type": "name_match",
            "text": "benzene",
            "confidence": 1.0,
            "uuid": "b05124de-5f34-4c14-8f04-ccb20c3780d9",
            "name": "Benzene",
            "url": "https://haz-map.com/Agents/5",
            "category": "agents"
          }
        ]
      },
      "category": {
        "original_name": "Category",
        "value": "Other Dyes",
        "links": [],
        "cross_references": []
      },
      "description": {
        "original_name": "Description",
        "value": "Yellow crystalline solid; [Sigma-Aldrich MSDS]",
        "links": [],
        "cross_references": [
          {
            "type": "fuzzy_match",
            "text": "crystalline",
            "matched_name": "Silica, crystalline",
            "confidence": 0.7061403508771931,
            "uuid": "f920e8a2-46df-41b7-af8d-0368a777251e",
            "category": "agents",
            "url": "https://haz-map.com/Agents/427"
          }
        ]
      },
      "sourcesuses": {
        "original_name": "Sources/Uses",
        "value": "A scintillator (luminescent when stuck by ionizing radiation); [Wikipedia]",
        "links": [],
        "cross_references": []
      },
      "comments": {
        "original_name": "Comments",
        "value": "A strong eye irritant; Harmful by ingestion; [Sigma-Aldrich MSDS] See \"2-(4-Biphenylyl)-5-(4-tert-butylphenyl)-1,3,4-oxadiazole.\"",
        "links": [],
        "cross_references": [
          {
            "type": "name_match",
            "text": "biphenyl",
            "confidence": 1.0,
            "uuid": "740f90cb-888a-4a3b-b9ae-30768927fec2",
            "name": "Biphenyl",
            "url": "https://haz-map.com/Agents/306",
            "category": "agents"
          },
          {
            "type": "name_match",
            "text": "2-(4-biphenylyl)-5-(4-tert-butylphenyl)-1,3,4-oxadiazole",
            "confidence": 1.0,
            "uuid": "1db829c5-3071-4c71-a8f6-d73f36f6ee99",
            "name": "2-(4-Biphenylyl)-5-(4-tert-butylphenyl)-1,3,4-oxadiazole",
            "url": "https://haz-map.com/Agents/10489",
            "category": "agents"
          },
          {
            "type": "name_match",
            "text": "1,3,4-oxadiazole",
            "confidence": 1.0,
            "uuid": "0eeee215-7f6e-4e5d-853f-e96fe9ecdea6",
            "name": "1,3,4-Oxadiazole",
            "url": "https://haz-map.com/Agents/19224",
            "category": "agents"
          }
        ]
      },
      "biomedical_references": {
        "original_name": "Biomedical References",
        "value": "Search PubMed",
        "links": [
          {
            "text": "Search PubMed",
            "url": "https://www.ncbi.nlm.nih.gov/pubmed?term=POPOP%20AND%20human%5Bmh%5D%20AND%20%28Occupational%20Diseases%20%5Bmh%5D%20OR%20Occupational%20Exposure%20%5Bmh%5D%29%20%20AND%20%28tox%5Bsb%5D%29&cmd=search"
          }
        ],
        "cross_references": []
      }
    },
    "exposure_assessment": {
      "vapor_pressure": {
        "original_name": "Vapor Pressure",
        "value": "7.72E-12 mm Hg",
        "links": [],
        "cross_references": []
      }
    },
    "diseases_processes_and_activities_linked_to_this_agent": {
      "other_information": {
        "original_name": "Other Information",
        "value": "No other related information on this agent was found.",
        "links": [],
        "cross_references": []
      }
    }
  },
  "cross_references": [
    {
      "type": "name_match",
      "text": "benzene",
      "confidence": 1.0,
      "uuid": "b05124de-5f34-4c14-8f04-ccb20c3780d9",
      "name": "Benzene",
      "url": "https://haz-map.com/Agents/5",
      "category": "agents"
    },
    {
      "type": "name_match",
      "text": "biphenyl",
      "confidence": 1.0,
      "uuid": "740f90cb-888a-4a3b-b9ae-30768927fec2",
      "name": "Biphenyl",
      "url": "https://haz-map.com/Agents/306",
      "category": "agents"
    },
    {
      "type": "name_match",
      "text": "2-(4-biphenylyl)-5-(4-tert-butylphenyl)-1,3,4-oxadiazole",
      "confidence": 1.0,
      "uuid": "1db829c5-3071-4c71-a8f6-d73f36f6ee99",
      "name": "2-(4-Biphenylyl)-5-(4-tert-butylphenyl)-1,3,4-oxadiazole",
      "url": "https://haz-map.com/Agents/10489",
      "category": "agents"
    },
    {
      "type": "name_match",
      "text": "popop",
      "confidence": 1.0,
      "uuid": "b3e7370b-90f1-4890-af4f-a34be037f752",
      "name": "POPOP",
      "url": "https://haz-map.com/Agents/16376",
      "category": "agents"
    },
    {
      "type": "name_match",
      "text": "1,3,4-oxadiazole",
      "confidence": 1.0,
      "uuid": "0eeee215-7f6e-4e5d-853f-e96fe9ecdea6",
      "name": "1,3,4-Oxadiazole",
      "url": "https://haz-map.com/Agents/19224",
      "category": "agents"
    },
    {
      "type": "fuzzy_match",
      "text": "crystalline",
      "matched_name": "Silica, crystalline",
      "confidence": 0.7061403508771931,
      "uuid": "f920e8a2-46df-41b7-af8d-0368a777251e",
      "category": "agents",
      "url": "https://haz-map.com/Agents/427"
    }
  ],
  "all_links": [
    {
      "text": "Search PubMed",
      "url": "https://www.ncbi.nlm.nih.gov/pubmed?term=POPOP%20AND%20human%5Bmh%5D%20AND%20%28Occupational%20Diseases%20%5Bmh%5D%20OR%20Occupational%20Exposure%20%5Bmh%5D%29%20%20AND%20%28tox%5Bsb%5D%29&cmd=search"
    }
  ]
}