{
  "metadata": {
    "scraped_from": "https://haz-map.com/Agents/16939",
    "entity_name": "2-Methyl-1-nitropropane",
    "category": "agents",
    "uuid": "b3f8960b-6569-4ac1-a2b8-50602e74509d",
    "scraped_at": "2025-07-23T21:42:08.928082"
  },
  "parsed_at": "2025-07-24T01:01:04.565018",
  "title": "2-Methyl-1-nitropropane",
  "sections": {
    "general": {
      "agent_name": {
        "original_name": "Agent Name",
        "value": "2-Methyl-1-nitropropane",
        "links": [],
        "cross_references": [
          {
            "type": "name_match",
            "text": "1-nitropropane",
            "confidence": 1.0,
            "uuid": "d1158e6b-4bf6-4d67-99e0-1b0a6fcbdc1c",
            "name": "1-Nitropropane",
            "url": "https://haz-map.com/Agents/574",
            "category": "agents"
          },
          {
            "type": "name_match",
            "text": "propane",
            "confidence": 1.0,
            "uuid": "563a611b-46ea-4bdc-b77b-17d8f7646283",
            "name": "Propane",
            "url": "https://haz-map.com/Agents/607",
            "category": "agents"
          },
          {
            "type": "name_match",
            "text": "2-methyl-1-nitropropane",
            "confidence": 1.0,
            "uuid": "b3f8960b-6569-4ac1-a2b8-50602e74509d",
            "name": "2-Methyl-1-nitropropane",
            "url": "https://haz-map.com/Agents/16939",
            "category": "agents"
          }
        ]
      },
      "cas_number": {
        "original_name": "CAS Number",
        "value": "625-74-1",
        "links": [],
        "cross_references": []
      },
      "formula": {
        "original_name": "Formula",
        "value": "C4-H9-N-O2",
        "links": [],
        "cross_references": []
      },
      "major_category": {
        "original_name": "Major Category",
        "value": "Nitrogen Compounds",
        "links": [],
        "cross_references": [
          {
            "type": "name_match",
            "text": "nitrogen",
            "confidence": 1.0,
            "uuid": "db5e90a9-06d2-45b9-8b81-f345a89b0bc0",
            "name": "Nitrogen",
            "url": "https://haz-map.com/Agents/1072",
            "category": "agents"
          }
        ]
      },
      "synonyms": {
        "original_name": "Synonyms",
        "value": "Propane, 2-methyl-1-nitro-; [ChemIDplus]",
        "links": [],
        "cross_references": [
          {
            "type": "name_match",
            "text": "propane",
            "confidence": 1.0,
            "uuid": "563a611b-46ea-4bdc-b77b-17d8f7646283",
            "name": "Propane",
            "url": "https://haz-map.com/Agents/607",
            "category": "agents"
          }
        ]
      },
      "category": {
        "original_name": "Category",
        "value": "Nitros, Aliphatic",
        "links": [],
        "cross_references": []
      },
      "comments": {
        "original_name": "Comments",
        "value": "See \"1-Nitropropane.\"",
        "links": [],
        "cross_references": [
          {
            "type": "name_match",
            "text": "1-nitropropane",
            "confidence": 1.0,
            "uuid": "d1158e6b-4bf6-4d67-99e0-1b0a6fcbdc1c",
            "name": "1-Nitropropane",
            "url": "https://haz-map.com/Agents/574",
            "category": "agents"
          },
          {
            "type": "name_match",
            "text": "propane",
            "confidence": 1.0,
            "uuid": "563a611b-46ea-4bdc-b77b-17d8f7646283",
            "name": "Propane",
            "url": "https://haz-map.com/Agents/607",
            "category": "agents"
          }
        ]
      },
      "biomedical_references": {
        "original_name": "Biomedical References",
        "value": "Search PubMed",
        "links": [
          {
            "text": "Search PubMed",
            "url": "https://www.ncbi.nlm.nih.gov/pubmed?term=2-Methyl-1-nitropropane%20AND%20human%5Bmh%5D%20AND%20%28Occupational%20Diseases%20%5Bmh%5D%20OR%20Occupational%20Exposure%20%5Bmh%5D%29%20%20AND%20%28tox%5Bsb%5D%29&cmd=search"
          }
        ],
        "cross_references": []
      }
    },
    "exposure_assessment": {
      "vapor_pressure": {
        "original_name": "Vapor Pressure",
        "value": "6.88 mm Hg",
        "links": [],
        "cross_references": []
      }
    },
    "diseases_processes_and_activities_linked_to_this_agent": {
      "other_information": {
        "original_name": "Other Information",
        "value": "No other related information on this agent was found.",
        "links": [],
        "cross_references": []
      }
    }
  },
  "cross_references": [
    {
      "type": "name_match",
      "text": "1-nitropropane",
      "confidence": 1.0,
      "uuid": "d1158e6b-4bf6-4d67-99e0-1b0a6fcbdc1c",
      "name": "1-Nitropropane",
      "url": "https://haz-map.com/Agents/574",
      "category": "agents"
    },
    {
      "type": "name_match",
      "text": "propane",
      "confidence": 1.0,
      "uuid": "563a611b-46ea-4bdc-b77b-17d8f7646283",
      "name": "Propane",
      "url": "https://haz-map.com/Agents/607",
      "category": "agents"
    },
    {
      "type": "name_match",
      "text": "nitrogen",
      "confidence": 1.0,
      "uuid": "db5e90a9-06d2-45b9-8b81-f345a89b0bc0",
      "name": "Nitrogen",
      "url": "https://haz-map.com/Agents/1072",
      "category": "agents"
    },
    {
      "type": "name_match",
      "text": "2-methyl-1-nitropropane",
      "confidence": 1.0,
      "uuid": "b3f8960b-6569-4ac1-a2b8-50602e74509d",
      "name": "2-Methyl-1-nitropropane",
      "url": "https://haz-map.com/Agents/16939",
      "category": "agents"
    }
  ],
  "all_links": [
    {
      "text": "Search PubMed",
      "url": "https://www.ncbi.nlm.nih.gov/pubmed?term=2-Methyl-1-nitropropane%20AND%20human%5Bmh%5D%20AND%20%28Occupational%20Diseases%20%5Bmh%5D%20OR%20Occupational%20Exposure%20%5Bmh%5D%29%20%20AND%20%28tox%5Bsb%5D%29&cmd=search"
    }
  ]
}