{
  "metadata": {
    "scraped_from": "https://haz-map.com/Agents/9965",
    "entity_name": "2,7-Dinitrofluorenone",
    "category": "agents",
    "uuid": "b532fc86-3fa2-44fe-b165-932ed62b3c07",
    "scraped_at": "2025-07-23T20:43:27.164705"
  },
  "parsed_at": "2025-07-24T01:13:03.217275",
  "title": "2,7-Dinitrofluorenone",
  "sections": {
    "general": {
      "agent_name": {
        "original_name": "Agent Name",
        "value": "2,7-Dinitrofluorenone",
        "links": [],
        "cross_references": [
          {
            "type": "name_match",
            "text": "fluorenone",
            "confidence": 1.0,
            "uuid": "8b16a3fa-f22a-4819-ba74-755678e74be4",
            "name": "Fluorenone",
            "url": "https://haz-map.com/Agents/5343",
            "category": "agents"
          },
          {
            "type": "name_match",
            "text": "2,7-dinitrofluorenone",
            "confidence": 1.0,
            "uuid": "b532fc86-3fa2-44fe-b165-932ed62b3c07",
            "name": "2,7-Dinitrofluorenone",
            "url": "https://haz-map.com/Agents/9965",
            "category": "agents"
          }
        ]
      },
      "cas_number": {
        "original_name": "CAS Number",
        "value": "31551-45-8",
        "links": [],
        "cross_references": []
      },
      "formula": {
        "original_name": "Formula",
        "value": "C13-H6-N2-O5",
        "links": [],
        "cross_references": []
      },
      "major_category": {
        "original_name": "Major Category",
        "value": "Other Classes",
        "links": [],
        "cross_references": []
      },
      "synonyms": {
        "original_name": "Synonyms",
        "value": "2,7-Dinitro-9-fluorenone; 2,7-Dinitrofluoren-9-one; Fluoren-9-one, 2,7-dinitro-; 2,7-Dinitro-9H-fluoren-9-one; 9-Fluorenone, 2,7-dinitro-; 9H-Fluoren-9-one, 2,7-dinitro-; [ChemIDplus]",
        "links": [],
        "cross_references": [
          {
            "type": "name_match",
            "text": "fluorenone",
            "confidence": 1.0,
            "uuid": "8b16a3fa-f22a-4819-ba74-755678e74be4",
            "name": "Fluorenone",
            "url": "https://haz-map.com/Agents/5343",
            "category": "agents"
          }
        ]
      },
      "category": {
        "original_name": "Category",
        "value": "Polycyclic Aromatic Hydrocarbons",
        "links": [],
        "cross_references": [
          {
            "type": "name_match",
            "text": "polycyclic aromatic hydrocarbons",
            "confidence": 1.0,
            "uuid": "0f103271-339e-42e1-80e3-bf90a8be7084",
            "name": "POLYCYCLIC AROMATIC HYDROCARBONS",
            "url": "https://haz-map.com/Agents/720",
            "category": "agents"
          },
          {
            "type": "name_match",
            "text": "carbon",
            "confidence": 1.0,
            "uuid": "b53f8815-ee80-40ef-b4aa-3b000e17dab5",
            "name": "Carbon",
            "url": "https://haz-map.com/Agents/1891",
            "category": "agents"
          },
          {
            "type": "fuzzy_match",
            "text": "aromatic hydrocarbons",
            "matched_name": "Aromatic hydrocarbons, C9-C11",
            "confidence": 0.7509578544061303,
            "uuid": "1e86d79b-784d-40c4-8412-39a4432a7a75",
            "category": "agents",
            "url": "https://haz-map.com/Agents/20258"
          },
          {
            "type": "fuzzy_match",
            "text": "hydrocarbons",
            "matched_name": "Hydrocarbons, C>3",
            "confidence": 0.7100840336134454,
            "uuid": "8eaa37ac-3931-44e4-9242-2734127fd661",
            "category": "agents",
            "url": "https://haz-map.com/Agents/14795"
          }
        ]
      },
      "description": {
        "original_name": "Description",
        "value": "Light green solid; [CAMEO] Yellow to brown crystalline powder; [Acros Organics MSDS]",
        "links": [],
        "cross_references": [
          {
            "type": "name_match",
            "text": "ht",
            "confidence": 1.0,
            "uuid": "764df367-8d53-4a11-81a2-31ccfe122a8d",
            "name": "HT",
            "url": "https://haz-map.com/Agents/2168",
            "category": "agents"
          },
          {
            "type": "fuzzy_match",
            "text": "crystalline",
            "matched_name": "Silica, crystalline",
            "confidence": 0.7061403508771931,
            "uuid": "f920e8a2-46df-41b7-af8d-0368a777251e",
            "category": "agents",
            "url": "https://haz-map.com/Agents/427"
          }
        ]
      },
      "sourcesuses": {
        "original_name": "Sources/Uses",
        "value": "Used as a photo-conductor; [CAMEO]",
        "links": [],
        "cross_references": []
      },
      "comments": {
        "original_name": "Comments",
        "value": "An irritant; [Acros Organics MSDS] See \"1-Nitropyrene\"",
        "links": [],
        "cross_references": [
          {
            "type": "name_match",
            "text": "1-nitropyrene",
            "confidence": 1.0,
            "uuid": "a100ee60-4acc-4512-a16b-32b84ae739dd",
            "name": "1-Nitropyrene",
            "url": "https://haz-map.com/Agents/2911",
            "category": "agents"
          },
          {
            "type": "name_match",
            "text": "pyrene",
            "confidence": 1.0,
            "uuid": "42ce584a-71be-48d4-a37b-0b0a23822638",
            "name": "Pyrene",
            "url": "https://haz-map.com/Agents/7862",
            "category": "agents"
          }
        ]
      },
      "biomedical_references": {
        "original_name": "Biomedical References",
        "value": "Search PubMed",
        "links": [
          {
            "text": "Search PubMed",
            "url": "https://www.ncbi.nlm.nih.gov/pubmed?term=2%2c7-Dinitrofluorenone%20AND%20human%5Bmh%5D%20AND%20%28Occupational%20Diseases%20%5Bmh%5D%20OR%20Occupational%20Exposure%20%5Bmh%5D%29%20%20AND%20%28tox%5Bsb%5D%29&cmd=search"
          }
        ],
        "cross_references": []
      }
    },
    "exposure_assessment": {
      "vapor_pressure": {
        "original_name": "Vapor Pressure",
        "value": "1.46E-08 mm Hg",
        "links": [],
        "cross_references": []
      }
    },
    "diseases_processes_and_activities_linked_to_this_agent": {
      "other_information": {
        "original_name": "Other Information",
        "value": "No other related information on this agent was found.",
        "links": [],
        "cross_references": []
      }
    }
  },
  "cross_references": [
    {
      "type": "name_match",
      "text": "polycyclic aromatic hydrocarbons",
      "confidence": 1.0,
      "uuid": "0f103271-339e-42e1-80e3-bf90a8be7084",
      "name": "POLYCYCLIC AROMATIC HYDROCARBONS",
      "url": "https://haz-map.com/Agents/720",
      "category": "agents"
    },
    {
      "type": "name_match",
      "text": "carbon",
      "confidence": 1.0,
      "uuid": "b53f8815-ee80-40ef-b4aa-3b000e17dab5",
      "name": "Carbon",
      "url": "https://haz-map.com/Agents/1891",
      "category": "agents"
    },
    {
      "type": "name_match",
      "text": "ht",
      "confidence": 1.0,
      "uuid": "764df367-8d53-4a11-81a2-31ccfe122a8d",
      "name": "HT",
      "url": "https://haz-map.com/Agents/2168",
      "category": "agents"
    },
    {
      "type": "name_match",
      "text": "1-nitropyrene",
      "confidence": 1.0,
      "uuid": "a100ee60-4acc-4512-a16b-32b84ae739dd",
      "name": "1-Nitropyrene",
      "url": "https://haz-map.com/Agents/2911",
      "category": "agents"
    },
    {
      "type": "name_match",
      "text": "fluorenone",
      "confidence": 1.0,
      "uuid": "8b16a3fa-f22a-4819-ba74-755678e74be4",
      "name": "Fluorenone",
      "url": "https://haz-map.com/Agents/5343",
      "category": "agents"
    },
    {
      "type": "name_match",
      "text": "pyrene",
      "confidence": 1.0,
      "uuid": "42ce584a-71be-48d4-a37b-0b0a23822638",
      "name": "Pyrene",
      "url": "https://haz-map.com/Agents/7862",
      "category": "agents"
    },
    {
      "type": "name_match",
      "text": "2,7-dinitrofluorenone",
      "confidence": 1.0,
      "uuid": "b532fc86-3fa2-44fe-b165-932ed62b3c07",
      "name": "2,7-Dinitrofluorenone",
      "url": "https://haz-map.com/Agents/9965",
      "category": "agents"
    },
    {
      "type": "fuzzy_match",
      "text": "aromatic hydrocarbons",
      "matched_name": "Aromatic hydrocarbons, C9-C11",
      "confidence": 0.7509578544061303,
      "uuid": "1e86d79b-784d-40c4-8412-39a4432a7a75",
      "category": "agents",
      "url": "https://haz-map.com/Agents/20258"
    },
    {
      "type": "fuzzy_match",
      "text": "hydrocarbons",
      "matched_name": "Hydrocarbons, C>3",
      "confidence": 0.7100840336134454,
      "uuid": "8eaa37ac-3931-44e4-9242-2734127fd661",
      "category": "agents",
      "url": "https://haz-map.com/Agents/14795"
    },
    {
      "type": "fuzzy_match",
      "text": "crystalline",
      "matched_name": "Silica, crystalline",
      "confidence": 0.7061403508771931,
      "uuid": "f920e8a2-46df-41b7-af8d-0368a777251e",
      "category": "agents",
      "url": "https://haz-map.com/Agents/427"
    }
  ],
  "all_links": [
    {
      "text": "Search PubMed",
      "url": "https://www.ncbi.nlm.nih.gov/pubmed?term=2%2c7-Dinitrofluorenone%20AND%20human%5Bmh%5D%20AND%20%28Occupational%20Diseases%20%5Bmh%5D%20OR%20Occupational%20Exposure%20%5Bmh%5D%29%20%20AND%20%28tox%5Bsb%5D%29&cmd=search"
    }
  ]
}