{
  "metadata": {
    "scraped_from": "https://haz-map.com/Agents/1891",
    "entity_name": "Carbon",
    "category": "agents",
    "uuid": "b53f8815-ee80-40ef-b4aa-3b000e17dab5",
    "scraped_at": "2025-07-23T19:06:09.309374"
  },
  "parsed_at": "2025-07-24T00:57:28.743560",
  "title": "Carbon",
  "sections": {
    "general": {
      "agent_name": {
        "original_name": "Agent Name",
        "value": "Carbon",
        "links": [],
        "cross_references": [
          {
            "type": "name_match",
            "text": "carbon",
            "confidence": 1.0,
            "uuid": "b53f8815-ee80-40ef-b4aa-3b000e17dab5",
            "name": "Carbon",
            "url": "https://haz-map.com/Agents/1891",
            "category": "agents"
          }
        ]
      },
      "cas_number": {
        "original_name": "CAS Number",
        "value": "7440-44-0",
        "links": [],
        "cross_references": []
      },
      "formula": {
        "original_name": "Formula",
        "value": "C",
        "links": [],
        "cross_references": []
      },
      "major_category": {
        "original_name": "Major Category",
        "value": "Other Classes",
        "links": [],
        "cross_references": []
      },
      "synonyms": {
        "original_name": "Synonyms",
        "value": "AG 3 (Adsorbent); AG 5; AG 5 (Adsorbent); AK (Adsorbent); AR 3; ART 2; AU 3; Acticarbone; Activated carbon; Activated charcoal; Adsorbit; Amoco PX 21; Anthrasorb; Aqua nuchar; BAU; BG 6080; Black 140; Black pearls; CF 8; CF 8 (Carbon); CLF II; CMB 200; CMB 50; CUZ 3; CWN 2; Calcotone Black; Canesorb; Carbolac; Carbon; Carbon, colloidal; Carbon-12; Carbopol Extra; Carbopol M; Carbopol Z 4; Carbopol Z Extra; Carbosieve; Carbosorbit R; Cecarbon; Coke powder; Colgon BPL; Colgon PCB 12X30; Colgon PCB-D; Columbia LCK; Conductex; Darco; Filtrasorb; Filtrasorb 200; Filtrasorb 400; Grosafe; Hydrodarco; Irgalite 1104; Jado; K 257; MA 100 (Carbon); Norit; Nuchar; OU-B; Pelikan C 11/1431a; SKG; SKT; SKT (adsorbent); SU 2000; Suchar 681; Supersorbon IV; Supersorbon S 1; U 02; Watercarb; Witcarb 940; XE 340; XF 4175L; [ChemIDplus] UN1362 for \"Carbon, activated\"; [CHEMINFO]",
        "links": [],
        "cross_references": [
          {
            "type": "name_match",
            "text": "carbon",
            "confidence": 1.0,
            "uuid": "b53f8815-ee80-40ef-b4aa-3b000e17dab5",
            "name": "Carbon",
            "url": "https://haz-map.com/Agents/1891",
            "category": "agents"
          },
          {
            "type": "name_match",
            "text": "water",
            "confidence": 1.0,
            "uuid": "6f2a7557-dfd2-49bc-9b4b-a93cd8e225d4",
            "name": "Water",
            "url": "https://haz-map.com/Agents/18668",
            "category": "agents"
          }
        ]
      },
      "category": {
        "original_name": "Category",
        "value": "Elements, Nonmetallic",
        "links": [],
        "cross_references": []
      },
      "description": {
        "original_name": "Description",
        "value": "Black powder or crystals; [Sax]",
        "links": [],
        "cross_references": []
      },
      "sourcesuses": {
        "original_name": "Sources/Uses",
        "value": "Stable isotopes are C-12 (98.892%) and C-13 (1.108%) [Merck Index] Carbon is activated chemically or by steam. Activated carbon that is 99.9% pure is available. [CHEMINFO] Used in purifying metals, cleaning air, and as a pigment for rubber tires and inks; [HSDB]",
        "links": [],
        "cross_references": [
          {
            "type": "name_match",
            "text": "mica",
            "confidence": 1.0,
            "uuid": "433f26f1-c399-4596-b179-ce3843cfd465",
            "name": "Mica",
            "url": "https://haz-map.com/Agents/621",
            "category": "agents"
          },
          {
            "type": "name_match",
            "text": "tea",
            "confidence": 1.0,
            "uuid": "773409e5-ac1a-4c9e-9470-9667ca82091c",
            "name": "Tea",
            "url": "https://haz-map.com/Agents/878",
            "category": "agents"
          },
          {
            "type": "name_match",
            "text": "carbon",
            "confidence": 1.0,
            "uuid": "b53f8815-ee80-40ef-b4aa-3b000e17dab5",
            "name": "Carbon",
            "url": "https://haz-map.com/Agents/1891",
            "category": "agents"
          }
        ]
      },
      "comments": {
        "original_name": "Comments",
        "value": "Dust explosions are possible when the powder is mixed with air; [ICSC] Wet, activated carbon can remove oxygen from a confined space. [CHEMINFO] See \"Graphite, all forms except graphite fibers,\" \"Carbon black,\" \"Carbon nanotubes,\" and \"Carbon-14.\"",
        "links": [],
        "cross_references": [
          {
            "type": "name_match",
            "text": "carbon black",
            "confidence": 1.0,
            "uuid": "46b67d8f-e6e3-437c-83c9-036b40880f65",
            "name": "Carbon black",
            "url": "https://haz-map.com/Agents/342",
            "category": "agents"
          },
          {
            "type": "name_match",
            "text": "graphite, all forms except graphite fibers",
            "confidence": 1.0,
            "uuid": "e4620c88-ff8f-4ce1-838d-2c5a81ce26a6",
            "name": "Graphite, all forms except graphite fibers",
            "url": "https://haz-map.com/Agents/504",
            "category": "agents"
          },
          {
            "type": "name_match",
            "text": "oxygen",
            "confidence": 1.0,
            "uuid": "daf61849-c843-41a6-bdfb-880e4ee71d7f",
            "name": "Oxygen",
            "url": "https://haz-map.com/Agents/1564",
            "category": "agents"
          },
          {
            "type": "name_match",
            "text": "carbon-14",
            "confidence": 1.0,
            "uuid": "c3660da7-9fb0-42da-80cb-4cacceaf0e84",
            "name": "Carbon-14",
            "url": "https://haz-map.com/Agents/1828",
            "category": "agents"
          },
          {
            "type": "name_match",
            "text": "carbon",
            "confidence": 1.0,
            "uuid": "b53f8815-ee80-40ef-b4aa-3b000e17dab5",
            "name": "Carbon",
            "url": "https://haz-map.com/Agents/1891",
            "category": "agents"
          },
          {
            "type": "name_match",
            "text": "bes",
            "confidence": 1.0,
            "uuid": "3074c0ff-c637-46e9-9a00-5b14f02c2d53",
            "name": "BES",
            "url": "https://haz-map.com/Agents/15755",
            "category": "agents"
          },
          {
            "type": "fuzzy_match",
            "text": "graphite fibers",
            "matched_name": "Carbon/graphite fibers",
            "confidence": 0.7159090909090908,
            "uuid": "8ffecb94-3445-49e7-b49e-35924e972c77",
            "category": "agents",
            "url": "https://haz-map.com/Agents/1168"
          }
        ]
      },
      "biomedical_references": {
        "original_name": "Biomedical References",
        "value": "Search PubMed",
        "links": [
          {
            "text": "Search PubMed",
            "url": "https://www.ncbi.nlm.nih.gov/pubmed?term=Carbon%20AND%20human%5Bmh%5D%20AND%20%28Occupational%20Diseases%20%5Bmh%5D%20OR%20Occupational%20Exposure%20%5Bmh%5D%29%20%20AND%20%28tox%5Bsb%5D%29&cmd=search"
          }
        ],
        "cross_references": []
      }
    },
    "exposure_assessment": {
      "explanatory_notes": {
        "original_name": "Explanatory Notes",
        "value": "Melting point equals greater than 3500 deg C; [ICSC]",
        "links": [],
        "cross_references": []
      },
      "reference_link_2": {
        "original_name": "Reference Link #2",
        "value": "Focused actions to protect carbon nanotube workers.",
        "links": [
          {
            "text": "Focused actions to protect carbon nanotube workers.",
            "url": "http://www.ncbi.nlm.nih.gov/pubmed/22392774"
          }
        ],
        "cross_references": [
          {
            "type": "name_match",
            "text": "carbon",
            "confidence": 1.0,
            "uuid": "b53f8815-ee80-40ef-b4aa-3b000e17dab5",
            "name": "Carbon",
            "url": "https://haz-map.com/Agents/1891",
            "category": "agents"
          }
        ]
      }
    },
    "adverse_effects": {
      "fibrogenic": {
        "original_name": "Fibrogenic",
        "value": "Yes",
        "links": [],
        "cross_references": []
      }
    },
    "diseases_processes_and_activities_linked_to_this_agent": {
      "other_information": {
        "original_name": "Other Information",
        "value": "No other related information on this agent was found.",
        "links": [],
        "cross_references": []
      }
    }
  },
  "cross_references": [
    {
      "type": "name_match",
      "text": "carbon black",
      "confidence": 1.0,
      "uuid": "46b67d8f-e6e3-437c-83c9-036b40880f65",
      "name": "Carbon black",
      "url": "https://haz-map.com/Agents/342",
      "category": "agents"
    },
    {
      "type": "name_match",
      "text": "graphite, all forms except graphite fibers",
      "confidence": 1.0,
      "uuid": "e4620c88-ff8f-4ce1-838d-2c5a81ce26a6",
      "name": "Graphite, all forms except graphite fibers",
      "url": "https://haz-map.com/Agents/504",
      "category": "agents"
    },
    {
      "type": "name_match",
      "text": "mica",
      "confidence": 1.0,
      "uuid": "433f26f1-c399-4596-b179-ce3843cfd465",
      "name": "Mica",
      "url": "https://haz-map.com/Agents/621",
      "category": "agents"
    },
    {
      "type": "name_match",
      "text": "tea",
      "confidence": 1.0,
      "uuid": "773409e5-ac1a-4c9e-9470-9667ca82091c",
      "name": "Tea",
      "url": "https://haz-map.com/Agents/878",
      "category": "agents"
    },
    {
      "type": "name_match",
      "text": "oxygen",
      "confidence": 1.0,
      "uuid": "daf61849-c843-41a6-bdfb-880e4ee71d7f",
      "name": "Oxygen",
      "url": "https://haz-map.com/Agents/1564",
      "category": "agents"
    },
    {
      "type": "name_match",
      "text": "carbon-14",
      "confidence": 1.0,
      "uuid": "c3660da7-9fb0-42da-80cb-4cacceaf0e84",
      "name": "Carbon-14",
      "url": "https://haz-map.com/Agents/1828",
      "category": "agents"
    },
    {
      "type": "name_match",
      "text": "carbon",
      "confidence": 1.0,
      "uuid": "b53f8815-ee80-40ef-b4aa-3b000e17dab5",
      "name": "Carbon",
      "url": "https://haz-map.com/Agents/1891",
      "category": "agents"
    },
    {
      "type": "name_match",
      "text": "bes",
      "confidence": 1.0,
      "uuid": "3074c0ff-c637-46e9-9a00-5b14f02c2d53",
      "name": "BES",
      "url": "https://haz-map.com/Agents/15755",
      "category": "agents"
    },
    {
      "type": "name_match",
      "text": "water",
      "confidence": 1.0,
      "uuid": "6f2a7557-dfd2-49bc-9b4b-a93cd8e225d4",
      "name": "Water",
      "url": "https://haz-map.com/Agents/18668",
      "category": "agents"
    },
    {
      "type": "fuzzy_match",
      "text": "graphite fibers",
      "matched_name": "Carbon/graphite fibers",
      "confidence": 0.7159090909090908,
      "uuid": "8ffecb94-3445-49e7-b49e-35924e972c77",
      "category": "agents",
      "url": "https://haz-map.com/Agents/1168"
    }
  ],
  "all_links": [
    {
      "text": "Search PubMed",
      "url": "https://www.ncbi.nlm.nih.gov/pubmed?term=Carbon%20AND%20human%5Bmh%5D%20AND%20%28Occupational%20Diseases%20%5Bmh%5D%20OR%20Occupational%20Exposure%20%5Bmh%5D%29%20%20AND%20%28tox%5Bsb%5D%29&cmd=search"
    },
    {
      "text": "Focused actions to protect carbon nanotube workers.",
      "url": "http://www.ncbi.nlm.nih.gov/pubmed/22392774"
    }
  ]
}