{
  "metadata": {
    "scraped_from": "https://haz-map.com/Agents/12528",
    "entity_name": "cis-1,3-Dimethylcyclohexane",
    "category": "agents",
    "uuid": "b5a24d3c-9802-4996-b090-25c07d2ae21f",
    "scraped_at": "2025-07-23T21:08:29.038072"
  },
  "parsed_at": "2025-07-24T01:19:24.544818",
  "title": "cis-1,3-Dimethylcyclohexane",
  "sections": {
    "general": {
      "agent_name": {
        "original_name": "Agent Name",
        "value": "cis-1,3-Dimethylcyclohexane",
        "links": [],
        "cross_references": [
          {
            "type": "name_match",
            "text": "cyclohexane",
            "confidence": 1.0,
            "uuid": "366fabd7-ac2f-461c-969f-62dfe3bf2377",
            "name": "Cyclohexane",
            "url": "https://haz-map.com/Agents/384",
            "category": "agents"
          },
          {
            "type": "name_match",
            "text": "methylcyclohexane",
            "confidence": 1.0,
            "uuid": "958aa4b7-cbdf-4756-82f7-6b627d212422",
            "name": "Methylcyclohexane",
            "url": "https://haz-map.com/Agents/557",
            "category": "agents"
          },
          {
            "type": "name_match",
            "text": "ethylcyclohexane",
            "confidence": 1.0,
            "uuid": "69a79758-f136-47c2-86d8-130b138f4a83",
            "name": "Ethylcyclohexane",
            "url": "https://haz-map.com/Agents/8339",
            "category": "agents"
          },
          {
            "type": "name_match",
            "text": "1,3-dimethylcyclohexane",
            "confidence": 1.0,
            "uuid": "37dd6f30-7b07-4245-a994-53c37e1d51af",
            "name": "1,3-Dimethylcyclohexane",
            "url": "https://haz-map.com/Agents/9489",
            "category": "agents"
          },
          {
            "type": "name_match",
            "text": "cis-1,3-dimethylcyclohexane",
            "confidence": 1.0,
            "uuid": "b5a24d3c-9802-4996-b090-25c07d2ae21f",
            "name": "cis-1,3-Dimethylcyclohexane",
            "url": "https://haz-map.com/Agents/12528",
            "category": "agents"
          }
        ]
      },
      "cas_number": {
        "original_name": "CAS Number",
        "value": "638-04-0",
        "links": [],
        "cross_references": []
      },
      "formula": {
        "original_name": "Formula",
        "value": "C8-H16",
        "links": [],
        "cross_references": []
      },
      "major_category": {
        "original_name": "Major Category",
        "value": "Solvents",
        "links": [],
        "cross_references": []
      },
      "synonyms": {
        "original_name": "Synonyms",
        "value": "Cyclohexane, 1,3-dimethyl-, cis- (8CI)(9CI); [ChemIDplus]",
        "links": [],
        "cross_references": [
          {
            "type": "name_match",
            "text": "cyclohexane",
            "confidence": 1.0,
            "uuid": "366fabd7-ac2f-461c-969f-62dfe3bf2377",
            "name": "Cyclohexane",
            "url": "https://haz-map.com/Agents/384",
            "category": "agents"
          }
        ]
      },
      "category": {
        "original_name": "Category",
        "value": "Aliphatics, Saturated (<C12)",
        "links": [],
        "cross_references": []
      },
      "description": {
        "original_name": "Description",
        "value": "Clear colorless liquid with an odor like hexane; [Acros Organics MSDS]",
        "links": [],
        "cross_references": []
      },
      "comments": {
        "original_name": "Comments",
        "value": "A skin irritant; May cause CNS depression; [Acros Organics MSDS]",
        "links": [],
        "cross_references": []
      },
      "biomedical_references": {
        "original_name": "Biomedical References",
        "value": "Search PubMed",
        "links": [
          {
            "text": "Search PubMed",
            "url": "https://www.ncbi.nlm.nih.gov/pubmed?term=cis-1%2c3-Dimethylcyclohexane%20AND%20human%5Bmh%5D%20AND%20%28Occupational%20Diseases%20%5Bmh%5D%20OR%20Occupational%20Exposure%20%5Bmh%5D%29%20%20AND%20%28tox%5Bsb%5D%29&cmd=search"
          }
        ],
        "cross_references": []
      }
    },
    "exposure_assessment": {
      "vapor_pressure": {
        "original_name": "Vapor Pressure",
        "value": "21.5 mm Hg",
        "links": [],
        "cross_references": []
      },
      "explanatory_notes": {
        "original_name": "Explanatory Notes",
        "value": "VP from ChemIDplus;",
        "links": [],
        "cross_references": []
      }
    },
    "adverse_effects": {
      "neurotoxin": {
        "original_name": "Neurotoxin",
        "value": "Acute solvent syndrome",
        "links": [],
        "cross_references": []
      }
    },
    "diseases_processes_and_activities_linked_to_this_agent": {
      "diseases": {
        "original_name": "Diseases",
        "value": "Occupational diseases associated with exposure to this agent: Solvents, acute toxic effect",
        "links": [
          {
            "text": "Solvents, acute toxic effect",
            "url": "https://haz-map.com/Diseases/326"
          }
        ],
        "cross_references": [
          {
            "type": "url_match",
            "text": "Solvents, acute toxic effect",
            "url": "https://haz-map.com/Diseases/326",
            "confidence": 1.0,
            "uuid": "581e90e3-9d0c-45f0-aa6c-3468c28da129",
            "name": "Solvents, acute toxic effect",
            "category": "diseases"
          }
        ]
      }
    }
  },
  "cross_references": [
    {
      "type": "url_match",
      "text": "Solvents, acute toxic effect",
      "url": "https://haz-map.com/Diseases/326",
      "confidence": 1.0,
      "uuid": "581e90e3-9d0c-45f0-aa6c-3468c28da129",
      "name": "Solvents, acute toxic effect",
      "category": "diseases"
    },
    {
      "type": "name_match",
      "text": "cyclohexane",
      "confidence": 1.0,
      "uuid": "366fabd7-ac2f-461c-969f-62dfe3bf2377",
      "name": "Cyclohexane",
      "url": "https://haz-map.com/Agents/384",
      "category": "agents"
    },
    {
      "type": "name_match",
      "text": "methylcyclohexane",
      "confidence": 1.0,
      "uuid": "958aa4b7-cbdf-4756-82f7-6b627d212422",
      "name": "Methylcyclohexane",
      "url": "https://haz-map.com/Agents/557",
      "category": "agents"
    },
    {
      "type": "name_match",
      "text": "ethylcyclohexane",
      "confidence": 1.0,
      "uuid": "69a79758-f136-47c2-86d8-130b138f4a83",
      "name": "Ethylcyclohexane",
      "url": "https://haz-map.com/Agents/8339",
      "category": "agents"
    },
    {
      "type": "name_match",
      "text": "1,3-dimethylcyclohexane",
      "confidence": 1.0,
      "uuid": "37dd6f30-7b07-4245-a994-53c37e1d51af",
      "name": "1,3-Dimethylcyclohexane",
      "url": "https://haz-map.com/Agents/9489",
      "category": "agents"
    },
    {
      "type": "name_match",
      "text": "cis-1,3-dimethylcyclohexane",
      "confidence": 1.0,
      "uuid": "b5a24d3c-9802-4996-b090-25c07d2ae21f",
      "name": "cis-1,3-Dimethylcyclohexane",
      "url": "https://haz-map.com/Agents/12528",
      "category": "agents"
    }
  ],
  "all_links": [
    {
      "text": "Search PubMed",
      "url": "https://www.ncbi.nlm.nih.gov/pubmed?term=cis-1%2c3-Dimethylcyclohexane%20AND%20human%5Bmh%5D%20AND%20%28Occupational%20Diseases%20%5Bmh%5D%20OR%20Occupational%20Exposure%20%5Bmh%5D%29%20%20AND%20%28tox%5Bsb%5D%29&cmd=search"
    },
    {
      "text": "Solvents, acute toxic effect",
      "url": "https://haz-map.com/Diseases/326"
    }
  ]
}