{
  "metadata": {
    "scraped_from": "https://haz-map.com/Agents/5179",
    "entity_name": "Ethyl N-phenylcarbamate",
    "category": "agents",
    "uuid": "b5d3e153-2341-4e79-877d-5421d9859f13",
    "scraped_at": "2025-07-23T19:49:49.671454"
  },
  "parsed_at": "2025-07-24T01:02:15.619885",
  "title": "Ethyl N-phenylcarbamate",
  "sections": {
    "general": {
      "agent_name": {
        "original_name": "Agent Name",
        "value": "Ethyl N-phenylcarbamate",
        "links": [],
        "cross_references": [
          {
            "type": "name_match",
            "text": "ethyl n-phenylcarbamate",
            "confidence": 1.0,
            "uuid": "b5d3e153-2341-4e79-877d-5421d9859f13",
            "name": "Ethyl N-phenylcarbamate",
            "url": "https://haz-map.com/Agents/5179",
            "category": "agents"
          }
        ]
      },
      "alternative_name": {
        "original_name": "Alternative Name",
        "value": "Phenylurethan(e)",
        "links": [],
        "cross_references": []
      },
      "cas_number": {
        "original_name": "CAS Number",
        "value": "101-99-5",
        "links": [],
        "cross_references": []
      },
      "formula": {
        "original_name": "Formula",
        "value": "C9-H11-N-O2",
        "links": [],
        "cross_references": []
      },
      "major_category": {
        "original_name": "Major Category",
        "value": "Pesticides",
        "links": [],
        "cross_references": []
      },
      "synonyms": {
        "original_name": "Synonyms",
        "value": "Phenylurethan(e); Carbamic acid, phenyl-, ethyl ester; Carbanilic acid, ethyl ester; EPC (the plant regulator); Ethyl N-phenylurethan; Ethyl N-phenylurethane; Ethyl carbanilate; Ethyl phenylcarbamate; Ethylester kyseliny karbanilove [Czech]; Euphorin; Keimstop; N-(Ethoxycarbonyl)aniline; N-Phenylurethane; Phenylethyl carbamate; Phenylurethan; Phenylurethane; Urethan, phenyl-; Urethane, phenyl-; [ChemIDplus]",
        "links": [],
        "cross_references": [
          {
            "type": "name_match",
            "text": "aniline",
            "confidence": 1.0,
            "uuid": "e4932692-8d9c-4a98-8c5c-81e55b12aedf",
            "name": "Aniline",
            "url": "https://haz-map.com/Agents/296",
            "category": "agents"
          },
          {
            "type": "name_match",
            "text": "ethane",
            "confidence": 1.0,
            "uuid": "5162cc8c-dfb9-4060-81ac-38a8cec7f9dd",
            "name": "Ethane",
            "url": "https://haz-map.com/Agents/1075",
            "category": "agents"
          },
          {
            "type": "name_match",
            "text": "carbon",
            "confidence": 1.0,
            "uuid": "b53f8815-ee80-40ef-b4aa-3b000e17dab5",
            "name": "Carbon",
            "url": "https://haz-map.com/Agents/1891",
            "category": "agents"
          },
          {
            "type": "name_match",
            "text": "urethane",
            "confidence": 1.0,
            "uuid": "6405f173-6b8a-4d9b-a282-a1a6bf6901fd",
            "name": "Urethane",
            "url": "https://haz-map.com/Agents/2032",
            "category": "agents"
          }
        ]
      },
      "category": {
        "original_name": "Category",
        "value": "Plant Growth Regulators",
        "links": [],
        "cross_references": []
      },
      "description": {
        "original_name": "Description",
        "value": "White solid; [Merck Index]",
        "links": [],
        "cross_references": []
      },
      "sourcesuses": {
        "original_name": "Sources/Uses",
        "value": "Used as plant growth regulator (formerly in the US), chemical intermediate, and research chemical (experimental neoplastic agent and citrus fungicide); [HSDB]",
        "links": [],
        "cross_references": [
          {
            "type": "name_match",
            "text": "mica",
            "confidence": 1.0,
            "uuid": "433f26f1-c399-4596-b179-ce3843cfd465",
            "name": "Mica",
            "url": "https://haz-map.com/Agents/621",
            "category": "agents"
          },
          {
            "type": "name_match",
            "text": "fungi",
            "confidence": 1.0,
            "uuid": "e0d489cb-bfee-4aee-b665-999c017268a2",
            "name": "Fungi",
            "url": "https://haz-map.com/Agents/1988",
            "category": "agents"
          }
        ]
      },
      "comments": {
        "original_name": "Comments",
        "value": "Emergency treatment is for \"other herbicides\" and includes skin decontamination and supportive measures; [HSDB] May cause irritation; [MSDSonline]",
        "links": [],
        "cross_references": [
          {
            "type": "name_match",
            "text": "herbicides",
            "confidence": 1.0,
            "uuid": "195f29ae-3f15-47c5-836d-0a9791db3fc1",
            "name": "HERBICIDES",
            "url": "https://haz-map.com/Agents/703",
            "category": "agents"
          }
        ]
      },
      "biomedical_references": {
        "original_name": "Biomedical References",
        "value": "Search PubMed",
        "links": [
          {
            "text": "Search PubMed",
            "url": "https://www.ncbi.nlm.nih.gov/pubmed?term=Ethyl+N-phenylcarbamate%20AND%20human%5Bmh%5D%20AND%20%28Occupational%20Diseases%20%5Bmh%5D%20OR%20Occupational%20Exposure%20%5Bmh%5D%29%20%20AND%20%28tox%5Bsb%5D%29&cmd=search"
          }
        ],
        "cross_references": []
      }
    },
    "exposure_assessment": {
      "vapor_pressure": {
        "original_name": "Vapor Pressure",
        "value": "0.021 mm Hg",
        "links": [],
        "cross_references": []
      },
      "explanatory_notes": {
        "original_name": "Explanatory Notes",
        "value": "VP from ChemIDplus;",
        "links": [],
        "cross_references": []
      }
    },
    "diseases_processes_and_activities_linked_to_this_agent": {
      "processes": {
        "original_name": "Processes",
        "value": "Industrial Processes with risk of exposure: Farming (Pesticides)",
        "links": [
          {
            "text": "Farming (Pesticides)",
            "url": "https://haz-map.com/Processes/218"
          }
        ],
        "cross_references": [
          {
            "type": "url_match",
            "text": "Farming (Pesticides)",
            "url": "https://haz-map.com/Processes/218",
            "confidence": 1.0,
            "uuid": "cf1e5815-c9bb-4917-82a5-391848170b7e",
            "name": "Farming (Pesticides)",
            "category": "processes"
          }
        ]
      }
    }
  },
  "cross_references": [
    {
      "type": "url_match",
      "text": "Farming (Pesticides)",
      "url": "https://haz-map.com/Processes/218",
      "confidence": 1.0,
      "uuid": "cf1e5815-c9bb-4917-82a5-391848170b7e",
      "name": "Farming (Pesticides)",
      "category": "processes"
    },
    {
      "type": "name_match",
      "text": "aniline",
      "confidence": 1.0,
      "uuid": "e4932692-8d9c-4a98-8c5c-81e55b12aedf",
      "name": "Aniline",
      "url": "https://haz-map.com/Agents/296",
      "category": "agents"
    },
    {
      "type": "name_match",
      "text": "mica",
      "confidence": 1.0,
      "uuid": "433f26f1-c399-4596-b179-ce3843cfd465",
      "name": "Mica",
      "url": "https://haz-map.com/Agents/621",
      "category": "agents"
    },
    {
      "type": "name_match",
      "text": "herbicides",
      "confidence": 1.0,
      "uuid": "195f29ae-3f15-47c5-836d-0a9791db3fc1",
      "name": "HERBICIDES",
      "url": "https://haz-map.com/Agents/703",
      "category": "agents"
    },
    {
      "type": "name_match",
      "text": "ethane",
      "confidence": 1.0,
      "uuid": "5162cc8c-dfb9-4060-81ac-38a8cec7f9dd",
      "name": "Ethane",
      "url": "https://haz-map.com/Agents/1075",
      "category": "agents"
    },
    {
      "type": "name_match",
      "text": "carbon",
      "confidence": 1.0,
      "uuid": "b53f8815-ee80-40ef-b4aa-3b000e17dab5",
      "name": "Carbon",
      "url": "https://haz-map.com/Agents/1891",
      "category": "agents"
    },
    {
      "type": "name_match",
      "text": "fungi",
      "confidence": 1.0,
      "uuid": "e0d489cb-bfee-4aee-b665-999c017268a2",
      "name": "Fungi",
      "url": "https://haz-map.com/Agents/1988",
      "category": "agents"
    },
    {
      "type": "name_match",
      "text": "urethane",
      "confidence": 1.0,
      "uuid": "6405f173-6b8a-4d9b-a282-a1a6bf6901fd",
      "name": "Urethane",
      "url": "https://haz-map.com/Agents/2032",
      "category": "agents"
    },
    {
      "type": "name_match",
      "text": "ethyl n-phenylcarbamate",
      "confidence": 1.0,
      "uuid": "b5d3e153-2341-4e79-877d-5421d9859f13",
      "name": "Ethyl N-phenylcarbamate",
      "url": "https://haz-map.com/Agents/5179",
      "category": "agents"
    }
  ],
  "all_links": [
    {
      "text": "Search PubMed",
      "url": "https://www.ncbi.nlm.nih.gov/pubmed?term=Ethyl+N-phenylcarbamate%20AND%20human%5Bmh%5D%20AND%20%28Occupational%20Diseases%20%5Bmh%5D%20OR%20Occupational%20Exposure%20%5Bmh%5D%29%20%20AND%20%28tox%5Bsb%5D%29&cmd=search"
    },
    {
      "text": "Farming (Pesticides)",
      "url": "https://haz-map.com/Processes/218"
    }
  ]
}