{
  "metadata": {
    "scraped_from": "https://haz-map.com/Agents/19242",
    "entity_name": "1,3-Cyclooctadiene",
    "category": "agents",
    "uuid": "b612697a-7475-426a-8d28-7b866bf9c3d4",
    "scraped_at": "2025-07-23T22:02:08.678711"
  },
  "parsed_at": "2025-07-24T01:00:53.831127",
  "title": "1,3-Cyclooctadiene",
  "sections": {
    "general": {
      "agent_name": {
        "original_name": "Agent Name",
        "value": "1,3-Cyclooctadiene",
        "links": [],
        "cross_references": [
          {
            "type": "name_match",
            "text": "octadiene",
            "confidence": 1.0,
            "uuid": "1c5a8b36-be1a-4a27-beee-c85bdd9789c7",
            "name": "Octadiene",
            "url": "https://haz-map.com/Agents/16220",
            "category": "agents"
          },
          {
            "type": "name_match",
            "text": "1,3-cyclooctadiene",
            "confidence": 1.0,
            "uuid": "b612697a-7475-426a-8d28-7b866bf9c3d4",
            "name": "1,3-Cyclooctadiene",
            "url": "https://haz-map.com/Agents/19242",
            "category": "agents"
          }
        ]
      },
      "cas_number": {
        "original_name": "CAS Number",
        "value": "1700-10-3",
        "links": [],
        "cross_references": []
      },
      "formula": {
        "original_name": "Formula",
        "value": "C8-H12",
        "links": [],
        "cross_references": []
      },
      "major_category": {
        "original_name": "Major Category",
        "value": "Other Classes",
        "links": [],
        "cross_references": []
      },
      "category": {
        "original_name": "Category",
        "value": "Aliphatics, Unsaturated",
        "links": [],
        "cross_references": []
      },
      "description": {
        "original_name": "Description",
        "value": "Colorless liquid; [Alfa Aesar MSDS]",
        "links": [],
        "cross_references": []
      },
      "comments": {
        "original_name": "Comments",
        "value": "A skin and strong eye irritant; An aspiration hazard by ingestion (may cause lung injury); [Alfa Aesar MSDS] See \"1,5-Cyclooctadiene.\"",
        "links": [],
        "cross_references": [
          {
            "type": "name_match",
            "text": "1,5-cyclooctadiene",
            "confidence": 1.0,
            "uuid": "668cc648-7db8-4108-9e44-da73ab927dff",
            "name": "1,5-Cyclooctadiene",
            "url": "https://haz-map.com/Agents/2214",
            "category": "agents"
          },
          {
            "type": "name_match",
            "text": "octadiene",
            "confidence": 1.0,
            "uuid": "1c5a8b36-be1a-4a27-beee-c85bdd9789c7",
            "name": "Octadiene",
            "url": "https://haz-map.com/Agents/16220",
            "category": "agents"
          }
        ]
      },
      "biomedical_references": {
        "original_name": "Biomedical References",
        "value": "Search PubMed",
        "links": [
          {
            "text": "Search PubMed",
            "url": "https://www.ncbi.nlm.nih.gov/pubmed?term=1%2c3-Cyclooctadiene%20AND%20human%5Bmh%5D%20AND%20%28Occupational%20Diseases%20%5Bmh%5D%20OR%20Occupational%20Exposure%20%5Bmh%5D%29%20%20AND%20%28tox%5Bsb%5D%29&cmd=search"
          }
        ],
        "cross_references": []
      }
    },
    "exposure_assessment": {
      "explanatory_notes": {
        "original_name": "Explanatory Notes",
        "value": "Vapor pressure = 17 mm Hg at 40 deg C; [Alfa Aesar MSDS] The Guide in the Emergency Response Guidebook is for \"Cyclooctadienes.\"",
        "links": [],
        "cross_references": [
          {
            "type": "name_match",
            "text": "octadiene",
            "confidence": 1.0,
            "uuid": "1c5a8b36-be1a-4a27-beee-c85bdd9789c7",
            "name": "Octadiene",
            "url": "https://haz-map.com/Agents/16220",
            "category": "agents"
          }
        ]
      }
    },
    "diseases_processes_and_activities_linked_to_this_agent": {
      "other_information": {
        "original_name": "Other Information",
        "value": "No other related information on this agent was found.",
        "links": [],
        "cross_references": []
      }
    }
  },
  "cross_references": [
    {
      "type": "name_match",
      "text": "1,5-cyclooctadiene",
      "confidence": 1.0,
      "uuid": "668cc648-7db8-4108-9e44-da73ab927dff",
      "name": "1,5-Cyclooctadiene",
      "url": "https://haz-map.com/Agents/2214",
      "category": "agents"
    },
    {
      "type": "name_match",
      "text": "octadiene",
      "confidence": 1.0,
      "uuid": "1c5a8b36-be1a-4a27-beee-c85bdd9789c7",
      "name": "Octadiene",
      "url": "https://haz-map.com/Agents/16220",
      "category": "agents"
    },
    {
      "type": "name_match",
      "text": "1,3-cyclooctadiene",
      "confidence": 1.0,
      "uuid": "b612697a-7475-426a-8d28-7b866bf9c3d4",
      "name": "1,3-Cyclooctadiene",
      "url": "https://haz-map.com/Agents/19242",
      "category": "agents"
    }
  ],
  "all_links": [
    {
      "text": "Search PubMed",
      "url": "https://www.ncbi.nlm.nih.gov/pubmed?term=1%2c3-Cyclooctadiene%20AND%20human%5Bmh%5D%20AND%20%28Occupational%20Diseases%20%5Bmh%5D%20OR%20Occupational%20Exposure%20%5Bmh%5D%29%20%20AND%20%28tox%5Bsb%5D%29&cmd=search"
    }
  ]
}