{
  "metadata": {
    "scraped_from": "https://haz-map.com/Agents/8358",
    "entity_name": "Fumaric acid",
    "category": "agents",
    "uuid": "b635d88c-9570-4e93-8899-d7a2375b1daa",
    "scraped_at": "2025-07-23T20:25:52.770421"
  },
  "parsed_at": "2025-07-24T01:17:09.036779",
  "title": "Fumaric acid",
  "sections": {
    "general": {
      "agent_name": {
        "original_name": "Agent Name",
        "value": "Fumaric acid",
        "links": [],
        "cross_references": [
          {
            "type": "name_match",
            "text": "fumaric acid",
            "confidence": 1.0,
            "uuid": "b635d88c-9570-4e93-8899-d7a2375b1daa",
            "name": "Fumaric acid",
            "url": "https://haz-map.com/Agents/8358",
            "category": "agents"
          }
        ]
      },
      "cas_number": {
        "original_name": "CAS Number",
        "value": "110-17-8",
        "links": [],
        "cross_references": []
      },
      "formula": {
        "original_name": "Formula",
        "value": "C4-H4-O4",
        "links": [],
        "cross_references": []
      },
      "major_category": {
        "original_name": "Major Category",
        "value": "Other Classes",
        "links": [],
        "cross_references": []
      },
      "synonyms": {
        "original_name": "Synonyms",
        "value": "2-Butenedioic acid; 1,2-Ethenedicarboxylic acid, trans-; 1,2-Ethylenedicarboxylic acid, (E); 2-Butenedioic acid, (E)-; Allomaleic acid; Allomalenic acid; Boletic acid; Butenedioic acid, (E)-; Kyselina fumarova [Czech]; Lichenic acid; Lichenic acid (VAN); NSC-2752; Tumaric acid; U-1149; trans-1,2-Ethylenedicarboxylic acid; trans-Butenedioic acid; [ChemIDplus]",
        "links": [],
        "cross_references": [
          {
            "type": "name_match",
            "text": "ethylene",
            "confidence": 1.0,
            "uuid": "958eacc0-5135-4b62-bb93-6df972bf552f",
            "name": "Ethylene",
            "url": "https://haz-map.com/Agents/1076",
            "category": "agents"
          },
          {
            "type": "name_match",
            "text": "maleic acid",
            "confidence": 1.0,
            "uuid": "18b68dff-5121-4f02-829b-b329f6cfec78",
            "name": "Maleic acid",
            "url": "https://haz-map.com/Agents/8378",
            "category": "agents"
          }
        ]
      },
      "category": {
        "original_name": "Category",
        "value": "Organic Acids",
        "links": [],
        "cross_references": []
      },
      "description": {
        "original_name": "Description",
        "value": "Colorless or white odorless solid; [HSDB] White crystalline solid; [MSDSonline]",
        "links": [],
        "cross_references": [
          {
            "type": "fuzzy_match",
            "text": "crystalline",
            "matched_name": "Silica, crystalline",
            "confidence": 0.7061403508771931,
            "uuid": "f920e8a2-46df-41b7-af8d-0368a777251e",
            "category": "agents",
            "url": "https://haz-map.com/Agents/427"
          }
        ]
      },
      "sourcesuses": {
        "original_name": "Sources/Uses",
        "value": "An essential biochemical in the cellular respiration of plants and animals; [Merck Index] Used as a fortifier (paper size resins, unsaturated polyester resins, and alkyd surface coating resins), food antioxidant, dye mordant, and medication; Also used in dentifrices (stain remover) and to make other chemicals; [HSDB] Used in rosin esters and adducts, drying oils, printing inks, and foods (acidulant and flavoring agent); [Hawley]",
        "links": [],
        "cross_references": [
          {
            "type": "name_match",
            "text": "mica",
            "confidence": 1.0,
            "uuid": "433f26f1-c399-4596-b179-ce3843cfd465",
            "name": "Mica",
            "url": "https://haz-map.com/Agents/621",
            "category": "agents"
          }
        ]
      },
      "comments": {
        "original_name": "Comments",
        "value": "A skin, eye, and respiratory tract irritant; [ICSC] A skin, eye, nose, and throat irritant; [HSDB] An eye irritant; [eChemPortal: ERMA; ESIS] A mild skin and moderate eye irritant based on animal studies; [MSDSonline]",
        "links": [],
        "cross_references": []
      },
      "biomedical_references": {
        "original_name": "Biomedical References",
        "value": "Search PubMed",
        "links": [
          {
            "text": "Search PubMed",
            "url": "https://www.ncbi.nlm.nih.gov/pubmed?term=Fumaric+acid%20AND%20human%5Bmh%5D%20AND%20%28Occupational%20Diseases%20%5Bmh%5D%20OR%20Occupational%20Exposure%20%5Bmh%5D%29%20%20AND%20%28tox%5Bsb%5D%29&cmd=search"
          }
        ],
        "cross_references": []
      }
    },
    "exposure_assessment": {
      "vapor_pressure": {
        "original_name": "Vapor Pressure",
        "value": "0.000154 mm Hg",
        "links": [],
        "cross_references": []
      }
    },
    "diseases_processes_and_activities_linked_to_this_agent": {
      "processes": {
        "original_name": "Processes",
        "value": "Industrial Processes with risk of exposure: Painting (Pigments, Binders, and Biocides) Pulp and Paper Processing Textiles (Printing, Dyeing, or Finishing)",
        "links": [
          {
            "text": "Painting (Pigments, Binders, and Biocides)",
            "url": "https://haz-map.com/Processes/145"
          },
          {
            "text": "Pulp and Paper Processing",
            "url": "https://haz-map.com/Processes/132"
          },
          {
            "text": "Textiles (Printing, Dyeing, or Finishing)",
            "url": "https://haz-map.com/Processes/235"
          }
        ],
        "cross_references": [
          {
            "type": "url_match",
            "text": "Painting (Pigments, Binders, and Biocides)",
            "url": "https://haz-map.com/Processes/145",
            "confidence": 1.0,
            "uuid": "25867878-e178-4c21-906f-d392d86b76de",
            "name": "Painting (Pigments, Binders, and Biocides)",
            "category": "processes"
          },
          {
            "type": "url_match",
            "text": "Pulp and Paper Processing",
            "url": "https://haz-map.com/Processes/132",
            "confidence": 1.0,
            "uuid": "30075079-d057-47e2-a7d8-e89bfc59d8df",
            "name": "Pulp and Paper Processing",
            "category": "processes"
          },
          {
            "type": "name_match",
            "text": "painting",
            "confidence": 1.0,
            "uuid": "19816ce9-9edf-4a86-8e64-b0cbf7dcf520",
            "name": "Painting",
            "url": "https://haz-map.com/Activities/9",
            "category": "activities"
          }
        ]
      }
    }
  },
  "cross_references": [
    {
      "type": "url_match",
      "text": "Painting (Pigments, Binders, and Biocides)",
      "url": "https://haz-map.com/Processes/145",
      "confidence": 1.0,
      "uuid": "25867878-e178-4c21-906f-d392d86b76de",
      "name": "Painting (Pigments, Binders, and Biocides)",
      "category": "processes"
    },
    {
      "type": "url_match",
      "text": "Pulp and Paper Processing",
      "url": "https://haz-map.com/Processes/132",
      "confidence": 1.0,
      "uuid": "30075079-d057-47e2-a7d8-e89bfc59d8df",
      "name": "Pulp and Paper Processing",
      "category": "processes"
    },
    {
      "type": "name_match",
      "text": "painting",
      "confidence": 1.0,
      "uuid": "19816ce9-9edf-4a86-8e64-b0cbf7dcf520",
      "name": "Painting",
      "url": "https://haz-map.com/Activities/9",
      "category": "activities"
    },
    {
      "type": "name_match",
      "text": "mica",
      "confidence": 1.0,
      "uuid": "433f26f1-c399-4596-b179-ce3843cfd465",
      "name": "Mica",
      "url": "https://haz-map.com/Agents/621",
      "category": "agents"
    },
    {
      "type": "name_match",
      "text": "ethylene",
      "confidence": 1.0,
      "uuid": "958eacc0-5135-4b62-bb93-6df972bf552f",
      "name": "Ethylene",
      "url": "https://haz-map.com/Agents/1076",
      "category": "agents"
    },
    {
      "type": "name_match",
      "text": "fumaric acid",
      "confidence": 1.0,
      "uuid": "b635d88c-9570-4e93-8899-d7a2375b1daa",
      "name": "Fumaric acid",
      "url": "https://haz-map.com/Agents/8358",
      "category": "agents"
    },
    {
      "type": "name_match",
      "text": "maleic acid",
      "confidence": 1.0,
      "uuid": "18b68dff-5121-4f02-829b-b329f6cfec78",
      "name": "Maleic acid",
      "url": "https://haz-map.com/Agents/8378",
      "category": "agents"
    },
    {
      "type": "fuzzy_match",
      "text": "crystalline",
      "matched_name": "Silica, crystalline",
      "confidence": 0.7061403508771931,
      "uuid": "f920e8a2-46df-41b7-af8d-0368a777251e",
      "category": "agents",
      "url": "https://haz-map.com/Agents/427"
    }
  ],
  "all_links": [
    {
      "text": "Search PubMed",
      "url": "https://www.ncbi.nlm.nih.gov/pubmed?term=Fumaric+acid%20AND%20human%5Bmh%5D%20AND%20%28Occupational%20Diseases%20%5Bmh%5D%20OR%20Occupational%20Exposure%20%5Bmh%5D%29%20%20AND%20%28tox%5Bsb%5D%29&cmd=search"
    },
    {
      "text": "Painting (Pigments, Binders, and Biocides)",
      "url": "https://haz-map.com/Processes/145"
    },
    {
      "text": "Pulp and Paper Processing",
      "url": "https://haz-map.com/Processes/132"
    },
    {
      "text": "Textiles (Printing, Dyeing, or Finishing)",
      "url": "https://haz-map.com/Processes/235"
    }
  ]
}