{
  "metadata": {
    "scraped_from": "https://haz-map.com/Agents/4391",
    "entity_name": "Cholic acid",
    "category": "agents",
    "uuid": "b6e13d68-45c6-44dd-90b2-fff7c986afdd",
    "scraped_at": "2025-07-23T19:40:36.923076"
  },
  "parsed_at": "2025-07-24T01:11:50.212861",
  "title": "Cholic acid",
  "sections": {
    "general": {
      "agent_name": {
        "original_name": "Agent Name",
        "value": "Cholic acid",
        "links": [],
        "cross_references": [
          {
            "type": "name_match",
            "text": "cholic acid",
            "confidence": 1.0,
            "uuid": "b6e13d68-45c6-44dd-90b2-fff7c986afdd",
            "name": "Cholic acid",
            "url": "https://haz-map.com/Agents/4391",
            "category": "agents"
          }
        ]
      },
      "cas_number": {
        "original_name": "CAS Number",
        "value": "81-25-4",
        "links": [],
        "cross_references": []
      },
      "formula": {
        "original_name": "Formula",
        "value": "C24-H40-O5",
        "links": [],
        "cross_references": []
      },
      "major_category": {
        "original_name": "Major Category",
        "value": "Other Classes",
        "links": [],
        "cross_references": []
      },
      "synonyms": {
        "original_name": "Synonyms",
        "value": "17-beta-(1-Methyl-3-carboxypropyl)etiocholane-3alpha,7alpha,12alpha-triol; 3,7,12-Trihydroxy-cholan-24-oic acid (3-alpha,5-beta,7-alpha,12-alpha); 3,7,12-Trihydroxycholan-24-oic acid, (3alpha,5beta,7alpha,12alpha)-; 3,7,12-Trihydroxycholanic acid; 3-alpha,7-alpha,12-alpha-Trihydroxy-5-beta-cholan-24-oic acid; 3-alpha,7-alpha,12-alpha-Trihydroxycholansaeure [German]; 3alpha,7alpha,12alpha-Trihydroxy-5beta-cholanic acid; 5beta-Cholan-24-oic acid, 3alpha,7alpha,12alpha-trihydroxy-; Cholalic acid; Cholalin; Cholan-24-oic acid, 3,7,12-trihydroxy-, (3alpha,5beta,7alpha,12alpha)-; Cholic acid, 5beta-; Cholsaeure [German]; Colalin; Colalin (VAN); [ChemIDplus]",
        "links": [],
        "cross_references": [
          {
            "type": "name_match",
            "text": "cholic acid",
            "confidence": 1.0,
            "uuid": "b6e13d68-45c6-44dd-90b2-fff7c986afdd",
            "name": "Cholic acid",
            "url": "https://haz-map.com/Agents/4391",
            "category": "agents"
          }
        ]
      },
      "category": {
        "original_name": "Category",
        "value": "Organic Acids",
        "links": [],
        "cross_references": []
      },
      "description": {
        "original_name": "Description",
        "value": "Solid; [HSDB] White powder; [MSDSonline]",
        "links": [],
        "cross_references": []
      },
      "sourcesuses": {
        "original_name": "Sources/Uses",
        "value": "Found conjugated with glycine or taurine in the bile of most vertebrates; Used as a gallbladder stimulant; [Merck Index] Used in biochemical research, as an intermediate for pharmaceuticals, and as a food emulsifying agent; [Hawley]",
        "links": [],
        "cross_references": [
          {
            "type": "name_match",
            "text": "mica",
            "confidence": 1.0,
            "uuid": "433f26f1-c399-4596-b179-ce3843cfd465",
            "name": "Mica",
            "url": "https://haz-map.com/Agents/621",
            "category": "agents"
          },
          {
            "type": "name_match",
            "text": "pharmaceuticals",
            "confidence": 1.0,
            "uuid": "713c3c30-b67e-4a2f-a90f-b32f8a306332",
            "name": "PHARMACEUTICALS",
            "url": "https://haz-map.com/Agents/1000",
            "category": "agents"
          },
          {
            "type": "name_match",
            "text": "dde",
            "confidence": 1.0,
            "uuid": "88506fb4-e7b1-4bde-a283-917057f67fc2",
            "name": "DDE",
            "url": "https://haz-map.com/Agents/4656",
            "category": "agents"
          },
          {
            "type": "name_match",
            "text": "aurin",
            "confidence": 1.0,
            "uuid": "d84a3e17-c22e-49c8-a819-c0f493df6b46",
            "name": "Aurin",
            "url": "https://haz-map.com/Agents/12002",
            "category": "agents"
          },
          {
            "type": "name_match",
            "text": "glycine",
            "confidence": 1.0,
            "uuid": "820f614c-594c-4165-b9ef-dbbd5cd636a8",
            "name": "Glycine",
            "url": "https://haz-map.com/Agents/14439",
            "category": "agents"
          },
          {
            "type": "name_match",
            "text": "taurine",
            "confidence": 1.0,
            "uuid": "27f7bf71-0f9b-40f5-9fdc-f7402c9a3a2f",
            "name": "Taurine",
            "url": "https://haz-map.com/Agents/17855",
            "category": "agents"
          }
        ]
      },
      "comments": {
        "original_name": "Comments",
        "value": "Emergency treatment: symptomatic drug ingestion; [HSDB] May cause irritation; [MSDSonline]",
        "links": [],
        "cross_references": []
      },
      "biomedical_references": {
        "original_name": "Biomedical References",
        "value": "Search PubMed",
        "links": [
          {
            "text": "Search PubMed",
            "url": "https://www.ncbi.nlm.nih.gov/pubmed?term=Cholic+acid%20AND%20human%5Bmh%5D%20AND%20%28Occupational%20Diseases%20%5Bmh%5D%20OR%20Occupational%20Exposure%20%5Bmh%5D%29%20%20AND%20%28tox%5Bsb%5D%29&cmd=search"
          }
        ],
        "cross_references": []
      }
    },
    "exposure_assessment": {
      "vapor_pressure": {
        "original_name": "Vapor Pressure",
        "value": "3.65E-15 mm Hg",
        "links": [],
        "cross_references": []
      }
    },
    "diseases_processes_and_activities_linked_to_this_agent": {
      "other_information": {
        "original_name": "Other Information",
        "value": "No other related information on this agent was found.",
        "links": [],
        "cross_references": []
      }
    }
  },
  "cross_references": [
    {
      "type": "name_match",
      "text": "mica",
      "confidence": 1.0,
      "uuid": "433f26f1-c399-4596-b179-ce3843cfd465",
      "name": "Mica",
      "url": "https://haz-map.com/Agents/621",
      "category": "agents"
    },
    {
      "type": "name_match",
      "text": "pharmaceuticals",
      "confidence": 1.0,
      "uuid": "713c3c30-b67e-4a2f-a90f-b32f8a306332",
      "name": "PHARMACEUTICALS",
      "url": "https://haz-map.com/Agents/1000",
      "category": "agents"
    },
    {
      "type": "name_match",
      "text": "cholic acid",
      "confidence": 1.0,
      "uuid": "b6e13d68-45c6-44dd-90b2-fff7c986afdd",
      "name": "Cholic acid",
      "url": "https://haz-map.com/Agents/4391",
      "category": "agents"
    },
    {
      "type": "name_match",
      "text": "dde",
      "confidence": 1.0,
      "uuid": "88506fb4-e7b1-4bde-a283-917057f67fc2",
      "name": "DDE",
      "url": "https://haz-map.com/Agents/4656",
      "category": "agents"
    },
    {
      "type": "name_match",
      "text": "aurin",
      "confidence": 1.0,
      "uuid": "d84a3e17-c22e-49c8-a819-c0f493df6b46",
      "name": "Aurin",
      "url": "https://haz-map.com/Agents/12002",
      "category": "agents"
    },
    {
      "type": "name_match",
      "text": "glycine",
      "confidence": 1.0,
      "uuid": "820f614c-594c-4165-b9ef-dbbd5cd636a8",
      "name": "Glycine",
      "url": "https://haz-map.com/Agents/14439",
      "category": "agents"
    },
    {
      "type": "name_match",
      "text": "taurine",
      "confidence": 1.0,
      "uuid": "27f7bf71-0f9b-40f5-9fdc-f7402c9a3a2f",
      "name": "Taurine",
      "url": "https://haz-map.com/Agents/17855",
      "category": "agents"
    }
  ],
  "all_links": [
    {
      "text": "Search PubMed",
      "url": "https://www.ncbi.nlm.nih.gov/pubmed?term=Cholic+acid%20AND%20human%5Bmh%5D%20AND%20%28Occupational%20Diseases%20%5Bmh%5D%20OR%20Occupational%20Exposure%20%5Bmh%5D%29%20%20AND%20%28tox%5Bsb%5D%29&cmd=search"
    }
  ]
}