{
  "metadata": {
    "scraped_from": "https://haz-map.com/Agents/3238",
    "entity_name": "3-Methyl-4-nitroquinoline-1-oxide",
    "category": "agents",
    "uuid": "b708d6ce-99fb-417c-b49e-01b51dc0ac55",
    "scraped_at": "2025-07-23T19:26:11.066179"
  },
  "parsed_at": "2025-07-24T00:52:59.562665",
  "title": "3-Methyl-4-nitroquinoline-1-oxide",
  "sections": {
    "general": {
      "agent_name": {
        "original_name": "Agent Name",
        "value": "3-Methyl-4-nitroquinoline-1-oxide",
        "links": [],
        "cross_references": [
          {
            "type": "name_match",
            "text": "3-methyl-4-nitroquinoline-1-oxide",
            "confidence": 1.0,
            "uuid": "b708d6ce-99fb-417c-b49e-01b51dc0ac55",
            "name": "3-Methyl-4-nitroquinoline-1-oxide",
            "url": "https://haz-map.com/Agents/3238",
            "category": "agents"
          },
          {
            "type": "name_match",
            "text": "quinoline",
            "confidence": 1.0,
            "uuid": "ba9097a5-8299-4dfd-a74a-f179b7d465d1",
            "name": "Quinoline",
            "url": "https://haz-map.com/Agents/6937",
            "category": "agents"
          }
        ]
      },
      "cas_number": {
        "original_name": "CAS Number",
        "value": "14073-00-8",
        "links": [],
        "cross_references": []
      },
      "formula": {
        "original_name": "Formula",
        "value": "C10-H8-N2-O3",
        "links": [],
        "cross_references": []
      },
      "major_category": {
        "original_name": "Major Category",
        "value": "Nitrogen Compounds",
        "links": [],
        "cross_references": [
          {
            "type": "name_match",
            "text": "nitrogen",
            "confidence": 1.0,
            "uuid": "db5e90a9-06d2-45b9-8b81-f345a89b0bc0",
            "name": "Nitrogen",
            "url": "https://haz-map.com/Agents/1072",
            "category": "agents"
          }
        ]
      },
      "synonyms": {
        "original_name": "Synonyms",
        "value": "3-Methyl-4-nitroquinoline-N-oxide; Quinoline, 3-methyl-4-nitro-, 1-oxide; [ChemIDplus]",
        "links": [],
        "cross_references": [
          {
            "type": "name_match",
            "text": "4-nitroquinoline-n-oxide",
            "confidence": 1.0,
            "uuid": "6e55d796-916f-443c-8207-cf54b59d099c",
            "name": "4-Nitroquinoline-N-oxide",
            "url": "https://haz-map.com/Agents/3319",
            "category": "agents"
          },
          {
            "type": "name_match",
            "text": "quinoline",
            "confidence": 1.0,
            "uuid": "ba9097a5-8299-4dfd-a74a-f179b7d465d1",
            "name": "Quinoline",
            "url": "https://haz-map.com/Agents/6937",
            "category": "agents"
          }
        ]
      },
      "category": {
        "original_name": "Category",
        "value": "Quinolines",
        "links": [],
        "cross_references": [
          {
            "type": "name_match",
            "text": "quinoline",
            "confidence": 1.0,
            "uuid": "ba9097a5-8299-4dfd-a74a-f179b7d465d1",
            "name": "Quinoline",
            "url": "https://haz-map.com/Agents/6937",
            "category": "agents"
          }
        ]
      },
      "sourcesuses": {
        "original_name": "Sources/Uses",
        "value": "Not commercially produced in the US; [HSDB]",
        "links": [],
        "cross_references": []
      },
      "biomedical_references": {
        "original_name": "Biomedical References",
        "value": "Search PubMed",
        "links": [
          {
            "text": "Search PubMed",
            "url": "https://www.ncbi.nlm.nih.gov/pubmed?term=3-Methyl-4-nitroquinoline-1-oxide%20AND%20human%5Bmh%5D%20AND%20%28Occupational%20Diseases%20%5Bmh%5D%20OR%20Occupational%20Exposure%20%5Bmh%5D%29%20%20AND%20%28tox%5Bsb%5D%29&cmd=search"
          }
        ],
        "cross_references": []
      }
    },
    "exposure_assessment": {
      "vapor_pressure": {
        "original_name": "Vapor Pressure",
        "value": "1.06E-06 mm Hg",
        "links": [],
        "cross_references": []
      }
    },
    "diseases_processes_and_activities_linked_to_this_agent": {
      "other_information": {
        "original_name": "Other Information",
        "value": "No other related information on this agent was found.",
        "links": [],
        "cross_references": []
      }
    }
  },
  "cross_references": [
    {
      "type": "name_match",
      "text": "nitrogen",
      "confidence": 1.0,
      "uuid": "db5e90a9-06d2-45b9-8b81-f345a89b0bc0",
      "name": "Nitrogen",
      "url": "https://haz-map.com/Agents/1072",
      "category": "agents"
    },
    {
      "type": "name_match",
      "text": "3-methyl-4-nitroquinoline-1-oxide",
      "confidence": 1.0,
      "uuid": "b708d6ce-99fb-417c-b49e-01b51dc0ac55",
      "name": "3-Methyl-4-nitroquinoline-1-oxide",
      "url": "https://haz-map.com/Agents/3238",
      "category": "agents"
    },
    {
      "type": "name_match",
      "text": "4-nitroquinoline-n-oxide",
      "confidence": 1.0,
      "uuid": "6e55d796-916f-443c-8207-cf54b59d099c",
      "name": "4-Nitroquinoline-N-oxide",
      "url": "https://haz-map.com/Agents/3319",
      "category": "agents"
    },
    {
      "type": "name_match",
      "text": "quinoline",
      "confidence": 1.0,
      "uuid": "ba9097a5-8299-4dfd-a74a-f179b7d465d1",
      "name": "Quinoline",
      "url": "https://haz-map.com/Agents/6937",
      "category": "agents"
    }
  ],
  "all_links": [
    {
      "text": "Search PubMed",
      "url": "https://www.ncbi.nlm.nih.gov/pubmed?term=3-Methyl-4-nitroquinoline-1-oxide%20AND%20human%5Bmh%5D%20AND%20%28Occupational%20Diseases%20%5Bmh%5D%20OR%20Occupational%20Exposure%20%5Bmh%5D%29%20%20AND%20%28tox%5Bsb%5D%29&cmd=search"
    }
  ]
}