{
  "metadata": {
    "scraped_from": "https://haz-map.com/Agents/1455",
    "entity_name": "VX",
    "category": "agents",
    "uuid": "b7218a14-b130-4ca0-a815-ba4b69602337",
    "scraped_at": "2025-07-23T18:59:25.068099"
  },
  "parsed_at": "2025-07-24T01:16:35.256064",
  "title": "VX",
  "sections": {
    "general": {
      "agent_name": {
        "original_name": "Agent Name",
        "value": "VX",
        "links": [],
        "cross_references": [
          {
            "type": "name_match",
            "text": "vx",
            "confidence": 1.0,
            "uuid": "b7218a14-b130-4ca0-a815-ba4b69602337",
            "name": "VX",
            "url": "https://haz-map.com/Agents/1455",
            "category": "agents"
          }
        ]
      },
      "cas_number": {
        "original_name": "CAS Number",
        "value": "50782-69-9",
        "links": [],
        "cross_references": []
      },
      "formula": {
        "original_name": "Formula",
        "value": "C11-H26-N-O2-P-S",
        "links": [],
        "cross_references": []
      },
      "major_category": {
        "original_name": "Major Category",
        "value": "Toxic Gases & Vapors",
        "links": [],
        "cross_references": []
      },
      "synonyms": {
        "original_name": "Synonyms",
        "value": "(+-)-S-(2-(Bis(1-methylethyl)amino)ethyl) O-ethyl methylphosphonothioate; EA 1701; Ethyl S-2-diisopropylaminoethyl methylphosphonothiolate; Ethyl S-dimethylaminoethyl methylphosphonothiolate; Ethyl-S-diisopropylaminoethyl methylthiophosphonate; Methylphosphonothioic acid S-(2-(bis(1-methylethyl)amino)ethyl) O-ethyl ester; Methylphosphonothioic acid S-(2-(bis(methylethyl)amino)ethyl) O-ethyl ester; Methylphosphonothioic acid, S-(2-diisopropylamino)ethyl O-ethyl ester; Nerve agent; O-Ethyl S-(2-diisopropylaminoethyl) methylphosphonothioate; O-Ethyl S-(2-diisopropylaminoethyl)methylphosphonothioate; O-Ethyl-S-2-diisopropylaminoethylester kyseliny methylthiofosfonove [Czech]; S-(2-Diisopropylaminoethyl) O-ethyl methyl phosphonothiolate; Tx 60; VX (van); Phosphonothioic acid, P-methyl-, S-(2-(bis(1-methylethyl)amino)ethyl) O-ethyl ester; Phosphonothioic acid, methyl-, S-(2-(bis(1-methylethyl)amino)ethyl) O-ethyl ester; Phosphonothioic acid, methyl-, S-(2-(bis(1-methylethyl)amino)ethyl) O-ethyl ester, (+-)-; Phosphonothioic acid, methyl-, S-(2-(diisopropylamino)ethyl) O-ethyl ester; S-(2-Diisopropylaminoethyl)-O-ethyl methylphosphonothiolate; [ChemIDplus] Lethal Nerve Agent (VX); [U.S. Army ERDEC MSDS] UN2810",
        "links": [],
        "cross_references": [
          {
            "type": "name_match",
            "text": "vx",
            "confidence": 1.0,
            "uuid": "b7218a14-b130-4ca0-a815-ba4b69602337",
            "name": "VX",
            "url": "https://haz-map.com/Agents/1455",
            "category": "agents"
          },
          {
            "type": "name_match",
            "text": "o-ethyl methylphosphonothioate",
            "confidence": 1.0,
            "uuid": "9c1b0a4b-d0da-45d0-9312-358cbf13c754",
            "name": "O-Ethyl methylphosphonothioate",
            "url": "https://haz-map.com/Agents/16264",
            "category": "agents"
          }
        ]
      },
      "category": {
        "original_name": "Category",
        "value": "Chemical Weapons",
        "links": [],
        "cross_references": [
          {
            "type": "name_match",
            "text": "mica",
            "confidence": 1.0,
            "uuid": "433f26f1-c399-4596-b179-ce3843cfd465",
            "name": "Mica",
            "url": "https://haz-map.com/Agents/621",
            "category": "agents"
          }
        ]
      },
      "description": {
        "original_name": "Description",
        "value": "\"VX is a clear, amber-colored, odorless, oily liquid. It is miscible with water and soluble in all solvents. It is the least volatile nerve agent.\" [ATSDR Medical Management]",
        "links": [],
        "cross_references": [
          {
            "type": "name_match",
            "text": "vx",
            "confidence": 1.0,
            "uuid": "b7218a14-b130-4ca0-a815-ba4b69602337",
            "name": "VX",
            "url": "https://haz-map.com/Agents/1455",
            "category": "agents"
          },
          {
            "type": "name_match",
            "text": "water",
            "confidence": 1.0,
            "uuid": "6f2a7557-dfd2-49bc-9b4b-a93cd8e225d4",
            "name": "Water",
            "url": "https://haz-map.com/Agents/18668",
            "category": "agents"
          }
        ]
      },
      "sourcesuses": {
        "original_name": "Sources/Uses",
        "value": "Chemical warfare;",
        "links": [],
        "cross_references": [
          {
            "type": "name_match",
            "text": "mica",
            "confidence": 1.0,
            "uuid": "433f26f1-c399-4596-b179-ce3843cfd465",
            "name": "Mica",
            "url": "https://haz-map.com/Agents/621",
            "category": "agents"
          }
        ]
      },
      "comments": {
        "original_name": "Comments",
        "value": "VX is an odorless, colorless to straw-colored liquid with a vapor pressure of 0.0007 at 68 degrees F. It persists in the soil for 2-6 days. [Jane, p. 87-8] \"As little as one drop of VX on the skin can be fatal and 1 to 10 mL of GA, GB, or GD can be fatal.\" [ATSDR Medical Management] An extremely active cholinesterase inhibitor; Dermal lowest lethal-dose is 86 mg/kg in humans; Absorption of a fatal-dose results in death within 15 minutes; [CAMEO] An experiment using human volunteers demonstrated that VX vapor can readily be absorbed through skin, and poses as great a hazard to a masked man as GB (sarin) poses to an unmasked man; [HSDB] A lethal cholinesterase inhibitor; Doses potentially lethal may only be slightly more than those producing minimal symptoms; [U.S. Army ERDEC MSDS] See the disease, \"Organophosphate & carbamates, acute poisoning.\"",
        "links": [],
        "cross_references": [
          {
            "type": "name_match",
            "text": "sarin",
            "confidence": 1.0,
            "uuid": "0b2477bd-5683-4fa1-a959-0f0b278d6300",
            "name": "Sarin",
            "url": "https://haz-map.com/Agents/1452",
            "category": "agents"
          },
          {
            "type": "name_match",
            "text": "vx",
            "confidence": 1.0,
            "uuid": "b7218a14-b130-4ca0-a815-ba4b69602337",
            "name": "VX",
            "url": "https://haz-map.com/Agents/1455",
            "category": "agents"
          },
          {
            "type": "name_match",
            "text": "ht",
            "confidence": 1.0,
            "uuid": "764df367-8d53-4a11-81a2-31ccfe122a8d",
            "name": "HT",
            "url": "https://haz-map.com/Agents/2168",
            "category": "agents"
          },
          {
            "type": "name_match",
            "text": "choline",
            "confidence": 1.0,
            "uuid": "a21a71e9-9d67-4563-9da2-98c4dcb1b766",
            "name": "Choline",
            "url": "https://haz-map.com/Agents/12978",
            "category": "agents"
          }
        ]
      },
      "reference_link_1": {
        "original_name": "Reference Link #1",
        "value": "ATSDR - Medical Management: Nerve Agents: Tabun (GA); Sarin (GB); Soman (GD); and VX",
        "links": [
          {
            "text": "ATSDR - Medical Management: Nerve Agents: Tabun (GA); Sarin (GB); Soman (GD); and VX",
            "url": "http://www.atsdr.cdc.gov/mmg/mmg.asp?id=523&tid=93"
          }
        ],
        "cross_references": [
          {
            "type": "name_match",
            "text": "sarin",
            "confidence": 1.0,
            "uuid": "0b2477bd-5683-4fa1-a959-0f0b278d6300",
            "name": "Sarin",
            "url": "https://haz-map.com/Agents/1452",
            "category": "agents"
          },
          {
            "type": "name_match",
            "text": "soman",
            "confidence": 1.0,
            "uuid": "7ba8fa7c-eb4e-45ad-bde5-5365fd12f0ae",
            "name": "Soman",
            "url": "https://haz-map.com/Agents/1453",
            "category": "agents"
          },
          {
            "type": "name_match",
            "text": "tabun",
            "confidence": 1.0,
            "uuid": "b02e68cb-15e4-4ce6-83ac-59115856d563",
            "name": "Tabun",
            "url": "https://haz-map.com/Agents/1454",
            "category": "agents"
          },
          {
            "type": "name_match",
            "text": "vx",
            "confidence": 1.0,
            "uuid": "b7218a14-b130-4ca0-a815-ba4b69602337",
            "name": "VX",
            "url": "https://haz-map.com/Agents/1455",
            "category": "agents"
          }
        ]
      },
      "biomedical_references": {
        "original_name": "Biomedical References",
        "value": "Search PubMed",
        "links": [
          {
            "text": "Search PubMed",
            "url": "https://www.ncbi.nlm.nih.gov/pubmed?term=VX%20AND%20human%5Bmh%5D%20AND%20%28Occupational%20Diseases%20%5Bmh%5D%20OR%20Occupational%20Exposure%20%5Bmh%5D%29%20%20AND%20%28tox%5Bsb%5D%29&cmd=search"
          }
        ],
        "cross_references": []
      }
    },
    "exposure_assessment": {
      "tih": {
        "original_name": "TIH",
        "value": "Yes",
        "links": [],
        "cross_references": []
      },
      "vapor_pressure": {
        "original_name": "Vapor Pressure",
        "value": "0.000878 mm Hg",
        "links": [],
        "cross_references": []
      },
      "explanatory_notes": {
        "original_name": "Explanatory Notes",
        "value": "VP from HSDB;",
        "links": [],
        "cross_references": []
      }
    },
    "adverse_effects": {
      "other_poison": {
        "original_name": "Other Poison",
        "value": "Organophosphate",
        "links": [],
        "cross_references": []
      }
    },
    "diseases_processes_and_activities_linked_to_this_agent": {
      "diseases": {
        "original_name": "Diseases",
        "value": "Occupational diseases associated with exposure to this agent: Organophosphates & carbamates, acute poisoning",
        "links": [
          {
            "text": "Organophosphates & carbamates, acute poisoning",
            "url": "https://haz-map.com/Diseases/66"
          }
        ],
        "cross_references": [
          {
            "type": "url_match",
            "text": "Organophosphates & carbamates, acute poisoning",
            "url": "https://haz-map.com/Diseases/66",
            "confidence": 1.0,
            "uuid": "aea2cba9-fb36-463f-84d8-b819551bb327",
            "name": "Organophosphates & carbamates, acute poisoning",
            "category": "diseases"
          },
          {
            "type": "name_match",
            "text": "organophosphates",
            "confidence": 1.0,
            "uuid": "8d2d239c-20f9-4f02-9916-5e7667b9990c",
            "name": "ORGANOPHOSPHATES",
            "url": "https://haz-map.com/Agents/702",
            "category": "agents"
          }
        ]
      }
    }
  },
  "cross_references": [
    {
      "type": "url_match",
      "text": "Organophosphates & carbamates, acute poisoning",
      "url": "https://haz-map.com/Diseases/66",
      "confidence": 1.0,
      "uuid": "aea2cba9-fb36-463f-84d8-b819551bb327",
      "name": "Organophosphates & carbamates, acute poisoning",
      "category": "diseases"
    },
    {
      "type": "name_match",
      "text": "mica",
      "confidence": 1.0,
      "uuid": "433f26f1-c399-4596-b179-ce3843cfd465",
      "name": "Mica",
      "url": "https://haz-map.com/Agents/621",
      "category": "agents"
    },
    {
      "type": "name_match",
      "text": "organophosphates",
      "confidence": 1.0,
      "uuid": "8d2d239c-20f9-4f02-9916-5e7667b9990c",
      "name": "ORGANOPHOSPHATES",
      "url": "https://haz-map.com/Agents/702",
      "category": "agents"
    },
    {
      "type": "name_match",
      "text": "sarin",
      "confidence": 1.0,
      "uuid": "0b2477bd-5683-4fa1-a959-0f0b278d6300",
      "name": "Sarin",
      "url": "https://haz-map.com/Agents/1452",
      "category": "agents"
    },
    {
      "type": "name_match",
      "text": "soman",
      "confidence": 1.0,
      "uuid": "7ba8fa7c-eb4e-45ad-bde5-5365fd12f0ae",
      "name": "Soman",
      "url": "https://haz-map.com/Agents/1453",
      "category": "agents"
    },
    {
      "type": "name_match",
      "text": "tabun",
      "confidence": 1.0,
      "uuid": "b02e68cb-15e4-4ce6-83ac-59115856d563",
      "name": "Tabun",
      "url": "https://haz-map.com/Agents/1454",
      "category": "agents"
    },
    {
      "type": "name_match",
      "text": "vx",
      "confidence": 1.0,
      "uuid": "b7218a14-b130-4ca0-a815-ba4b69602337",
      "name": "VX",
      "url": "https://haz-map.com/Agents/1455",
      "category": "agents"
    },
    {
      "type": "name_match",
      "text": "ht",
      "confidence": 1.0,
      "uuid": "764df367-8d53-4a11-81a2-31ccfe122a8d",
      "name": "HT",
      "url": "https://haz-map.com/Agents/2168",
      "category": "agents"
    },
    {
      "type": "name_match",
      "text": "choline",
      "confidence": 1.0,
      "uuid": "a21a71e9-9d67-4563-9da2-98c4dcb1b766",
      "name": "Choline",
      "url": "https://haz-map.com/Agents/12978",
      "category": "agents"
    },
    {
      "type": "name_match",
      "text": "o-ethyl methylphosphonothioate",
      "confidence": 1.0,
      "uuid": "9c1b0a4b-d0da-45d0-9312-358cbf13c754",
      "name": "O-Ethyl methylphosphonothioate",
      "url": "https://haz-map.com/Agents/16264",
      "category": "agents"
    },
    {
      "type": "name_match",
      "text": "water",
      "confidence": 1.0,
      "uuid": "6f2a7557-dfd2-49bc-9b4b-a93cd8e225d4",
      "name": "Water",
      "url": "https://haz-map.com/Agents/18668",
      "category": "agents"
    }
  ],
  "all_links": [
    {
      "text": "ATSDR - Medical Management: Nerve Agents: Tabun (GA); Sarin (GB); Soman (GD); and VX",
      "url": "http://www.atsdr.cdc.gov/mmg/mmg.asp?id=523&tid=93"
    },
    {
      "text": "Search PubMed",
      "url": "https://www.ncbi.nlm.nih.gov/pubmed?term=VX%20AND%20human%5Bmh%5D%20AND%20%28Occupational%20Diseases%20%5Bmh%5D%20OR%20Occupational%20Exposure%20%5Bmh%5D%29%20%20AND%20%28tox%5Bsb%5D%29&cmd=search"
    },
    {
      "text": "Organophosphates & carbamates, acute poisoning",
      "url": "https://haz-map.com/Diseases/66"
    }
  ]
}