{
  "metadata": {
    "scraped_from": "https://haz-map.com/Agents/12214",
    "entity_name": "Benzohydrol",
    "category": "agents",
    "uuid": "b73a74ff-846b-47b2-b4df-97437cc5210c",
    "scraped_at": "2025-07-23T21:06:27.492279"
  },
  "parsed_at": "2025-07-24T00:57:18.126334",
  "title": "Benzohydrol",
  "sections": {
    "general": {
      "agent_name": {
        "original_name": "Agent Name",
        "value": "Benzohydrol",
        "links": [],
        "cross_references": [
          {
            "type": "name_match",
            "text": "benzohydrol",
            "confidence": 1.0,
            "uuid": "b73a74ff-846b-47b2-b4df-97437cc5210c",
            "name": "Benzohydrol",
            "url": "https://haz-map.com/Agents/12214",
            "category": "agents"
          }
        ]
      },
      "cas_number": {
        "original_name": "CAS Number",
        "value": "91-01-0",
        "links": [],
        "cross_references": []
      },
      "formula": {
        "original_name": "Formula",
        "value": "C13-H12-O",
        "links": [],
        "cross_references": []
      },
      "major_category": {
        "original_name": "Major Category",
        "value": "Other Classes",
        "links": [],
        "cross_references": []
      },
      "synonyms": {
        "original_name": "Synonyms",
        "value": "Benzhydryl alcohol; Diphenyl carbinol; Diphenylcarbinol; Diphenylmethanol; Diphenylmethyl alcohol; Hydroxydiphenylmethane; Benzenemethanol, alpha-phenyl-; Benzhydrol; alpha-Phenylbenzenemethanol; [ChemIDplus]",
        "links": [],
        "cross_references": [
          {
            "type": "name_match",
            "text": "benzene",
            "confidence": 1.0,
            "uuid": "b05124de-5f34-4c14-8f04-ccb20c3780d9",
            "name": "Benzene",
            "url": "https://haz-map.com/Agents/5",
            "category": "agents"
          },
          {
            "type": "name_match",
            "text": "methyl alcohol",
            "confidence": 1.0,
            "uuid": "6b4db7bf-710a-48ac-9b97-40e0376a68f3",
            "name": "Methyl alcohol",
            "url": "https://haz-map.com/Agents/13",
            "category": "agents"
          },
          {
            "type": "name_match",
            "text": "ethyl alcohol",
            "confidence": 1.0,
            "uuid": "9e039165-5b7c-44a7-afb2-dcf3c15e7a99",
            "name": "Ethyl alcohol",
            "url": "https://haz-map.com/Agents/481",
            "category": "agents"
          },
          {
            "type": "name_match",
            "text": "methane",
            "confidence": 1.0,
            "uuid": "5018bf73-24be-4353-8643-c351d5f52186",
            "name": "Methane",
            "url": "https://haz-map.com/Agents/1074",
            "category": "agents"
          },
          {
            "type": "name_match",
            "text": "ethane",
            "confidence": 1.0,
            "uuid": "5162cc8c-dfb9-4060-81ac-38a8cec7f9dd",
            "name": "Ethane",
            "url": "https://haz-map.com/Agents/1075",
            "category": "agents"
          },
          {
            "type": "name_match",
            "text": "diphenylmethane",
            "confidence": 1.0,
            "uuid": "c9ade740-3515-4581-86c9-0a45936d5f72",
            "name": "Diphenylmethane",
            "url": "https://haz-map.com/Agents/2699",
            "category": "agents"
          }
        ]
      },
      "category": {
        "original_name": "Category",
        "value": "Other Aromatic Compounds",
        "links": [],
        "cross_references": []
      },
      "description": {
        "original_name": "Description",
        "value": "Solid; [Merck Index] White crystalline powder; Odorless; [Alfa Aesar MSDS]",
        "links": [],
        "cross_references": [
          {
            "type": "fuzzy_match",
            "text": "crystalline",
            "matched_name": "Silica, crystalline",
            "confidence": 0.7061403508771931,
            "uuid": "f920e8a2-46df-41b7-af8d-0368a777251e",
            "category": "agents",
            "url": "https://haz-map.com/Agents/427"
          }
        ]
      },
      "sourcesuses": {
        "original_name": "Sources/Uses",
        "value": "Used in organic syntheses; [Merck Index]",
        "links": [],
        "cross_references": []
      },
      "comments": {
        "original_name": "Comments",
        "value": "May cause irritation; [Alfa Aesar MSDS] See \"Chlorodiphenylmethane.\"",
        "links": [],
        "cross_references": [
          {
            "type": "name_match",
            "text": "methane",
            "confidence": 1.0,
            "uuid": "5018bf73-24be-4353-8643-c351d5f52186",
            "name": "Methane",
            "url": "https://haz-map.com/Agents/1074",
            "category": "agents"
          },
          {
            "type": "name_match",
            "text": "ethane",
            "confidence": 1.0,
            "uuid": "5162cc8c-dfb9-4060-81ac-38a8cec7f9dd",
            "name": "Ethane",
            "url": "https://haz-map.com/Agents/1075",
            "category": "agents"
          },
          {
            "type": "name_match",
            "text": "diphenylmethane",
            "confidence": 1.0,
            "uuid": "c9ade740-3515-4581-86c9-0a45936d5f72",
            "name": "Diphenylmethane",
            "url": "https://haz-map.com/Agents/2699",
            "category": "agents"
          },
          {
            "type": "name_match",
            "text": "chlorodiphenylmethane",
            "confidence": 1.0,
            "uuid": "d96b418e-422c-4791-93a4-122854feefe3",
            "name": "Chlorodiphenylmethane",
            "url": "https://haz-map.com/Agents/4336",
            "category": "agents"
          }
        ]
      },
      "biomedical_references": {
        "original_name": "Biomedical References",
        "value": "Search PubMed",
        "links": [
          {
            "text": "Search PubMed",
            "url": "https://www.ncbi.nlm.nih.gov/pubmed?term=Benzohydrol%20AND%20human%5Bmh%5D%20AND%20%28Occupational%20Diseases%20%5Bmh%5D%20OR%20Occupational%20Exposure%20%5Bmh%5D%29%20%20AND%20%28tox%5Bsb%5D%29&cmd=search"
          }
        ],
        "cross_references": []
      }
    },
    "exposure_assessment": {
      "vapor_pressure": {
        "original_name": "Vapor Pressure",
        "value": "2.73E-05 mm Hg",
        "links": [],
        "cross_references": []
      }
    },
    "diseases_processes_and_activities_linked_to_this_agent": {
      "other_information": {
        "original_name": "Other Information",
        "value": "No other related information on this agent was found.",
        "links": [],
        "cross_references": []
      }
    }
  },
  "cross_references": [
    {
      "type": "name_match",
      "text": "benzene",
      "confidence": 1.0,
      "uuid": "b05124de-5f34-4c14-8f04-ccb20c3780d9",
      "name": "Benzene",
      "url": "https://haz-map.com/Agents/5",
      "category": "agents"
    },
    {
      "type": "name_match",
      "text": "methyl alcohol",
      "confidence": 1.0,
      "uuid": "6b4db7bf-710a-48ac-9b97-40e0376a68f3",
      "name": "Methyl alcohol",
      "url": "https://haz-map.com/Agents/13",
      "category": "agents"
    },
    {
      "type": "name_match",
      "text": "ethyl alcohol",
      "confidence": 1.0,
      "uuid": "9e039165-5b7c-44a7-afb2-dcf3c15e7a99",
      "name": "Ethyl alcohol",
      "url": "https://haz-map.com/Agents/481",
      "category": "agents"
    },
    {
      "type": "name_match",
      "text": "methane",
      "confidence": 1.0,
      "uuid": "5018bf73-24be-4353-8643-c351d5f52186",
      "name": "Methane",
      "url": "https://haz-map.com/Agents/1074",
      "category": "agents"
    },
    {
      "type": "name_match",
      "text": "ethane",
      "confidence": 1.0,
      "uuid": "5162cc8c-dfb9-4060-81ac-38a8cec7f9dd",
      "name": "Ethane",
      "url": "https://haz-map.com/Agents/1075",
      "category": "agents"
    },
    {
      "type": "name_match",
      "text": "diphenylmethane",
      "confidence": 1.0,
      "uuid": "c9ade740-3515-4581-86c9-0a45936d5f72",
      "name": "Diphenylmethane",
      "url": "https://haz-map.com/Agents/2699",
      "category": "agents"
    },
    {
      "type": "name_match",
      "text": "chlorodiphenylmethane",
      "confidence": 1.0,
      "uuid": "d96b418e-422c-4791-93a4-122854feefe3",
      "name": "Chlorodiphenylmethane",
      "url": "https://haz-map.com/Agents/4336",
      "category": "agents"
    },
    {
      "type": "name_match",
      "text": "benzohydrol",
      "confidence": 1.0,
      "uuid": "b73a74ff-846b-47b2-b4df-97437cc5210c",
      "name": "Benzohydrol",
      "url": "https://haz-map.com/Agents/12214",
      "category": "agents"
    },
    {
      "type": "fuzzy_match",
      "text": "crystalline",
      "matched_name": "Silica, crystalline",
      "confidence": 0.7061403508771931,
      "uuid": "f920e8a2-46df-41b7-af8d-0368a777251e",
      "category": "agents",
      "url": "https://haz-map.com/Agents/427"
    }
  ],
  "all_links": [
    {
      "text": "Search PubMed",
      "url": "https://www.ncbi.nlm.nih.gov/pubmed?term=Benzohydrol%20AND%20human%5Bmh%5D%20AND%20%28Occupational%20Diseases%20%5Bmh%5D%20OR%20Occupational%20Exposure%20%5Bmh%5D%29%20%20AND%20%28tox%5Bsb%5D%29&cmd=search"
    }
  ]
}