{
  "metadata": {
    "scraped_from": "https://haz-map.com/Agents/10116",
    "entity_name": "2-Aminopyrimidine",
    "category": "agents",
    "uuid": "b7812ae7-aebf-4a80-bb7f-db3f53c77492",
    "scraped_at": "2025-07-23T20:44:29.102359"
  },
  "parsed_at": "2025-07-24T00:54:16.708809",
  "title": "2-Aminopyrimidine",
  "sections": {
    "general": {
      "agent_name": {
        "original_name": "Agent Name",
        "value": "2-Aminopyrimidine",
        "links": [],
        "cross_references": [
          {
            "type": "name_match",
            "text": "pyrimidine",
            "confidence": 1.0,
            "uuid": "8c810e75-fc30-4402-838c-43fcd0d46a84",
            "name": "Pyrimidine",
            "url": "https://haz-map.com/Agents/9521",
            "category": "agents"
          },
          {
            "type": "name_match",
            "text": "2-aminopyrimidine",
            "confidence": 1.0,
            "uuid": "b7812ae7-aebf-4a80-bb7f-db3f53c77492",
            "name": "2-Aminopyrimidine",
            "url": "https://haz-map.com/Agents/10116",
            "category": "agents"
          }
        ]
      },
      "cas_number": {
        "original_name": "CAS Number",
        "value": "109-12-6",
        "links": [],
        "cross_references": []
      },
      "formula": {
        "original_name": "Formula",
        "value": "C4-H5-N3",
        "links": [],
        "cross_references": []
      },
      "major_category": {
        "original_name": "Major Category",
        "value": "Nitrogen Compounds",
        "links": [],
        "cross_references": [
          {
            "type": "name_match",
            "text": "nitrogen",
            "confidence": 1.0,
            "uuid": "db5e90a9-06d2-45b9-8b81-f345a89b0bc0",
            "name": "Nitrogen",
            "url": "https://haz-map.com/Agents/1072",
            "category": "agents"
          }
        ]
      },
      "synonyms": {
        "original_name": "Synonyms",
        "value": "1,2-Dihydro-2-iminopyrimidine; 2-Pyrimidiylamine; 2-Pyrimidinamine; Pyrimidin-2-ylamine; Pyrimidine, 1,2-dihydro-2-imino- (7CI); Pyrimidine, 2-amino-; [ChemIDplus]",
        "links": [],
        "cross_references": [
          {
            "type": "name_match",
            "text": "pyrimidine",
            "confidence": 1.0,
            "uuid": "8c810e75-fc30-4402-838c-43fcd0d46a84",
            "name": "Pyrimidine",
            "url": "https://haz-map.com/Agents/9521",
            "category": "agents"
          }
        ]
      },
      "category": {
        "original_name": "Category",
        "value": "Pyrimidines",
        "links": [],
        "cross_references": [
          {
            "type": "name_match",
            "text": "pyrimidine",
            "confidence": 1.0,
            "uuid": "8c810e75-fc30-4402-838c-43fcd0d46a84",
            "name": "Pyrimidine",
            "url": "https://haz-map.com/Agents/9521",
            "category": "agents"
          }
        ]
      },
      "description": {
        "original_name": "Description",
        "value": "White crystalline powder; [Alfa Aesar MSDS]",
        "links": [],
        "cross_references": [
          {
            "type": "fuzzy_match",
            "text": "crystalline",
            "matched_name": "Silica, crystalline",
            "confidence": 0.7061403508771931,
            "uuid": "f920e8a2-46df-41b7-af8d-0368a777251e",
            "category": "agents",
            "url": "https://haz-map.com/Agents/427"
          }
        ]
      },
      "comments": {
        "original_name": "Comments",
        "value": "A skin and strong eye irritant; [Alfa Aesar MSDS] See \"Pyrimidine.\"",
        "links": [],
        "cross_references": [
          {
            "type": "name_match",
            "text": "pyrimidine",
            "confidence": 1.0,
            "uuid": "8c810e75-fc30-4402-838c-43fcd0d46a84",
            "name": "Pyrimidine",
            "url": "https://haz-map.com/Agents/9521",
            "category": "agents"
          }
        ]
      },
      "biomedical_references": {
        "original_name": "Biomedical References",
        "value": "Search PubMed",
        "links": [
          {
            "text": "Search PubMed",
            "url": "https://www.ncbi.nlm.nih.gov/pubmed?term=2-Aminopyrimidine%20AND%20human%5Bmh%5D%20AND%20%28Occupational%20Diseases%20%5Bmh%5D%20OR%20Occupational%20Exposure%20%5Bmh%5D%29%20%20AND%20%28tox%5Bsb%5D%29&cmd=search"
          }
        ],
        "cross_references": []
      }
    },
    "exposure_assessment": {
      "vapor_pressure": {
        "original_name": "Vapor Pressure",
        "value": "0.246 mm Hg",
        "links": [],
        "cross_references": []
      }
    },
    "diseases_processes_and_activities_linked_to_this_agent": {
      "other_information": {
        "original_name": "Other Information",
        "value": "No other related information on this agent was found.",
        "links": [],
        "cross_references": []
      }
    }
  },
  "cross_references": [
    {
      "type": "name_match",
      "text": "nitrogen",
      "confidence": 1.0,
      "uuid": "db5e90a9-06d2-45b9-8b81-f345a89b0bc0",
      "name": "Nitrogen",
      "url": "https://haz-map.com/Agents/1072",
      "category": "agents"
    },
    {
      "type": "name_match",
      "text": "pyrimidine",
      "confidence": 1.0,
      "uuid": "8c810e75-fc30-4402-838c-43fcd0d46a84",
      "name": "Pyrimidine",
      "url": "https://haz-map.com/Agents/9521",
      "category": "agents"
    },
    {
      "type": "name_match",
      "text": "2-aminopyrimidine",
      "confidence": 1.0,
      "uuid": "b7812ae7-aebf-4a80-bb7f-db3f53c77492",
      "name": "2-Aminopyrimidine",
      "url": "https://haz-map.com/Agents/10116",
      "category": "agents"
    },
    {
      "type": "fuzzy_match",
      "text": "crystalline",
      "matched_name": "Silica, crystalline",
      "confidence": 0.7061403508771931,
      "uuid": "f920e8a2-46df-41b7-af8d-0368a777251e",
      "category": "agents",
      "url": "https://haz-map.com/Agents/427"
    }
  ],
  "all_links": [
    {
      "text": "Search PubMed",
      "url": "https://www.ncbi.nlm.nih.gov/pubmed?term=2-Aminopyrimidine%20AND%20human%5Bmh%5D%20AND%20%28Occupational%20Diseases%20%5Bmh%5D%20OR%20Occupational%20Exposure%20%5Bmh%5D%29%20%20AND%20%28tox%5Bsb%5D%29&cmd=search"
    }
  ]
}