{
  "metadata": {
    "scraped_from": "https://haz-map.com/Agents/7624",
    "entity_name": "Triolein",
    "category": "agents",
    "uuid": "b7d8c29c-20a4-4060-90f1-929d4a486554",
    "scraped_at": "2025-07-23T20:14:57.225082"
  },
  "parsed_at": "2025-07-24T00:59:25.598081",
  "title": "Triolein",
  "sections": {
    "general": {
      "agent_name": {
        "original_name": "Agent Name",
        "value": "Triolein",
        "links": [],
        "cross_references": [
          {
            "type": "name_match",
            "text": "triolein",
            "confidence": 1.0,
            "uuid": "b7d8c29c-20a4-4060-90f1-929d4a486554",
            "name": "Triolein",
            "url": "https://haz-map.com/Agents/7624",
            "category": "agents"
          }
        ]
      },
      "cas_number": {
        "original_name": "CAS Number",
        "value": "122-32-7",
        "links": [],
        "cross_references": []
      },
      "formula": {
        "original_name": "Formula",
        "value": "C57-H104-O6",
        "links": [],
        "cross_references": []
      },
      "major_category": {
        "original_name": "Major Category",
        "value": "Biological Agents",
        "links": [],
        "cross_references": []
      },
      "synonyms": {
        "original_name": "Synonyms",
        "value": "1,2,3-Propanetriol tri(9-octandecenoate); 9-Octadecenoic acid, 1,2,3-propanetriyl ester; Glyceryl trioleate; 9-Octadecenoic acid (Z)-, 1,2,3-propanetriyl ester; Aldo TO; Emery 2423; Emery oleic acid ester 2230; Glycerin trioleate; Glycerol trioleate; Glycerol triolein; Glycerol, tri(cis-9-octadecenoate); Glyceryl-1,2,3-trioleate; Oleic acid triglyceride; Oleic triglyceride; Olein; Olein, tri-; Oleyl triglyceride; Raoline; Trioleoylglyceride; Trioleoylglycerol; 1,2,3-Propanetriyl trioleate; [ChemIDplus]",
        "links": [],
        "cross_references": [
          {
            "type": "name_match",
            "text": "emery",
            "confidence": 1.0,
            "uuid": "9c489b3c-513f-41aa-b898-a2242b92d2b4",
            "name": "Emery",
            "url": "https://haz-map.com/Agents/478",
            "category": "agents"
          },
          {
            "type": "name_match",
            "text": "glycerin",
            "confidence": 1.0,
            "uuid": "28d55633-4d0d-446a-82c8-ed15a611f2bd",
            "name": "Glycerin",
            "url": "https://haz-map.com/Agents/501",
            "category": "agents"
          },
          {
            "type": "name_match",
            "text": "propane",
            "confidence": 1.0,
            "uuid": "563a611b-46ea-4bdc-b77b-17d8f7646283",
            "name": "Propane",
            "url": "https://haz-map.com/Agents/607",
            "category": "agents"
          },
          {
            "type": "name_match",
            "text": "oleic acid",
            "confidence": 1.0,
            "uuid": "92fd92b6-f74c-4bd2-b9f1-919fbad882ae",
            "name": "Oleic acid",
            "url": "https://haz-map.com/Agents/6455",
            "category": "agents"
          },
          {
            "type": "name_match",
            "text": "triolein",
            "confidence": 1.0,
            "uuid": "b7d8c29c-20a4-4060-90f1-929d4a486554",
            "name": "Triolein",
            "url": "https://haz-map.com/Agents/7624",
            "category": "agents"
          }
        ]
      },
      "category": {
        "original_name": "Category",
        "value": "Fatty Acids and Fats",
        "links": [],
        "cross_references": []
      },
      "description": {
        "original_name": "Description",
        "value": "Colorless to yellowish odorless liquid; [Merck Index] Clear colorless liquid; [MSDSonline]",
        "links": [],
        "cross_references": []
      },
      "sourcesuses": {
        "original_name": "Sources/Uses",
        "value": "A major component of oils and fats, e.g., olive oil; [Merck Index] Used as lubricant (e.g. for cosmetics, drugs, and textiles), emulsifier (e.g. for water/oil mixtures), intermediate for radioactive iodine derivatives, and plasticizer; Used in sweet almond oil for medicines and cosmetics; [HSDB]",
        "links": [],
        "cross_references": [
          {
            "type": "name_match",
            "text": "iodine",
            "confidence": 1.0,
            "uuid": "7c3af5f1-9c8f-4194-ad3a-5c290dde98f7",
            "name": "Iodine",
            "url": "https://haz-map.com/Agents/522",
            "category": "agents"
          },
          {
            "type": "name_match",
            "text": "water",
            "confidence": 1.0,
            "uuid": "6f2a7557-dfd2-49bc-9b4b-a93cd8e225d4",
            "name": "Water",
            "url": "https://haz-map.com/Agents/18668",
            "category": "agents"
          },
          {
            "type": "name_match",
            "text": "olive oil",
            "confidence": 1.0,
            "uuid": "be6e19a0-6ebc-4d30-bcb0-250819fa7bef",
            "name": "Olive oil",
            "url": "https://haz-map.com/Agents/21392",
            "category": "agents"
          }
        ]
      },
      "comments": {
        "original_name": "Comments",
        "value": "\"In the small intestine, most triglycerides are split into monoglycerides, free fatty acids, and glycerol, which are absorbed by the intestinal mucosa.\" [HSDB] High-dose feeding of rats causes liver changes; [RTECS] May cause irritation; [MSDSonline]",
        "links": [],
        "cross_references": []
      },
      "biomedical_references": {
        "original_name": "Biomedical References",
        "value": "Search PubMed",
        "links": [
          {
            "text": "Search PubMed",
            "url": "https://www.ncbi.nlm.nih.gov/pubmed?term=Triolein%20AND%20human%5Bmh%5D%20AND%20%28Occupational%20Diseases%20%5Bmh%5D%20OR%20Occupational%20Exposure%20%5Bmh%5D%29%20%20AND%20%28tox%5Bsb%5D%29&cmd=search"
          }
        ],
        "cross_references": []
      }
    },
    "exposure_assessment": {
      "vapor_pressure": {
        "original_name": "Vapor Pressure",
        "value": "5.2E-17 mm Hg",
        "links": [],
        "cross_references": []
      }
    },
    "adverse_effects": {
      "hepatotoxin": {
        "original_name": "Hepatotoxin",
        "value": "Hepatoxic (a) from occupational exposure (secondary effect) or (b) in animal studies or in humans after ingestion",
        "links": [],
        "cross_references": []
      }
    },
    "diseases_processes_and_activities_linked_to_this_agent": {
      "processes": {
        "original_name": "Processes",
        "value": "Industrial Processes with risk of exposure: Textiles (Fiber & Fabric Manufacturing)",
        "links": [
          {
            "text": "Textiles (Fiber & Fabric Manufacturing)",
            "url": "https://haz-map.com/Processes/135"
          }
        ],
        "cross_references": [
          {
            "type": "url_match",
            "text": "Textiles (Fiber & Fabric Manufacturing)",
            "url": "https://haz-map.com/Processes/135",
            "confidence": 1.0,
            "uuid": "43ebdcdb-bb09-4402-87b6-ae8cf169dddd",
            "name": "Textiles (Fiber & Fabric Manufacturing)",
            "category": "processes"
          }
        ]
      }
    }
  },
  "cross_references": [
    {
      "type": "url_match",
      "text": "Textiles (Fiber & Fabric Manufacturing)",
      "url": "https://haz-map.com/Processes/135",
      "confidence": 1.0,
      "uuid": "43ebdcdb-bb09-4402-87b6-ae8cf169dddd",
      "name": "Textiles (Fiber & Fabric Manufacturing)",
      "category": "processes"
    },
    {
      "type": "name_match",
      "text": "emery",
      "confidence": 1.0,
      "uuid": "9c489b3c-513f-41aa-b898-a2242b92d2b4",
      "name": "Emery",
      "url": "https://haz-map.com/Agents/478",
      "category": "agents"
    },
    {
      "type": "name_match",
      "text": "glycerin",
      "confidence": 1.0,
      "uuid": "28d55633-4d0d-446a-82c8-ed15a611f2bd",
      "name": "Glycerin",
      "url": "https://haz-map.com/Agents/501",
      "category": "agents"
    },
    {
      "type": "name_match",
      "text": "iodine",
      "confidence": 1.0,
      "uuid": "7c3af5f1-9c8f-4194-ad3a-5c290dde98f7",
      "name": "Iodine",
      "url": "https://haz-map.com/Agents/522",
      "category": "agents"
    },
    {
      "type": "name_match",
      "text": "propane",
      "confidence": 1.0,
      "uuid": "563a611b-46ea-4bdc-b77b-17d8f7646283",
      "name": "Propane",
      "url": "https://haz-map.com/Agents/607",
      "category": "agents"
    },
    {
      "type": "name_match",
      "text": "oleic acid",
      "confidence": 1.0,
      "uuid": "92fd92b6-f74c-4bd2-b9f1-919fbad882ae",
      "name": "Oleic acid",
      "url": "https://haz-map.com/Agents/6455",
      "category": "agents"
    },
    {
      "type": "name_match",
      "text": "triolein",
      "confidence": 1.0,
      "uuid": "b7d8c29c-20a4-4060-90f1-929d4a486554",
      "name": "Triolein",
      "url": "https://haz-map.com/Agents/7624",
      "category": "agents"
    },
    {
      "type": "name_match",
      "text": "water",
      "confidence": 1.0,
      "uuid": "6f2a7557-dfd2-49bc-9b4b-a93cd8e225d4",
      "name": "Water",
      "url": "https://haz-map.com/Agents/18668",
      "category": "agents"
    },
    {
      "type": "name_match",
      "text": "olive oil",
      "confidence": 1.0,
      "uuid": "be6e19a0-6ebc-4d30-bcb0-250819fa7bef",
      "name": "Olive oil",
      "url": "https://haz-map.com/Agents/21392",
      "category": "agents"
    }
  ],
  "all_links": [
    {
      "text": "Search PubMed",
      "url": "https://www.ncbi.nlm.nih.gov/pubmed?term=Triolein%20AND%20human%5Bmh%5D%20AND%20%28Occupational%20Diseases%20%5Bmh%5D%20OR%20Occupational%20Exposure%20%5Bmh%5D%29%20%20AND%20%28tox%5Bsb%5D%29&cmd=search"
    },
    {
      "text": "Textiles (Fiber & Fabric Manufacturing)",
      "url": "https://haz-map.com/Processes/135"
    }
  ]
}