{
  "metadata": {
    "scraped_from": "https://haz-map.com/Agents/21199",
    "entity_name": "N-(2-Methoxyphenyl)acetamide",
    "category": "agents",
    "uuid": "b7fc3184-17c9-46b4-9bbb-6ba5755a222b",
    "scraped_at": "2025-07-23T22:39:22.631731"
  },
  "parsed_at": "2025-07-24T01:16:45.721543",
  "title": "N-(2-Methoxyphenyl)acetamide",
  "sections": {
    "general": {
      "agent_name": {
        "original_name": "Agent Name",
        "value": "N-(2-Methoxyphenyl)acetamide",
        "links": [],
        "cross_references": [
          {
            "type": "name_match",
            "text": "acetamide",
            "confidence": 1.0,
            "uuid": "dd8ffc77-2f5f-4c87-8995-3206d6c9affc",
            "name": "Acetamide",
            "url": "https://haz-map.com/Agents/3385",
            "category": "agents"
          },
          {
            "type": "name_match",
            "text": "n-(2-methoxyphenyl)acetamide",
            "confidence": 1.0,
            "uuid": "b7fc3184-17c9-46b4-9bbb-6ba5755a222b",
            "name": "N-(2-Methoxyphenyl)acetamide",
            "url": "https://haz-map.com/Agents/21199",
            "category": "agents"
          }
        ]
      },
      "cas_number": {
        "original_name": "CAS Number",
        "value": "93-26-5",
        "links": [],
        "cross_references": []
      },
      "formula": {
        "original_name": "Formula",
        "value": "C9-H11-N-O2",
        "links": [],
        "cross_references": []
      },
      "major_category": {
        "original_name": "Major Category",
        "value": "Nitrogen Compounds",
        "links": [],
        "cross_references": [
          {
            "type": "name_match",
            "text": "nitrogen",
            "confidence": 1.0,
            "uuid": "db5e90a9-06d2-45b9-8b81-f345a89b0bc0",
            "name": "Nitrogen",
            "url": "https://haz-map.com/Agents/1072",
            "category": "agents"
          }
        ]
      },
      "synonyms": {
        "original_name": "Synonyms",
        "value": "2'-Methoxyacetanilide; Acetanilide, 2'-methoxy-; o-Acetanisidine; o-Methoxyacetanilide; Acetamide, N-(2-methoxyphenyl)-; o-Acetanisidide; [ChemIDplus] 2'-Methoxyacetanilide; [RTECS]",
        "links": [],
        "cross_references": [
          {
            "type": "name_match",
            "text": "acetamide",
            "confidence": 1.0,
            "uuid": "dd8ffc77-2f5f-4c87-8995-3206d6c9affc",
            "name": "Acetamide",
            "url": "https://haz-map.com/Agents/3385",
            "category": "agents"
          },
          {
            "type": "name_match",
            "text": "acetanilide",
            "confidence": 1.0,
            "uuid": "73a5c68d-8466-44fa-a773-12d44f7b1458",
            "name": "Acetanilide",
            "url": "https://haz-map.com/Agents/3390",
            "category": "agents"
          }
        ]
      },
      "category": {
        "original_name": "Category",
        "value": "Other Aromatics (Nitrogen)",
        "links": [],
        "cross_references": [
          {
            "type": "name_match",
            "text": "nitrogen",
            "confidence": 1.0,
            "uuid": "db5e90a9-06d2-45b9-8b81-f345a89b0bc0",
            "name": "Nitrogen",
            "url": "https://haz-map.com/Agents/1072",
            "category": "agents"
          }
        ]
      },
      "description": {
        "original_name": "Description",
        "value": "Tan powder; [Sigma-Aldrich MSDS]",
        "links": [],
        "cross_references": []
      },
      "comments": {
        "original_name": "Comments",
        "value": "A skin and strong eye irritant; Harmful by ingestion; [Sigma-Aldrich MSDS]",
        "links": [],
        "cross_references": []
      },
      "biomedical_references": {
        "original_name": "Biomedical References",
        "value": "Search PubMed",
        "links": [
          {
            "text": "Search PubMed",
            "url": "https://www.ncbi.nlm.nih.gov/pubmed?term=N-(2-Methoxyphenyl)acetamide%20AND%20human%5Bmh%5D%20AND%20%28Occupational%20Diseases%20%5Bmh%5D%20OR%20Occupational%20Exposure%20%5Bmh%5D%29%20%20AND%20%28tox%5Bsb%5D%29&cmd=search"
          }
        ],
        "cross_references": []
      }
    },
    "exposure_assessment": {
      "vapor_pressure": {
        "original_name": "Vapor Pressure",
        "value": "6.59E-05 mm Hg",
        "links": [],
        "cross_references": []
      }
    },
    "diseases_processes_and_activities_linked_to_this_agent": {
      "other_information": {
        "original_name": "Other Information",
        "value": "No other related information on this agent was found.",
        "links": [],
        "cross_references": []
      }
    }
  },
  "cross_references": [
    {
      "type": "name_match",
      "text": "nitrogen",
      "confidence": 1.0,
      "uuid": "db5e90a9-06d2-45b9-8b81-f345a89b0bc0",
      "name": "Nitrogen",
      "url": "https://haz-map.com/Agents/1072",
      "category": "agents"
    },
    {
      "type": "name_match",
      "text": "acetamide",
      "confidence": 1.0,
      "uuid": "dd8ffc77-2f5f-4c87-8995-3206d6c9affc",
      "name": "Acetamide",
      "url": "https://haz-map.com/Agents/3385",
      "category": "agents"
    },
    {
      "type": "name_match",
      "text": "acetanilide",
      "confidence": 1.0,
      "uuid": "73a5c68d-8466-44fa-a773-12d44f7b1458",
      "name": "Acetanilide",
      "url": "https://haz-map.com/Agents/3390",
      "category": "agents"
    },
    {
      "type": "name_match",
      "text": "n-(2-methoxyphenyl)acetamide",
      "confidence": 1.0,
      "uuid": "b7fc3184-17c9-46b4-9bbb-6ba5755a222b",
      "name": "N-(2-Methoxyphenyl)acetamide",
      "url": "https://haz-map.com/Agents/21199",
      "category": "agents"
    }
  ],
  "all_links": [
    {
      "text": "Search PubMed",
      "url": "https://www.ncbi.nlm.nih.gov/pubmed?term=N-(2-Methoxyphenyl)acetamide%20AND%20human%5Bmh%5D%20AND%20%28Occupational%20Diseases%20%5Bmh%5D%20OR%20Occupational%20Exposure%20%5Bmh%5D%29%20%20AND%20%28tox%5Bsb%5D%29&cmd=search"
    }
  ]
}