{
  "metadata": {
    "scraped_from": "https://haz-map.com/Agents/3742",
    "entity_name": "Arsanilic acid",
    "category": "agents",
    "uuid": "b840c99f-9fe7-4f37-8fc3-2704f8fa4205",
    "scraped_at": "2025-07-23T19:32:36.381449"
  },
  "parsed_at": "2025-07-24T01:02:26.768715",
  "title": "Arsanilic acid",
  "sections": {
    "general": {
      "agent_name": {
        "original_name": "Agent Name",
        "value": "Arsanilic acid",
        "links": [],
        "cross_references": [
          {
            "type": "name_match",
            "text": "arsanilic acid",
            "confidence": 1.0,
            "uuid": "b840c99f-9fe7-4f37-8fc3-2704f8fa4205",
            "name": "Arsanilic acid",
            "url": "https://haz-map.com/Agents/3742",
            "category": "agents"
          }
        ]
      },
      "cas_number": {
        "original_name": "CAS Number",
        "value": "98-50-0",
        "links": [],
        "cross_references": []
      },
      "formula": {
        "original_name": "Formula",
        "value": "C6-H8-As-N-O3",
        "links": [],
        "cross_references": []
      },
      "major_category": {
        "original_name": "Major Category",
        "value": "Metals",
        "links": [],
        "cross_references": []
      },
      "synonyms": {
        "original_name": "Synonyms",
        "value": "(4-Aminophenyl)arsonic acid; 4-Aminobenzenearsonic acid; 4-Aminophenylarsonsaeure; 4-Arsanilic acid; AS-101; AS-101 (VAN); Acide arsanilique [INN-French]; Acide p-arsanilique [French]; Acido arsanilico [INN-Spanish]; Acidum arsanilicum [INN-Latin]; Aminophenylarsine acid; Antoxylic acid; Arsanilic acid-100; Arsonic acid, (4-aminophenyl)-; Atoxylic acid; Benzenearsonic acid, p-amino-; Kyselina arsanilova [Czech]; Pro-Gen; Pro-Gen 227 premix; Progen 90; R-Sonic; p-Aminobenzenearsonic acid; p-Aminophenylarsine acid; p-Aminophenylarsonic acid; p-Anilinearsonic acid; p-Arsanilic acid; [ChemIDplus] UN3465",
        "links": [],
        "cross_references": [
          {
            "type": "name_match",
            "text": "benzene",
            "confidence": 1.0,
            "uuid": "b05124de-5f34-4c14-8f04-ccb20c3780d9",
            "name": "Benzene",
            "url": "https://haz-map.com/Agents/5",
            "category": "agents"
          },
          {
            "type": "name_match",
            "text": "arsine",
            "confidence": 1.0,
            "uuid": "9cbc23fa-8b7b-4fc4-b893-37c76e241fda",
            "name": "Arsine",
            "url": "https://haz-map.com/Agents/80",
            "category": "agents"
          },
          {
            "type": "name_match",
            "text": "aniline",
            "confidence": 1.0,
            "uuid": "e4932692-8d9c-4a98-8c5c-81e55b12aedf",
            "name": "Aniline",
            "url": "https://haz-map.com/Agents/296",
            "category": "agents"
          },
          {
            "type": "name_match",
            "text": "arsanilic acid",
            "confidence": 1.0,
            "uuid": "b840c99f-9fe7-4f37-8fc3-2704f8fa4205",
            "name": "Arsanilic acid",
            "url": "https://haz-map.com/Agents/3742",
            "category": "agents"
          },
          {
            "type": "name_match",
            "text": "benzenearsonic acid",
            "confidence": 1.0,
            "uuid": "1bf218f3-b327-4006-83ec-2f4fb394d350",
            "name": "Benzenearsonic acid",
            "url": "https://haz-map.com/Agents/3837",
            "category": "agents"
          },
          {
            "type": "name_match",
            "text": "arsonic acid",
            "confidence": 1.0,
            "uuid": "45bce923-041a-4f4d-87bb-27be54add395",
            "name": "Arsonic acid",
            "url": "https://haz-map.com/Agents/20261",
            "category": "agents"
          }
        ]
      },
      "category": {
        "original_name": "Category",
        "value": "Arsenic Compounds, Organic",
        "links": [],
        "cross_references": [
          {
            "type": "name_match",
            "text": "arsenic",
            "confidence": 1.0,
            "uuid": "2bf78711-4881-4b55-9b7c-df80529b3991",
            "name": "Arsenic",
            "url": "https://haz-map.com/Agents/1147",
            "category": "agents"
          }
        ]
      },
      "description": {
        "original_name": "Description",
        "value": "White solid; [Hawley] Powder; [MSDSonline]",
        "links": [],
        "cross_references": []
      },
      "sourcesuses": {
        "original_name": "Sources/Uses",
        "value": "Used to make medicinal arsenicals and grasshopper bait; Used in veterinary medicine to control coccidiosis, bloody enteritis, and toxic effects of selenium in cattle and swine; Also used as a antiprotozoan in animal feeds, a livestock growth promoter, and to improve feathering and egg production in chickens and turkeys. [HSDB]",
        "links": [],
        "cross_references": [
          {
            "type": "name_match",
            "text": "selenium",
            "confidence": 1.0,
            "uuid": "88c3436b-5c9d-4005-a842-a4b848085647",
            "name": "Selenium",
            "url": "https://haz-map.com/Agents/66",
            "category": "agents"
          },
          {
            "type": "name_match",
            "text": "arsenic",
            "confidence": 1.0,
            "uuid": "2bf78711-4881-4b55-9b7c-df80529b3991",
            "name": "Arsenic",
            "url": "https://haz-map.com/Agents/1147",
            "category": "agents"
          },
          {
            "type": "name_match",
            "text": "grasshopper",
            "confidence": 1.0,
            "uuid": "77aa1953-81e7-4221-a2be-5f14c2fb4cb1",
            "name": "Grasshopper",
            "url": "https://haz-map.com/Agents/1212",
            "category": "agents"
          }
        ]
      },
      "comments": {
        "original_name": "Comments",
        "value": "An irritant; Toxic by inhalation or ingestion; Effects in high-dose animal studies include hepatitis; [MSDSonline] Not converted into inorganic arsenic in the body; [Nordberg, p. 590] See \"Sodium arsanilate.\"",
        "links": [],
        "cross_references": [
          {
            "type": "name_match",
            "text": "arsenic",
            "confidence": 1.0,
            "uuid": "2bf78711-4881-4b55-9b7c-df80529b3991",
            "name": "Arsenic",
            "url": "https://haz-map.com/Agents/1147",
            "category": "agents"
          },
          {
            "type": "name_match",
            "text": "sodium",
            "confidence": 1.0,
            "uuid": "1adffc42-a4d8-44d5-81d6-7dbd96ef8a6f",
            "name": "Sodium",
            "url": "https://haz-map.com/Agents/1527",
            "category": "agents"
          },
          {
            "type": "name_match",
            "text": "sodium arsanilate",
            "confidence": 1.0,
            "uuid": "765fa07f-aaf6-445d-b455-7fbd985adf5c",
            "name": "Sodium arsanilate",
            "url": "https://haz-map.com/Agents/7073",
            "category": "agents"
          }
        ]
      },
      "biomedical_references": {
        "original_name": "Biomedical References",
        "value": "Search PubMed",
        "links": [
          {
            "text": "Search PubMed",
            "url": "https://www.ncbi.nlm.nih.gov/pubmed?term=Arsanilic+acid%20AND%20human%5Bmh%5D%20AND%20%28Occupational%20Diseases%20%5Bmh%5D%20OR%20Occupational%20Exposure%20%5Bmh%5D%29%20%20AND%20%28tox%5Bsb%5D%29&cmd=search"
          }
        ],
        "cross_references": []
      }
    },
    "exposure_assessment": {
      "pel_osha": {
        "original_name": "PEL (OSHA)",
        "value": "0.5 mg/m3, as As",
        "links": [],
        "cross_references": []
      },
      "vapor_pressure": {
        "original_name": "Vapor Pressure",
        "value": "1.88E+09 mm Hg",
        "links": [],
        "cross_references": []
      },
      "explanatory_notes": {
        "original_name": "Explanatory Notes",
        "value": "The Guide in the Emergency Response Guidebook is for \"Organoarsenic compound, solid, n.o.s.\"",
        "links": [],
        "cross_references": [
          {
            "type": "name_match",
            "text": "arsenic",
            "confidence": 1.0,
            "uuid": "2bf78711-4881-4b55-9b7c-df80529b3991",
            "name": "Arsenic",
            "url": "https://haz-map.com/Agents/1147",
            "category": "agents"
          }
        ]
      }
    },
    "adverse_effects": {
      "hepatotoxin": {
        "original_name": "Hepatotoxin",
        "value": "Hepatoxic (a) from occupational exposure (secondary effect) or (b) in animal studies or in humans after ingestion",
        "links": [],
        "cross_references": []
      }
    },
    "diseases_processes_and_activities_linked_to_this_agent": {
      "processes": {
        "original_name": "Processes",
        "value": "Industrial Processes with risk of exposure: Farming (Feed Additives)",
        "links": [
          {
            "text": "Farming (Feed Additives)",
            "url": "https://haz-map.com/Processes/262"
          }
        ],
        "cross_references": []
      }
    }
  },
  "cross_references": [
    {
      "type": "name_match",
      "text": "benzene",
      "confidence": 1.0,
      "uuid": "b05124de-5f34-4c14-8f04-ccb20c3780d9",
      "name": "Benzene",
      "url": "https://haz-map.com/Agents/5",
      "category": "agents"
    },
    {
      "type": "name_match",
      "text": "selenium",
      "confidence": 1.0,
      "uuid": "88c3436b-5c9d-4005-a842-a4b848085647",
      "name": "Selenium",
      "url": "https://haz-map.com/Agents/66",
      "category": "agents"
    },
    {
      "type": "name_match",
      "text": "arsine",
      "confidence": 1.0,
      "uuid": "9cbc23fa-8b7b-4fc4-b893-37c76e241fda",
      "name": "Arsine",
      "url": "https://haz-map.com/Agents/80",
      "category": "agents"
    },
    {
      "type": "name_match",
      "text": "aniline",
      "confidence": 1.0,
      "uuid": "e4932692-8d9c-4a98-8c5c-81e55b12aedf",
      "name": "Aniline",
      "url": "https://haz-map.com/Agents/296",
      "category": "agents"
    },
    {
      "type": "name_match",
      "text": "arsenic",
      "confidence": 1.0,
      "uuid": "2bf78711-4881-4b55-9b7c-df80529b3991",
      "name": "Arsenic",
      "url": "https://haz-map.com/Agents/1147",
      "category": "agents"
    },
    {
      "type": "name_match",
      "text": "grasshopper",
      "confidence": 1.0,
      "uuid": "77aa1953-81e7-4221-a2be-5f14c2fb4cb1",
      "name": "Grasshopper",
      "url": "https://haz-map.com/Agents/1212",
      "category": "agents"
    },
    {
      "type": "name_match",
      "text": "sodium",
      "confidence": 1.0,
      "uuid": "1adffc42-a4d8-44d5-81d6-7dbd96ef8a6f",
      "name": "Sodium",
      "url": "https://haz-map.com/Agents/1527",
      "category": "agents"
    },
    {
      "type": "name_match",
      "text": "arsanilic acid",
      "confidence": 1.0,
      "uuid": "b840c99f-9fe7-4f37-8fc3-2704f8fa4205",
      "name": "Arsanilic acid",
      "url": "https://haz-map.com/Agents/3742",
      "category": "agents"
    },
    {
      "type": "name_match",
      "text": "benzenearsonic acid",
      "confidence": 1.0,
      "uuid": "1bf218f3-b327-4006-83ec-2f4fb394d350",
      "name": "Benzenearsonic acid",
      "url": "https://haz-map.com/Agents/3837",
      "category": "agents"
    },
    {
      "type": "name_match",
      "text": "sodium arsanilate",
      "confidence": 1.0,
      "uuid": "765fa07f-aaf6-445d-b455-7fbd985adf5c",
      "name": "Sodium arsanilate",
      "url": "https://haz-map.com/Agents/7073",
      "category": "agents"
    },
    {
      "type": "name_match",
      "text": "arsonic acid",
      "confidence": 1.0,
      "uuid": "45bce923-041a-4f4d-87bb-27be54add395",
      "name": "Arsonic acid",
      "url": "https://haz-map.com/Agents/20261",
      "category": "agents"
    }
  ],
  "all_links": [
    {
      "text": "Search PubMed",
      "url": "https://www.ncbi.nlm.nih.gov/pubmed?term=Arsanilic+acid%20AND%20human%5Bmh%5D%20AND%20%28Occupational%20Diseases%20%5Bmh%5D%20OR%20Occupational%20Exposure%20%5Bmh%5D%29%20%20AND%20%28tox%5Bsb%5D%29&cmd=search"
    },
    {
      "text": "Farming (Feed Additives)",
      "url": "https://haz-map.com/Processes/262"
    }
  ]
}