{
  "metadata": {
    "scraped_from": "https://haz-map.com/Agents/9664",
    "entity_name": "4,4'-Dibromobiphenyl",
    "category": "agents",
    "uuid": "b8865a67-cc17-42ea-a467-ef0378b9c915",
    "scraped_at": "2025-07-23T20:40:50.092436"
  },
  "parsed_at": "2025-07-24T01:17:33.722793",
  "title": "4,4'-Dibromobiphenyl",
  "sections": {
    "general": {
      "agent_name": {
        "original_name": "Agent Name",
        "value": "4,4'-Dibromobiphenyl",
        "links": [],
        "cross_references": [
          {
            "type": "name_match",
            "text": "biphenyl",
            "confidence": 1.0,
            "uuid": "740f90cb-888a-4a3b-b9ae-30768927fec2",
            "name": "Biphenyl",
            "url": "https://haz-map.com/Agents/306",
            "category": "agents"
          },
          {
            "type": "name_match",
            "text": "4,4'-dibromobiphenyl",
            "confidence": 1.0,
            "uuid": "b8865a67-cc17-42ea-a467-ef0378b9c915",
            "name": "4,4'-Dibromobiphenyl",
            "url": "https://haz-map.com/Agents/9664",
            "category": "agents"
          }
        ]
      },
      "cas_number": {
        "original_name": "CAS Number",
        "value": "92-86-4",
        "links": [],
        "cross_references": []
      },
      "formula": {
        "original_name": "Formula",
        "value": "C12-H8-Br2",
        "links": [],
        "cross_references": []
      },
      "major_category": {
        "original_name": "Major Category",
        "value": "Other Classes",
        "links": [],
        "cross_references": []
      },
      "synonyms": {
        "original_name": "Synonyms",
        "value": "p,p'-Dibromobiphenyl; 1,1'-Biphenyl, 4,4'-dibromo-; Biphenyl, 4,4'-dibromo- (8CI); [ChemIDplus] UN3152",
        "links": [],
        "cross_references": [
          {
            "type": "name_match",
            "text": "biphenyl",
            "confidence": 1.0,
            "uuid": "740f90cb-888a-4a3b-b9ae-30768927fec2",
            "name": "Biphenyl",
            "url": "https://haz-map.com/Agents/306",
            "category": "agents"
          }
        ]
      },
      "category": {
        "original_name": "Category",
        "value": "Halogenated Polyaromatics",
        "links": [],
        "cross_references": []
      },
      "description": {
        "original_name": "Description",
        "value": "White powder; [Alfa Aesar MSDS]",
        "links": [],
        "cross_references": []
      },
      "comments": {
        "original_name": "Comments",
        "value": "\"Induces drug metabolism enzymes.\" [ChemIDplus] A skin and strong eye irritant; [Alfa Aesar MSDS] See \"Polybrominated biphenyls.\"",
        "links": [],
        "cross_references": [
          {
            "type": "name_match",
            "text": "polybrominated biphenyls",
            "confidence": 1.0,
            "uuid": "52c880e8-025b-45a3-8aeb-9e0cf4c3da40",
            "name": "Polybrominated biphenyls",
            "url": "https://haz-map.com/Agents/47",
            "category": "agents"
          },
          {
            "type": "name_match",
            "text": "biphenyl",
            "confidence": 1.0,
            "uuid": "740f90cb-888a-4a3b-b9ae-30768927fec2",
            "name": "Biphenyl",
            "url": "https://haz-map.com/Agents/306",
            "category": "agents"
          },
          {
            "type": "name_match",
            "text": "enzymes",
            "confidence": 1.0,
            "uuid": "fe84a5f3-127f-4a3f-bd93-9a905dddee93",
            "name": "ENZYMES",
            "url": "https://haz-map.com/Agents/741",
            "category": "agents"
          }
        ]
      },
      "biomedical_references": {
        "original_name": "Biomedical References",
        "value": "Search PubMed",
        "links": [
          {
            "text": "Search PubMed",
            "url": "https://www.ncbi.nlm.nih.gov/pubmed?term=4%2c4%26%2339%3b-Dibromobiphenyl%20AND%20human%5Bmh%5D%20AND%20%28Occupational%20Diseases%20%5Bmh%5D%20OR%20Occupational%20Exposure%20%5Bmh%5D%29%20%20AND%20%28tox%5Bsb%5D%29&cmd=search"
          }
        ],
        "cross_references": []
      }
    },
    "exposure_assessment": {
      "vapor_pressure": {
        "original_name": "Vapor Pressure",
        "value": "2.46E-05 mm Hg",
        "links": [],
        "cross_references": []
      },
      "explanatory_notes": {
        "original_name": "Explanatory Notes",
        "value": "The Guide in the Emergency Response Guidebook is for \"Polyhalogenated biphenyls, solid.\"",
        "links": [],
        "cross_references": [
          {
            "type": "name_match",
            "text": "biphenyl",
            "confidence": 1.0,
            "uuid": "740f90cb-888a-4a3b-b9ae-30768927fec2",
            "name": "Biphenyl",
            "url": "https://haz-map.com/Agents/306",
            "category": "agents"
          }
        ]
      }
    },
    "adverse_effects": {
      "hepatotoxin": {
        "original_name": "Hepatotoxin",
        "value": "Hepatoxic (a) from occupational exposure (secondary effect) or (b) in animal studies or in humans after ingestion",
        "links": [],
        "cross_references": []
      },
      "reproductive_toxin": {
        "original_name": "Reproductive Toxin",
        "value": "Yes",
        "links": [],
        "cross_references": []
      },
      "dermatotoxin": {
        "original_name": "Dermatotoxin",
        "value": "Chloracne",
        "links": [],
        "cross_references": [
          {
            "type": "name_match",
            "text": "chloracne",
            "confidence": 1.0,
            "uuid": "5bb01810-1c34-450f-986e-26a644748ce8",
            "name": "Chloracne",
            "url": "https://haz-map.com/Diseases/215",
            "category": "diseases"
          },
          {
            "type": "name_match",
            "text": "acne",
            "confidence": 1.0,
            "uuid": "f329eccb-9e30-4782-83cb-36dfe9817bbf",
            "name": "acne",
            "url": "https://haz-map.com/Findings/133",
            "category": "findings"
          }
        ]
      }
    },
    "diseases_processes_and_activities_linked_to_this_agent": {
      "diseases": {
        "original_name": "Diseases",
        "value": "Occupational diseases associated with exposure to this agent: Chloracne",
        "links": [
          {
            "text": "Chloracne",
            "url": "https://haz-map.com/Diseases/215"
          }
        ],
        "cross_references": [
          {
            "type": "url_match",
            "text": "Chloracne",
            "url": "https://haz-map.com/Diseases/215",
            "confidence": 1.0,
            "uuid": "5bb01810-1c34-450f-986e-26a644748ce8",
            "name": "Chloracne",
            "category": "diseases"
          },
          {
            "type": "name_match",
            "text": "acne",
            "confidence": 1.0,
            "uuid": "f329eccb-9e30-4782-83cb-36dfe9817bbf",
            "name": "acne",
            "url": "https://haz-map.com/Findings/133",
            "category": "findings"
          }
        ]
      }
    }
  },
  "cross_references": [
    {
      "type": "url_match",
      "text": "Chloracne",
      "url": "https://haz-map.com/Diseases/215",
      "confidence": 1.0,
      "uuid": "5bb01810-1c34-450f-986e-26a644748ce8",
      "name": "Chloracne",
      "category": "diseases"
    },
    {
      "type": "name_match",
      "text": "acne",
      "confidence": 1.0,
      "uuid": "f329eccb-9e30-4782-83cb-36dfe9817bbf",
      "name": "acne",
      "url": "https://haz-map.com/Findings/133",
      "category": "findings"
    },
    {
      "type": "name_match",
      "text": "polybrominated biphenyls",
      "confidence": 1.0,
      "uuid": "52c880e8-025b-45a3-8aeb-9e0cf4c3da40",
      "name": "Polybrominated biphenyls",
      "url": "https://haz-map.com/Agents/47",
      "category": "agents"
    },
    {
      "type": "name_match",
      "text": "biphenyl",
      "confidence": 1.0,
      "uuid": "740f90cb-888a-4a3b-b9ae-30768927fec2",
      "name": "Biphenyl",
      "url": "https://haz-map.com/Agents/306",
      "category": "agents"
    },
    {
      "type": "name_match",
      "text": "enzymes",
      "confidence": 1.0,
      "uuid": "fe84a5f3-127f-4a3f-bd93-9a905dddee93",
      "name": "ENZYMES",
      "url": "https://haz-map.com/Agents/741",
      "category": "agents"
    },
    {
      "type": "name_match",
      "text": "4,4'-dibromobiphenyl",
      "confidence": 1.0,
      "uuid": "b8865a67-cc17-42ea-a467-ef0378b9c915",
      "name": "4,4'-Dibromobiphenyl",
      "url": "https://haz-map.com/Agents/9664",
      "category": "agents"
    }
  ],
  "all_links": [
    {
      "text": "Search PubMed",
      "url": "https://www.ncbi.nlm.nih.gov/pubmed?term=4%2c4%26%2339%3b-Dibromobiphenyl%20AND%20human%5Bmh%5D%20AND%20%28Occupational%20Diseases%20%5Bmh%5D%20OR%20Occupational%20Exposure%20%5Bmh%5D%29%20%20AND%20%28tox%5Bsb%5D%29&cmd=search"
    },
    {
      "text": "Chloracne",
      "url": "https://haz-map.com/Diseases/215"
    }
  ]
}