{
  "metadata": {
    "scraped_from": "https://haz-map.com/Agents/4628",
    "entity_name": "Cypromid",
    "category": "agents",
    "uuid": "b8b3fd4f-eeae-4a3c-b65a-501c0a26092e",
    "scraped_at": "2025-07-23T19:43:03.417309"
  },
  "parsed_at": "2025-07-24T01:07:57.288053",
  "title": "Cypromid",
  "sections": {
    "general": {
      "agent_name": {
        "original_name": "Agent Name",
        "value": "Cypromid",
        "links": [],
        "cross_references": [
          {
            "type": "name_match",
            "text": "cypromid",
            "confidence": 1.0,
            "uuid": "b8b3fd4f-eeae-4a3c-b65a-501c0a26092e",
            "name": "Cypromid",
            "url": "https://haz-map.com/Agents/4628",
            "category": "agents"
          }
        ]
      },
      "cas_number": {
        "original_name": "CAS Number",
        "value": "2759-71-9",
        "links": [],
        "cross_references": []
      },
      "formula": {
        "original_name": "Formula",
        "value": "C10-H9-Cl2-N-O",
        "links": [],
        "cross_references": []
      },
      "major_category": {
        "original_name": "Major Category",
        "value": "Pesticides",
        "links": [],
        "cross_references": []
      },
      "synonyms": {
        "original_name": "Synonyms",
        "value": "3',4'-Dichlorocyclopropanecarboxanilide; 3,4-Dichloranilid kyseliny cyklopropankarboxylove [Czech]; Cipromid; Clobber; Cyclopropanecarboxamide, N-(3,4-dichlorophenyl)- (9CI); Cypromid [ANSI]; Cypromide; N-(3,4-Dichlorophenyl)cyclopropanecarboxamide; S 6000; S-6000; [ChemIDplus]",
        "links": [],
        "cross_references": [
          {
            "type": "name_match",
            "text": "propane",
            "confidence": 1.0,
            "uuid": "563a611b-46ea-4bdc-b77b-17d8f7646283",
            "name": "Propane",
            "url": "https://haz-map.com/Agents/607",
            "category": "agents"
          },
          {
            "type": "name_match",
            "text": "dichlorophen",
            "confidence": 1.0,
            "uuid": "43441a9d-e8c4-49f1-8bbf-52d24da33df3",
            "name": "Dichlorophen",
            "url": "https://haz-map.com/Agents/1159",
            "category": "agents"
          },
          {
            "type": "name_match",
            "text": "chloranil",
            "confidence": 1.0,
            "uuid": "b0d4b2cf-1a0d-49c6-8515-19691b9f6e49",
            "name": "Chloranil",
            "url": "https://haz-map.com/Agents/4278",
            "category": "agents"
          },
          {
            "type": "name_match",
            "text": "cyclopropane",
            "confidence": 1.0,
            "uuid": "eff680c8-2b85-4f0d-9c04-449434d56b54",
            "name": "Cyclopropane",
            "url": "https://haz-map.com/Agents/4611",
            "category": "agents"
          },
          {
            "type": "name_match",
            "text": "cypromid",
            "confidence": 1.0,
            "uuid": "b8b3fd4f-eeae-4a3c-b65a-501c0a26092e",
            "name": "Cypromid",
            "url": "https://haz-map.com/Agents/4628",
            "category": "agents"
          },
          {
            "type": "name_match",
            "text": "oxamide",
            "confidence": 1.0,
            "uuid": "3b911451-e34f-4ab7-9228-2919a8e1aad5",
            "name": "Oxamide",
            "url": "https://haz-map.com/Agents/16307",
            "category": "agents"
          }
        ]
      },
      "category": {
        "original_name": "Category",
        "value": "Herbicides, Anilide",
        "links": [],
        "cross_references": [
          {
            "type": "name_match",
            "text": "herbicides",
            "confidence": 1.0,
            "uuid": "195f29ae-3f15-47c5-836d-0a9791db3fc1",
            "name": "HERBICIDES",
            "url": "https://haz-map.com/Agents/703",
            "category": "agents"
          }
        ]
      },
      "sourcesuses": {
        "original_name": "Sources/Uses",
        "value": "Used as post-emergence herbicide for corn and onions; Discontinued by Gulf Oil Chemicals Co.; [HSDB]",
        "links": [],
        "cross_references": [
          {
            "type": "name_match",
            "text": "mica",
            "confidence": 1.0,
            "uuid": "433f26f1-c399-4596-b179-ce3843cfd465",
            "name": "Mica",
            "url": "https://haz-map.com/Agents/621",
            "category": "agents"
          },
          {
            "type": "name_match",
            "text": "onions",
            "confidence": 1.0,
            "uuid": "0cea53cd-ef9b-436d-a6c3-1b3e2b0ffaae",
            "name": "Onions",
            "url": "https://haz-map.com/Agents/990",
            "category": "agents"
          }
        ]
      },
      "comments": {
        "original_name": "Comments",
        "value": "A mild irritant; [HSDB]",
        "links": [],
        "cross_references": []
      },
      "restricted": {
        "original_name": "Restricted",
        "value": "No longer registered as a pesticide for use in the US; [HSDB]",
        "links": [],
        "cross_references": []
      },
      "biomedical_references": {
        "original_name": "Biomedical References",
        "value": "Search PubMed",
        "links": [
          {
            "text": "Search PubMed",
            "url": "https://www.ncbi.nlm.nih.gov/pubmed?term=Cypromid%20AND%20human%5Bmh%5D%20AND%20%28Occupational%20Diseases%20%5Bmh%5D%20OR%20Occupational%20Exposure%20%5Bmh%5D%29%20%20AND%20%28tox%5Bsb%5D%29&cmd=search"
          }
        ],
        "cross_references": []
      }
    },
    "exposure_assessment": {
      "vapor_pressure": {
        "original_name": "Vapor Pressure",
        "value": "3.69E-06 mm Hg",
        "links": [],
        "cross_references": []
      }
    },
    "diseases_processes_and_activities_linked_to_this_agent": {
      "processes": {
        "original_name": "Processes",
        "value": "Industrial Processes with risk of exposure: Farming (Pesticides)",
        "links": [
          {
            "text": "Farming (Pesticides)",
            "url": "https://haz-map.com/Processes/218"
          }
        ],
        "cross_references": [
          {
            "type": "url_match",
            "text": "Farming (Pesticides)",
            "url": "https://haz-map.com/Processes/218",
            "confidence": 1.0,
            "uuid": "cf1e5815-c9bb-4917-82a5-391848170b7e",
            "name": "Farming (Pesticides)",
            "category": "processes"
          }
        ]
      }
    }
  },
  "cross_references": [
    {
      "type": "url_match",
      "text": "Farming (Pesticides)",
      "url": "https://haz-map.com/Processes/218",
      "confidence": 1.0,
      "uuid": "cf1e5815-c9bb-4917-82a5-391848170b7e",
      "name": "Farming (Pesticides)",
      "category": "processes"
    },
    {
      "type": "name_match",
      "text": "propane",
      "confidence": 1.0,
      "uuid": "563a611b-46ea-4bdc-b77b-17d8f7646283",
      "name": "Propane",
      "url": "https://haz-map.com/Agents/607",
      "category": "agents"
    },
    {
      "type": "name_match",
      "text": "mica",
      "confidence": 1.0,
      "uuid": "433f26f1-c399-4596-b179-ce3843cfd465",
      "name": "Mica",
      "url": "https://haz-map.com/Agents/621",
      "category": "agents"
    },
    {
      "type": "name_match",
      "text": "herbicides",
      "confidence": 1.0,
      "uuid": "195f29ae-3f15-47c5-836d-0a9791db3fc1",
      "name": "HERBICIDES",
      "url": "https://haz-map.com/Agents/703",
      "category": "agents"
    },
    {
      "type": "name_match",
      "text": "onions",
      "confidence": 1.0,
      "uuid": "0cea53cd-ef9b-436d-a6c3-1b3e2b0ffaae",
      "name": "Onions",
      "url": "https://haz-map.com/Agents/990",
      "category": "agents"
    },
    {
      "type": "name_match",
      "text": "dichlorophen",
      "confidence": 1.0,
      "uuid": "43441a9d-e8c4-49f1-8bbf-52d24da33df3",
      "name": "Dichlorophen",
      "url": "https://haz-map.com/Agents/1159",
      "category": "agents"
    },
    {
      "type": "name_match",
      "text": "chloranil",
      "confidence": 1.0,
      "uuid": "b0d4b2cf-1a0d-49c6-8515-19691b9f6e49",
      "name": "Chloranil",
      "url": "https://haz-map.com/Agents/4278",
      "category": "agents"
    },
    {
      "type": "name_match",
      "text": "cyclopropane",
      "confidence": 1.0,
      "uuid": "eff680c8-2b85-4f0d-9c04-449434d56b54",
      "name": "Cyclopropane",
      "url": "https://haz-map.com/Agents/4611",
      "category": "agents"
    },
    {
      "type": "name_match",
      "text": "cypromid",
      "confidence": 1.0,
      "uuid": "b8b3fd4f-eeae-4a3c-b65a-501c0a26092e",
      "name": "Cypromid",
      "url": "https://haz-map.com/Agents/4628",
      "category": "agents"
    },
    {
      "type": "name_match",
      "text": "oxamide",
      "confidence": 1.0,
      "uuid": "3b911451-e34f-4ab7-9228-2919a8e1aad5",
      "name": "Oxamide",
      "url": "https://haz-map.com/Agents/16307",
      "category": "agents"
    }
  ],
  "all_links": [
    {
      "text": "Search PubMed",
      "url": "https://www.ncbi.nlm.nih.gov/pubmed?term=Cypromid%20AND%20human%5Bmh%5D%20AND%20%28Occupational%20Diseases%20%5Bmh%5D%20OR%20Occupational%20Exposure%20%5Bmh%5D%29%20%20AND%20%28tox%5Bsb%5D%29&cmd=search"
    },
    {
      "text": "Farming (Pesticides)",
      "url": "https://haz-map.com/Processes/218"
    }
  ]
}