{
  "metadata": {
    "scraped_from": "https://haz-map.com/Agents/21279",
    "entity_name": "N-Nitroso-2,6-dimethylpiperidine",
    "category": "agents",
    "uuid": "b8b79a41-7868-4b22-b12b-25d010a396f7",
    "scraped_at": "2025-07-23T22:40:51.404929"
  },
  "parsed_at": "2025-07-24T01:14:08.186575",
  "title": "N-Nitroso-2,6-dimethylpiperidine",
  "sections": {
    "general": {
      "agent_name": {
        "original_name": "Agent Name",
        "value": "N-Nitroso-2,6-dimethylpiperidine",
        "links": [],
        "cross_references": [
          {
            "type": "name_match",
            "text": "piperidine",
            "confidence": 1.0,
            "uuid": "622e458e-e32f-4d3a-80d2-7455291a8a04",
            "name": "Piperidine",
            "url": "https://haz-map.com/Agents/1427",
            "category": "agents"
          },
          {
            "type": "name_match",
            "text": "2,6-dimethylpiperidine",
            "confidence": 1.0,
            "uuid": "1097feab-412e-493d-a39b-faaaf20ba52a",
            "name": "2,6-Dimethylpiperidine",
            "url": "https://haz-map.com/Agents/19504",
            "category": "agents"
          },
          {
            "type": "name_match",
            "text": "n-nitroso-2,6-dimethylpiperidine",
            "confidence": 1.0,
            "uuid": "b8b79a41-7868-4b22-b12b-25d010a396f7",
            "name": "N-Nitroso-2,6-dimethylpiperidine",
            "url": "https://haz-map.com/Agents/21279",
            "category": "agents"
          }
        ]
      },
      "cas_number": {
        "original_name": "CAS Number",
        "value": "17721-95-8",
        "links": [],
        "cross_references": []
      },
      "formula": {
        "original_name": "Formula",
        "value": "C7-H14-N2-O",
        "links": [],
        "cross_references": []
      },
      "major_category": {
        "original_name": "Major Category",
        "value": "Nitrogen Compounds",
        "links": [],
        "cross_references": [
          {
            "type": "name_match",
            "text": "nitrogen",
            "confidence": 1.0,
            "uuid": "db5e90a9-06d2-45b9-8b81-f345a89b0bc0",
            "name": "Nitrogen",
            "url": "https://haz-map.com/Agents/1072",
            "category": "agents"
          }
        ]
      },
      "synonyms": {
        "original_name": "Synonyms",
        "value": "2,6-Dimethyl-1-nitrosopiperidine; 2,6-Dimethyl-N-nitrosopiperidine; 2,6-Dimethylnitrosopiperidine; Piperidine, 2,6-dimethyl-1-nitroso-; [ChemIDplus]",
        "links": [],
        "cross_references": [
          {
            "type": "name_match",
            "text": "piperidine",
            "confidence": 1.0,
            "uuid": "622e458e-e32f-4d3a-80d2-7455291a8a04",
            "name": "Piperidine",
            "url": "https://haz-map.com/Agents/1427",
            "category": "agents"
          },
          {
            "type": "name_match",
            "text": "n-nitrosopiperidine",
            "confidence": 1.0,
            "uuid": "832c6e62-9aef-45a6-b181-0c9c7bc422ec",
            "name": "N-Nitrosopiperidine",
            "url": "https://haz-map.com/Agents/6265",
            "category": "agents"
          }
        ]
      },
      "category": {
        "original_name": "Category",
        "value": "Nitrosamines",
        "links": [],
        "cross_references": [
          {
            "type": "name_match",
            "text": "nitrosamines",
            "confidence": 1.0,
            "uuid": "71647706-f82f-4f7a-a1ad-2500c04c2ac0",
            "name": "NITROSAMINES",
            "url": "https://haz-map.com/Agents/767",
            "category": "agents"
          }
        ]
      },
      "comments": {
        "original_name": "Comments",
        "value": "See \"NITROSAMINES.\"",
        "links": [],
        "cross_references": [
          {
            "type": "name_match",
            "text": "nitrosamines",
            "confidence": 1.0,
            "uuid": "71647706-f82f-4f7a-a1ad-2500c04c2ac0",
            "name": "NITROSAMINES",
            "url": "https://haz-map.com/Agents/767",
            "category": "agents"
          }
        ]
      },
      "biomedical_references": {
        "original_name": "Biomedical References",
        "value": "Search PubMed",
        "links": [
          {
            "text": "Search PubMed",
            "url": "https://www.ncbi.nlm.nih.gov/pubmed?term=N-Nitroso-2%2c6-dimethylpiperidine%20AND%20human%5Bmh%5D%20AND%20%28Occupational%20Diseases%20%5Bmh%5D%20OR%20Occupational%20Exposure%20%5Bmh%5D%29%20%20AND%20%28tox%5Bsb%5D%29&cmd=search"
          }
        ],
        "cross_references": []
      }
    },
    "exposure_assessment": {
      "vapor_pressure": {
        "original_name": "Vapor Pressure",
        "value": "0.034 mm Hg",
        "links": [],
        "cross_references": []
      }
    },
    "diseases_processes_and_activities_linked_to_this_agent": {
      "other_information": {
        "original_name": "Other Information",
        "value": "No other related information on this agent was found.",
        "links": [],
        "cross_references": []
      }
    }
  },
  "cross_references": [
    {
      "type": "name_match",
      "text": "nitrosamines",
      "confidence": 1.0,
      "uuid": "71647706-f82f-4f7a-a1ad-2500c04c2ac0",
      "name": "NITROSAMINES",
      "url": "https://haz-map.com/Agents/767",
      "category": "agents"
    },
    {
      "type": "name_match",
      "text": "nitrogen",
      "confidence": 1.0,
      "uuid": "db5e90a9-06d2-45b9-8b81-f345a89b0bc0",
      "name": "Nitrogen",
      "url": "https://haz-map.com/Agents/1072",
      "category": "agents"
    },
    {
      "type": "name_match",
      "text": "piperidine",
      "confidence": 1.0,
      "uuid": "622e458e-e32f-4d3a-80d2-7455291a8a04",
      "name": "Piperidine",
      "url": "https://haz-map.com/Agents/1427",
      "category": "agents"
    },
    {
      "type": "name_match",
      "text": "n-nitrosopiperidine",
      "confidence": 1.0,
      "uuid": "832c6e62-9aef-45a6-b181-0c9c7bc422ec",
      "name": "N-Nitrosopiperidine",
      "url": "https://haz-map.com/Agents/6265",
      "category": "agents"
    },
    {
      "type": "name_match",
      "text": "2,6-dimethylpiperidine",
      "confidence": 1.0,
      "uuid": "1097feab-412e-493d-a39b-faaaf20ba52a",
      "name": "2,6-Dimethylpiperidine",
      "url": "https://haz-map.com/Agents/19504",
      "category": "agents"
    },
    {
      "type": "name_match",
      "text": "n-nitroso-2,6-dimethylpiperidine",
      "confidence": 1.0,
      "uuid": "b8b79a41-7868-4b22-b12b-25d010a396f7",
      "name": "N-Nitroso-2,6-dimethylpiperidine",
      "url": "https://haz-map.com/Agents/21279",
      "category": "agents"
    }
  ],
  "all_links": [
    {
      "text": "Search PubMed",
      "url": "https://www.ncbi.nlm.nih.gov/pubmed?term=N-Nitroso-2%2c6-dimethylpiperidine%20AND%20human%5Bmh%5D%20AND%20%28Occupational%20Diseases%20%5Bmh%5D%20OR%20Occupational%20Exposure%20%5Bmh%5D%29%20%20AND%20%28tox%5Bsb%5D%29&cmd=search"
    }
  ]
}