{
  "metadata": {
    "scraped_from": "https://haz-map.com/Agents/7360",
    "entity_name": "Tetrahydrofurfuryl alcohol",
    "category": "agents",
    "uuid": "b8c14106-2c1f-4671-add7-287e7d3ac750",
    "scraped_at": "2025-07-23T20:11:57.226961"
  },
  "parsed_at": "2025-07-24T00:51:48.712276",
  "title": "Tetrahydrofurfuryl alcohol",
  "sections": {
    "general": {
      "agent_name": {
        "original_name": "Agent Name",
        "value": "Tetrahydrofurfuryl alcohol",
        "links": [],
        "cross_references": [
          {
            "type": "name_match",
            "text": "furfuryl alcohol",
            "confidence": 1.0,
            "uuid": "d267420a-a8e9-4db0-8a7d-6ae3be29d69b",
            "name": "Furfuryl alcohol",
            "url": "https://haz-map.com/Agents/499",
            "category": "agents"
          },
          {
            "type": "name_match",
            "text": "tetrahydrofurfuryl alcohol",
            "confidence": 1.0,
            "uuid": "b8c14106-2c1f-4671-add7-287e7d3ac750",
            "name": "Tetrahydrofurfuryl alcohol",
            "url": "https://haz-map.com/Agents/7360",
            "category": "agents"
          }
        ]
      },
      "cas_number": {
        "original_name": "CAS Number",
        "value": "97-99-4",
        "links": [],
        "cross_references": []
      },
      "formula": {
        "original_name": "Formula",
        "value": "C5-H10-O2",
        "links": [],
        "cross_references": []
      },
      "major_category": {
        "original_name": "Major Category",
        "value": "Solvents",
        "links": [],
        "cross_references": []
      },
      "synonyms": {
        "original_name": "Synonyms",
        "value": "2-(Hydroxymethyl)tetrahydrofuran; 2-Furanmethanol, tetrahydro-; Furfuryl alcohol, tetrahydro-; QO THFA; THFA; Tetrahydro-2-furancarbinol; Tetrahydro-2-furanmethanol; Tetrahydro-2-furanylmethanol; Tetrahydro-2-furfuryl alcohol; Tetrahydro-2-furylmethanol; Tetrahydrofurfurylalkohol [Czech]; Tetrahydrofuryl carbinol; Tetrahydrofurylalkohol [Czech]; [ChemIDplus]",
        "links": [],
        "cross_references": [
          {
            "type": "name_match",
            "text": "furfuryl alcohol",
            "confidence": 1.0,
            "uuid": "d267420a-a8e9-4db0-8a7d-6ae3be29d69b",
            "name": "Furfuryl alcohol",
            "url": "https://haz-map.com/Agents/499",
            "category": "agents"
          },
          {
            "type": "name_match",
            "text": "tetrahydrofuran",
            "confidence": 1.0,
            "uuid": "1e50bb92-4ada-4d8d-8c58-846b271cc00b",
            "name": "Tetrahydrofuran",
            "url": "https://haz-map.com/Agents/649",
            "category": "agents"
          },
          {
            "type": "name_match",
            "text": "furan",
            "confidence": 1.0,
            "uuid": "96da3d2e-f46b-4100-9000-704d1a86985b",
            "name": "Furan",
            "url": "https://haz-map.com/Agents/1477",
            "category": "agents"
          }
        ]
      },
      "category": {
        "original_name": "Category",
        "value": "Other Solvents",
        "links": [],
        "cross_references": []
      },
      "description": {
        "original_name": "Description",
        "value": "Clear liquid with a mild odor; [Hawley]",
        "links": [],
        "cross_references": []
      },
      "sourcesuses": {
        "original_name": "Sources/Uses",
        "value": "Used as a solvent (fats, waxes, and resins) and in organic synthesis; [Merck Index] Used as a cleaner, paint stripper, and solvent (replacement for chlorinated solvents); Also used in crop sprays, water-based paints, and to make pharmaceuticals and elastomers; [HSDB]",
        "links": [],
        "cross_references": [
          {
            "type": "name_match",
            "text": "pharmaceuticals",
            "confidence": 1.0,
            "uuid": "713c3c30-b67e-4a2f-a90f-b32f8a306332",
            "name": "PHARMACEUTICALS",
            "url": "https://haz-map.com/Agents/1000",
            "category": "agents"
          },
          {
            "type": "name_match",
            "text": "chlorinated solvents",
            "confidence": 1.0,
            "uuid": "ccf1cf35-78e1-497d-85bf-bfd6fedeceef",
            "name": "CHLORINATED SOLVENTS",
            "url": "https://haz-map.com/Agents/1016",
            "category": "agents"
          },
          {
            "type": "name_match",
            "text": "water",
            "confidence": 1.0,
            "uuid": "6f2a7557-dfd2-49bc-9b4b-a93cd8e225d4",
            "name": "Water",
            "url": "https://haz-map.com/Agents/18668",
            "category": "agents"
          },
          {
            "type": "name_match",
            "text": "chlorin",
            "confidence": 1.0,
            "uuid": "4a566fec-ec7e-42b0-9f14-ec586335e694",
            "name": "Chlorin",
            "url": "https://haz-map.com/Agents/20422",
            "category": "agents"
          }
        ]
      },
      "comments": {
        "original_name": "Comments",
        "value": "A skin, eye, and respiratory tract irritant; Inhalation of high concentrations may cause CNS effects; [ICSC] After exposure for 4 hours to 4700 ppm, narcosis but no deaths among 4 rats were observed. [AIHA] An irritant; Effects in high-dose animal studies include convulsions and general anesthesia; [MSDSonline]",
        "links": [],
        "cross_references": [
          {
            "type": "name_match",
            "text": "convulsion",
            "confidence": 1.0,
            "uuid": "af2c36f8-707a-48e3-a62b-1aa07adc9b72",
            "name": "convulsion",
            "url": "https://haz-map.com/Findings/14",
            "category": "findings"
          }
        ]
      },
      "biomedical_references": {
        "original_name": "Biomedical References",
        "value": "Search PubMed",
        "links": [
          {
            "text": "Search PubMed",
            "url": "https://www.ncbi.nlm.nih.gov/pubmed?term=Tetrahydrofurfuryl+alcohol%20AND%20human%5Bmh%5D%20AND%20%28Occupational%20Diseases%20%5Bmh%5D%20OR%20Occupational%20Exposure%20%5Bmh%5D%29%20%20AND%20%28tox%5Bsb%5D%29&cmd=search"
          }
        ],
        "cross_references": []
      }
    },
    "exposure_assessment": {
      "vapor_pressure": {
        "original_name": "Vapor Pressure",
        "value": "0.801 mm Hg",
        "links": [],
        "cross_references": []
      },
      "explanatory_notes": {
        "original_name": "Explanatory Notes",
        "value": "Flash point = 75 deg C; [ICSC] VP from ChemIDplus;",
        "links": [],
        "cross_references": [
          {
            "type": "name_match",
            "text": "ash",
            "confidence": 1.0,
            "uuid": "68b360f1-5ad0-4337-bea0-d7adca2961b5",
            "name": "Ash",
            "url": "https://haz-map.com/Agents/965",
            "category": "agents"
          }
        ]
      },
      "nfpa": {
        "original_name": "NFPA",
        "value": "high ambient temp required",
        "links": [],
        "cross_references": []
      },
      "weel": {
        "original_name": "WEEL",
        "value": "0.5 ppm",
        "links": [],
        "cross_references": []
      }
    },
    "adverse_effects": {
      "neurotoxin": {
        "original_name": "Neurotoxin",
        "value": "Acute solvent syndrome",
        "links": [],
        "cross_references": []
      }
    },
    "diseases_processes_and_activities_linked_to_this_agent": {
      "diseases": {
        "original_name": "Diseases",
        "value": "Occupational diseases associated with exposure to this agent: Solvents, acute toxic effect",
        "links": [
          {
            "text": "Solvents, acute toxic effect",
            "url": "https://haz-map.com/Diseases/326"
          }
        ],
        "cross_references": [
          {
            "type": "url_match",
            "text": "Solvents, acute toxic effect",
            "url": "https://haz-map.com/Diseases/326",
            "confidence": 1.0,
            "uuid": "581e90e3-9d0c-45f0-aa6c-3468c28da129",
            "name": "Solvents, acute toxic effect",
            "category": "diseases"
          }
        ]
      },
      "processes": {
        "original_name": "Processes",
        "value": "Industrial Processes with risk of exposure: Metal Degreasing Painting (Solvents)",
        "links": [
          {
            "text": "Metal Degreasing",
            "url": "https://haz-map.com/Processes/9"
          },
          {
            "text": "Painting (Solvents)",
            "url": "https://haz-map.com/Processes/142"
          }
        ],
        "cross_references": [
          {
            "type": "url_match",
            "text": "Metal Degreasing",
            "url": "https://haz-map.com/Processes/9",
            "confidence": 1.0,
            "uuid": "7f7d1988-b456-403f-a356-245ce5458f96",
            "name": "Metal Degreasing",
            "category": "processes"
          },
          {
            "type": "url_match",
            "text": "Painting (Solvents)",
            "url": "https://haz-map.com/Processes/142",
            "confidence": 1.0,
            "uuid": "ca747481-4da1-4550-a546-f0d43a41b46c",
            "name": "Painting (Solvents)",
            "category": "processes"
          },
          {
            "type": "name_match",
            "text": "painting",
            "confidence": 1.0,
            "uuid": "19816ce9-9edf-4a86-8e64-b0cbf7dcf520",
            "name": "Painting",
            "url": "https://haz-map.com/Activities/9",
            "category": "activities"
          }
        ]
      }
    }
  },
  "cross_references": [
    {
      "type": "url_match",
      "text": "Solvents, acute toxic effect",
      "url": "https://haz-map.com/Diseases/326",
      "confidence": 1.0,
      "uuid": "581e90e3-9d0c-45f0-aa6c-3468c28da129",
      "name": "Solvents, acute toxic effect",
      "category": "diseases"
    },
    {
      "type": "url_match",
      "text": "Metal Degreasing",
      "url": "https://haz-map.com/Processes/9",
      "confidence": 1.0,
      "uuid": "7f7d1988-b456-403f-a356-245ce5458f96",
      "name": "Metal Degreasing",
      "category": "processes"
    },
    {
      "type": "url_match",
      "text": "Painting (Solvents)",
      "url": "https://haz-map.com/Processes/142",
      "confidence": 1.0,
      "uuid": "ca747481-4da1-4550-a546-f0d43a41b46c",
      "name": "Painting (Solvents)",
      "category": "processes"
    },
    {
      "type": "name_match",
      "text": "painting",
      "confidence": 1.0,
      "uuid": "19816ce9-9edf-4a86-8e64-b0cbf7dcf520",
      "name": "Painting",
      "url": "https://haz-map.com/Activities/9",
      "category": "activities"
    },
    {
      "type": "name_match",
      "text": "convulsion",
      "confidence": 1.0,
      "uuid": "af2c36f8-707a-48e3-a62b-1aa07adc9b72",
      "name": "convulsion",
      "url": "https://haz-map.com/Findings/14",
      "category": "findings"
    },
    {
      "type": "name_match",
      "text": "furfuryl alcohol",
      "confidence": 1.0,
      "uuid": "d267420a-a8e9-4db0-8a7d-6ae3be29d69b",
      "name": "Furfuryl alcohol",
      "url": "https://haz-map.com/Agents/499",
      "category": "agents"
    },
    {
      "type": "name_match",
      "text": "tetrahydrofuran",
      "confidence": 1.0,
      "uuid": "1e50bb92-4ada-4d8d-8c58-846b271cc00b",
      "name": "Tetrahydrofuran",
      "url": "https://haz-map.com/Agents/649",
      "category": "agents"
    },
    {
      "type": "name_match",
      "text": "ash",
      "confidence": 1.0,
      "uuid": "68b360f1-5ad0-4337-bea0-d7adca2961b5",
      "name": "Ash",
      "url": "https://haz-map.com/Agents/965",
      "category": "agents"
    },
    {
      "type": "name_match",
      "text": "pharmaceuticals",
      "confidence": 1.0,
      "uuid": "713c3c30-b67e-4a2f-a90f-b32f8a306332",
      "name": "PHARMACEUTICALS",
      "url": "https://haz-map.com/Agents/1000",
      "category": "agents"
    },
    {
      "type": "name_match",
      "text": "chlorinated solvents",
      "confidence": 1.0,
      "uuid": "ccf1cf35-78e1-497d-85bf-bfd6fedeceef",
      "name": "CHLORINATED SOLVENTS",
      "url": "https://haz-map.com/Agents/1016",
      "category": "agents"
    },
    {
      "type": "name_match",
      "text": "furan",
      "confidence": 1.0,
      "uuid": "96da3d2e-f46b-4100-9000-704d1a86985b",
      "name": "Furan",
      "url": "https://haz-map.com/Agents/1477",
      "category": "agents"
    },
    {
      "type": "name_match",
      "text": "tetrahydrofurfuryl alcohol",
      "confidence": 1.0,
      "uuid": "b8c14106-2c1f-4671-add7-287e7d3ac750",
      "name": "Tetrahydrofurfuryl alcohol",
      "url": "https://haz-map.com/Agents/7360",
      "category": "agents"
    },
    {
      "type": "name_match",
      "text": "water",
      "confidence": 1.0,
      "uuid": "6f2a7557-dfd2-49bc-9b4b-a93cd8e225d4",
      "name": "Water",
      "url": "https://haz-map.com/Agents/18668",
      "category": "agents"
    },
    {
      "type": "name_match",
      "text": "chlorin",
      "confidence": 1.0,
      "uuid": "4a566fec-ec7e-42b0-9f14-ec586335e694",
      "name": "Chlorin",
      "url": "https://haz-map.com/Agents/20422",
      "category": "agents"
    }
  ],
  "all_links": [
    {
      "text": "Search PubMed",
      "url": "https://www.ncbi.nlm.nih.gov/pubmed?term=Tetrahydrofurfuryl+alcohol%20AND%20human%5Bmh%5D%20AND%20%28Occupational%20Diseases%20%5Bmh%5D%20OR%20Occupational%20Exposure%20%5Bmh%5D%29%20%20AND%20%28tox%5Bsb%5D%29&cmd=search"
    },
    {
      "text": "Solvents, acute toxic effect",
      "url": "https://haz-map.com/Diseases/326"
    },
    {
      "text": "Metal Degreasing",
      "url": "https://haz-map.com/Processes/9"
    },
    {
      "text": "Painting (Solvents)",
      "url": "https://haz-map.com/Processes/142"
    }
  ]
}