{
  "metadata": {
    "scraped_from": "https://haz-map.com/Agents/7904",
    "entity_name": "1,2-Diiodobenzene",
    "category": "agents",
    "uuid": "b8cf0d1c-6b6e-437e-a293-4345df80d294",
    "scraped_at": "2025-07-23T20:18:40.507474"
  },
  "parsed_at": "2025-07-24T01:01:48.774709",
  "title": "1,2-Diiodobenzene",
  "sections": {
    "general": {
      "agent_name": {
        "original_name": "Agent Name",
        "value": "1,2-Diiodobenzene",
        "links": [],
        "cross_references": [
          {
            "type": "name_match",
            "text": "benzene",
            "confidence": 1.0,
            "uuid": "b05124de-5f34-4c14-8f04-ccb20c3780d9",
            "name": "Benzene",
            "url": "https://haz-map.com/Agents/5",
            "category": "agents"
          },
          {
            "type": "name_match",
            "text": "1,2-diiodobenzene",
            "confidence": 1.0,
            "uuid": "b8cf0d1c-6b6e-437e-a293-4345df80d294",
            "name": "1,2-Diiodobenzene",
            "url": "https://haz-map.com/Agents/7904",
            "category": "agents"
          },
          {
            "type": "name_match",
            "text": "iodobenzene",
            "confidence": 1.0,
            "uuid": "9938270b-4c9a-4a28-aee9-ee704e152628",
            "name": "Iodobenzene",
            "url": "https://haz-map.com/Agents/8370",
            "category": "agents"
          }
        ]
      },
      "cas_number": {
        "original_name": "CAS Number",
        "value": "615-42-9",
        "links": [],
        "cross_references": []
      },
      "formula": {
        "original_name": "Formula",
        "value": "C6-H4-I2",
        "links": [],
        "cross_references": []
      },
      "major_category": {
        "original_name": "Major Category",
        "value": "Other Classes",
        "links": [],
        "cross_references": []
      },
      "synonyms": {
        "original_name": "Synonyms",
        "value": "o-Diiodobenzene; Benzene, 1,2-diiodo-; Benzene, o-diiodo- (8CI); [ChemIDplus]",
        "links": [],
        "cross_references": [
          {
            "type": "name_match",
            "text": "benzene",
            "confidence": 1.0,
            "uuid": "b05124de-5f34-4c14-8f04-ccb20c3780d9",
            "name": "Benzene",
            "url": "https://haz-map.com/Agents/5",
            "category": "agents"
          },
          {
            "type": "name_match",
            "text": "iodobenzene",
            "confidence": 1.0,
            "uuid": "9938270b-4c9a-4a28-aee9-ee704e152628",
            "name": "Iodobenzene",
            "url": "https://haz-map.com/Agents/8370",
            "category": "agents"
          }
        ]
      },
      "category": {
        "original_name": "Category",
        "value": "Halogenated Monoaromatics",
        "links": [],
        "cross_references": []
      },
      "description": {
        "original_name": "Description",
        "value": "Liquid; [MSDSonline]",
        "links": [],
        "cross_references": []
      },
      "comments": {
        "original_name": "Comments",
        "value": "An irritant; [MSDSonline]",
        "links": [],
        "cross_references": []
      },
      "biomedical_references": {
        "original_name": "Biomedical References",
        "value": "Search PubMed",
        "links": [
          {
            "text": "Search PubMed",
            "url": "https://www.ncbi.nlm.nih.gov/pubmed?term=1%2c2-Diiodobenzene%20AND%20human%5Bmh%5D%20AND%20%28Occupational%20Diseases%20%5Bmh%5D%20OR%20Occupational%20Exposure%20%5Bmh%5D%29%20%20AND%20%28tox%5Bsb%5D%29&cmd=search"
          }
        ],
        "cross_references": []
      }
    },
    "exposure_assessment": {
      "vapor_pressure": {
        "original_name": "Vapor Pressure",
        "value": "0.00593 mm Hg",
        "links": [],
        "cross_references": []
      }
    },
    "diseases_processes_and_activities_linked_to_this_agent": {
      "other_information": {
        "original_name": "Other Information",
        "value": "No other related information on this agent was found.",
        "links": [],
        "cross_references": []
      }
    }
  },
  "cross_references": [
    {
      "type": "name_match",
      "text": "benzene",
      "confidence": 1.0,
      "uuid": "b05124de-5f34-4c14-8f04-ccb20c3780d9",
      "name": "Benzene",
      "url": "https://haz-map.com/Agents/5",
      "category": "agents"
    },
    {
      "type": "name_match",
      "text": "1,2-diiodobenzene",
      "confidence": 1.0,
      "uuid": "b8cf0d1c-6b6e-437e-a293-4345df80d294",
      "name": "1,2-Diiodobenzene",
      "url": "https://haz-map.com/Agents/7904",
      "category": "agents"
    },
    {
      "type": "name_match",
      "text": "iodobenzene",
      "confidence": 1.0,
      "uuid": "9938270b-4c9a-4a28-aee9-ee704e152628",
      "name": "Iodobenzene",
      "url": "https://haz-map.com/Agents/8370",
      "category": "agents"
    }
  ],
  "all_links": [
    {
      "text": "Search PubMed",
      "url": "https://www.ncbi.nlm.nih.gov/pubmed?term=1%2c2-Diiodobenzene%20AND%20human%5Bmh%5D%20AND%20%28Occupational%20Diseases%20%5Bmh%5D%20OR%20Occupational%20Exposure%20%5Bmh%5D%29%20%20AND%20%28tox%5Bsb%5D%29&cmd=search"
    }
  ]
}