{
  "metadata": {
    "scraped_from": "https://haz-map.com/Agents/843",
    "entity_name": "Quaternium-15",
    "category": "agents",
    "uuid": "b913df70-80f1-4bea-875d-b80a112615b4",
    "scraped_at": "2025-07-23T18:49:16.684543"
  },
  "parsed_at": "2025-07-24T01:13:14.045173",
  "title": "Quaternium-15",
  "sections": {
    "general": {
      "agent_name": {
        "original_name": "Agent Name",
        "value": "Quaternium-15",
        "links": [],
        "cross_references": [
          {
            "type": "name_match",
            "text": "quaternium-15",
            "confidence": 1.0,
            "uuid": "b913df70-80f1-4bea-875d-b80a112615b4",
            "name": "Quaternium-15",
            "url": "https://haz-map.com/Agents/843",
            "category": "agents"
          }
        ]
      },
      "cas_number": {
        "original_name": "CAS Number",
        "value": "4080-31-3",
        "links": [],
        "cross_references": []
      },
      "formula": {
        "original_name": "Formula",
        "value": "C9-H16-Cl-N4.Cl",
        "links": [],
        "cross_references": []
      },
      "major_category": {
        "original_name": "Major Category",
        "value": "Nitrogen Compounds",
        "links": [],
        "cross_references": [
          {
            "type": "name_match",
            "text": "nitrogen",
            "confidence": 1.0,
            "uuid": "db5e90a9-06d2-45b9-8b81-f345a89b0bc0",
            "name": "Nitrogen",
            "url": "https://haz-map.com/Agents/1072",
            "category": "agents"
          }
        ]
      },
      "synonyms": {
        "original_name": "Synonyms",
        "value": "1-(3-Chloroallyl)-3,5,7-triaza-1-azoniaadamantane chloride; Cinartc 200; Dowco 184; Dowicide Q; Dowicil 100; Dowicil 75; Hexamethylenetetramine chloroallyl chloride; N-(3-Chloroallyl)hexaminium chloride; Quaternium 15; XD-1840; 3,5,7-Triaza-1-azoniaadamantane, 1-(3-chloroallyl)-,; chloride; 3,5,7-Triaza-1-azoniatricyclo(3.3.1.13,7)decane, 1-(3-; chloro-2-propenyl)-, chloride; Methenamine 3-chloroallylochloride; [ChemIDplus]",
        "links": [],
        "cross_references": [
          {
            "type": "name_match",
            "text": "allyl chloride",
            "confidence": 1.0,
            "uuid": "159ace2f-3188-475b-894e-f4ce12bc235b",
            "name": "Allyl chloride",
            "url": "https://haz-map.com/Agents/284",
            "category": "agents"
          },
          {
            "type": "name_match",
            "text": "ramin",
            "confidence": 1.0,
            "uuid": "f0fbb433-5eef-4a70-a208-66cc45df5768",
            "name": "Ramin",
            "url": "https://haz-map.com/Agents/962",
            "category": "agents"
          },
          {
            "type": "name_match",
            "text": "ethylene",
            "confidence": 1.0,
            "uuid": "958eacc0-5135-4b62-bb93-6df972bf552f",
            "name": "Ethylene",
            "url": "https://haz-map.com/Agents/1076",
            "category": "agents"
          },
          {
            "type": "name_match",
            "text": "adamantane",
            "confidence": 1.0,
            "uuid": "a378436d-faa2-4afa-adc5-b519da2f9149",
            "name": "Adamantane",
            "url": "https://haz-map.com/Agents/19552",
            "category": "agents"
          },
          {
            "type": "fuzzy_match",
            "text": "quaternium 15",
            "matched_name": "Quaternium-15",
            "confidence": 0.9230769230769231,
            "uuid": "b913df70-80f1-4bea-875d-b80a112615b4",
            "category": "agents",
            "url": "https://haz-map.com/Agents/843"
          }
        ]
      },
      "category": {
        "original_name": "Category",
        "value": "Quaternary Amines",
        "links": [],
        "cross_references": []
      },
      "description": {
        "original_name": "Description",
        "value": "White- to cream-colored powder; [HSDB]",
        "links": [],
        "cross_references": []
      },
      "sourcesuses": {
        "original_name": "Sources/Uses",
        "value": "Quaternium-15 is a preservative used in cosmetics and in many industrial applications including latex paints, polishes and waxes, metalworking fluids, adhesives, paper, inks, etc. [Marks, 121-2] Dowicil 75 is one of the biocides commonly used in metalworking fluids. [Occupational Exposure to Metalworking Fluids. DHHS (NIOSH) Publication No. 98-102, 1998, Table 4-1] Used as a formaldehyde releaser in cleaning agents, paints, soaps, metalworking fluids, polishes, paper products, textile finishes, joint cements, and photocopier toner; [Kanerva, p. 405]",
        "links": [],
        "cross_references": [
          {
            "type": "name_match",
            "text": "formaldehyde",
            "confidence": 1.0,
            "uuid": "272252b9-c18e-43df-b652-787210f00a3e",
            "name": "Formaldehyde",
            "url": "https://haz-map.com/Agents/271",
            "category": "agents"
          },
          {
            "type": "name_match",
            "text": "quaternium-15",
            "confidence": 1.0,
            "uuid": "b913df70-80f1-4bea-875d-b80a112615b4",
            "name": "Quaternium-15",
            "url": "https://haz-map.com/Agents/843",
            "category": "agents"
          }
        ]
      },
      "comments": {
        "original_name": "Comments",
        "value": "Quaternium-15 is a preservative used in cosmetics. It is a relatively common cause of allergic contact dermatitis in consumers of cosmetics. [Marks, p.121-122] Allergic contact dermatitis reported in hairdressers, a machine maintenance engineer in a chicken processing plant, and a photocopying worker; [Kanerva, p. 1832] A formaldehyde releaser used in cosmetics; It can cause allergic contact dermatitis; \"Rinse off products in general will have a low risk of causing allergic contact dermatitis.\" [Kanerva, p. 398-404]",
        "links": [],
        "cross_references": [
          {
            "type": "name_match",
            "text": "dermatitis",
            "confidence": 1.0,
            "uuid": "fe9c05f2-b19f-4ceb-ac7a-ffb7d7a0cae0",
            "name": "dermatitis",
            "url": "https://haz-map.com/Findings/59",
            "category": "findings"
          },
          {
            "type": "name_match",
            "text": "formaldehyde",
            "confidence": 1.0,
            "uuid": "272252b9-c18e-43df-b652-787210f00a3e",
            "name": "Formaldehyde",
            "url": "https://haz-map.com/Agents/271",
            "category": "agents"
          },
          {
            "type": "name_match",
            "text": "quaternium-15",
            "confidence": 1.0,
            "uuid": "b913df70-80f1-4bea-875d-b80a112615b4",
            "name": "Quaternium-15",
            "url": "https://haz-map.com/Agents/843",
            "category": "agents"
          },
          {
            "type": "fuzzy_match",
            "text": "contact dermatitis",
            "matched_name": "Contact dermatitis, allergic",
            "confidence": 0.7214285714285715,
            "uuid": "c9499de0-9aa1-41bf-8753-cd5b28a63e29",
            "category": "diseases",
            "url": "https://haz-map.com/Diseases/18"
          }
        ]
      },
      "reference_link_1": {
        "original_name": "Reference Link #1",
        "value": "EPA Pesticide Chemical Search",
        "links": [
          {
            "text": "EPA Pesticide Chemical Search",
            "url": "https://iaspub.epa.gov/apex/pesticides/f?p=CHEMICALSEARCH:1:"
          }
        ],
        "cross_references": [
          {
            "type": "name_match",
            "text": "mica",
            "confidence": 1.0,
            "uuid": "433f26f1-c399-4596-b179-ce3843cfd465",
            "name": "Mica",
            "url": "https://haz-map.com/Agents/621",
            "category": "agents"
          }
        ]
      },
      "biomedical_references": {
        "original_name": "Biomedical References",
        "value": "Search PubMed",
        "links": [
          {
            "text": "Search PubMed",
            "url": "https://www.ncbi.nlm.nih.gov/pubmed?term=Quaternium-15%20AND%20human%5Bmh%5D%20AND%20%28Occupational%20Diseases%20%5Bmh%5D%20OR%20Occupational%20Exposure%20%5Bmh%5D%29%20%20AND%20%28tox%5Bsb%5D%29&cmd=search"
          }
        ],
        "cross_references": []
      }
    },
    "exposure_assessment": {
      "mak": {
        "original_name": "MAK",
        "value": "2 mg/m3, inhalable fraction",
        "links": [],
        "cross_references": []
      },
      "vapor_pressure": {
        "original_name": "Vapor Pressure",
        "value": "4.19E-09 mm Hg",
        "links": [],
        "cross_references": []
      }
    },
    "adverse_effects": {
      "skin_sensitizer": {
        "original_name": "Skin Sensitizer",
        "value": "Yes",
        "links": [],
        "cross_references": []
      }
    },
    "diseases_processes_and_activities_linked_to_this_agent": {
      "diseases": {
        "original_name": "Diseases",
        "value": "Occupational diseases associated with exposure to this agent: Contact dermatitis, allergic",
        "links": [
          {
            "text": "Contact dermatitis, allergic",
            "url": "https://haz-map.com/Diseases/18"
          }
        ],
        "cross_references": [
          {
            "type": "url_match",
            "text": "Contact dermatitis, allergic",
            "url": "https://haz-map.com/Diseases/18",
            "confidence": 1.0,
            "uuid": "c9499de0-9aa1-41bf-8753-cd5b28a63e29",
            "name": "Contact dermatitis, allergic",
            "category": "diseases"
          },
          {
            "type": "name_match",
            "text": "dermatitis",
            "confidence": 1.0,
            "uuid": "fe9c05f2-b19f-4ceb-ac7a-ffb7d7a0cae0",
            "name": "dermatitis",
            "url": "https://haz-map.com/Findings/59",
            "category": "findings"
          }
        ]
      },
      "processes": {
        "original_name": "Processes",
        "value": "Industrial Processes with risk of exposure: Dressing Hair Metal Machining Painting (Pigments, Binders, and Biocides) Pulp and Paper Processing Textiles (Printing, Dyeing, or Finishing) Using Disinfectants or Biocides Working with Glues and Adhesives",
        "links": [
          {
            "text": "Dressing Hair",
            "url": "https://haz-map.com/Processes/258"
          },
          {
            "text": "Metal Machining",
            "url": "https://haz-map.com/Processes/35"
          },
          {
            "text": "Painting (Pigments, Binders, and Biocides)",
            "url": "https://haz-map.com/Processes/145"
          },
          {
            "text": "Pulp and Paper Processing",
            "url": "https://haz-map.com/Processes/132"
          },
          {
            "text": "Textiles (Printing, Dyeing, or Finishing)",
            "url": "https://haz-map.com/Processes/235"
          },
          {
            "text": "Using Disinfectants or Biocides",
            "url": "https://haz-map.com/Processes/167"
          },
          {
            "text": "Working with Glues and Adhesives",
            "url": "https://haz-map.com/Processes/155"
          }
        ],
        "cross_references": [
          {
            "type": "url_match",
            "text": "Metal Machining",
            "url": "https://haz-map.com/Processes/35",
            "confidence": 1.0,
            "uuid": "742028ba-ba09-4d7c-bb80-f70af1454300",
            "name": "Metal Machining",
            "category": "processes"
          },
          {
            "type": "url_match",
            "text": "Painting (Pigments, Binders, and Biocides)",
            "url": "https://haz-map.com/Processes/145",
            "confidence": 1.0,
            "uuid": "25867878-e178-4c21-906f-d392d86b76de",
            "name": "Painting (Pigments, Binders, and Biocides)",
            "category": "processes"
          },
          {
            "type": "url_match",
            "text": "Pulp and Paper Processing",
            "url": "https://haz-map.com/Processes/132",
            "confidence": 1.0,
            "uuid": "30075079-d057-47e2-a7d8-e89bfc59d8df",
            "name": "Pulp and Paper Processing",
            "category": "processes"
          },
          {
            "type": "url_match",
            "text": "Using Disinfectants or Biocides",
            "url": "https://haz-map.com/Processes/167",
            "confidence": 1.0,
            "uuid": "7accb745-ad60-4ef8-9039-8ac4febb8fd8",
            "name": "Using Disinfectants or Biocides",
            "category": "processes"
          },
          {
            "type": "url_match",
            "text": "Working with Glues and Adhesives",
            "url": "https://haz-map.com/Processes/155",
            "confidence": 1.0,
            "uuid": "acb9084f-52e8-4687-bd6a-bced94bda834",
            "name": "Working with Glues and Adhesives",
            "category": "processes"
          },
          {
            "type": "name_match",
            "text": "painting",
            "confidence": 1.0,
            "uuid": "19816ce9-9edf-4a86-8e64-b0cbf7dcf520",
            "name": "Painting",
            "url": "https://haz-map.com/Activities/9",
            "category": "activities"
          }
        ]
      }
    }
  },
  "cross_references": [
    {
      "type": "url_match",
      "text": "Contact dermatitis, allergic",
      "url": "https://haz-map.com/Diseases/18",
      "confidence": 1.0,
      "uuid": "c9499de0-9aa1-41bf-8753-cd5b28a63e29",
      "name": "Contact dermatitis, allergic",
      "category": "diseases"
    },
    {
      "type": "url_match",
      "text": "Metal Machining",
      "url": "https://haz-map.com/Processes/35",
      "confidence": 1.0,
      "uuid": "742028ba-ba09-4d7c-bb80-f70af1454300",
      "name": "Metal Machining",
      "category": "processes"
    },
    {
      "type": "url_match",
      "text": "Painting (Pigments, Binders, and Biocides)",
      "url": "https://haz-map.com/Processes/145",
      "confidence": 1.0,
      "uuid": "25867878-e178-4c21-906f-d392d86b76de",
      "name": "Painting (Pigments, Binders, and Biocides)",
      "category": "processes"
    },
    {
      "type": "url_match",
      "text": "Pulp and Paper Processing",
      "url": "https://haz-map.com/Processes/132",
      "confidence": 1.0,
      "uuid": "30075079-d057-47e2-a7d8-e89bfc59d8df",
      "name": "Pulp and Paper Processing",
      "category": "processes"
    },
    {
      "type": "url_match",
      "text": "Using Disinfectants or Biocides",
      "url": "https://haz-map.com/Processes/167",
      "confidence": 1.0,
      "uuid": "7accb745-ad60-4ef8-9039-8ac4febb8fd8",
      "name": "Using Disinfectants or Biocides",
      "category": "processes"
    },
    {
      "type": "url_match",
      "text": "Working with Glues and Adhesives",
      "url": "https://haz-map.com/Processes/155",
      "confidence": 1.0,
      "uuid": "acb9084f-52e8-4687-bd6a-bced94bda834",
      "name": "Working with Glues and Adhesives",
      "category": "processes"
    },
    {
      "type": "name_match",
      "text": "painting",
      "confidence": 1.0,
      "uuid": "19816ce9-9edf-4a86-8e64-b0cbf7dcf520",
      "name": "Painting",
      "url": "https://haz-map.com/Activities/9",
      "category": "activities"
    },
    {
      "type": "name_match",
      "text": "dermatitis",
      "confidence": 1.0,
      "uuid": "fe9c05f2-b19f-4ceb-ac7a-ffb7d7a0cae0",
      "name": "dermatitis",
      "url": "https://haz-map.com/Findings/59",
      "category": "findings"
    },
    {
      "type": "name_match",
      "text": "formaldehyde",
      "confidence": 1.0,
      "uuid": "272252b9-c18e-43df-b652-787210f00a3e",
      "name": "Formaldehyde",
      "url": "https://haz-map.com/Agents/271",
      "category": "agents"
    },
    {
      "type": "name_match",
      "text": "allyl chloride",
      "confidence": 1.0,
      "uuid": "159ace2f-3188-475b-894e-f4ce12bc235b",
      "name": "Allyl chloride",
      "url": "https://haz-map.com/Agents/284",
      "category": "agents"
    },
    {
      "type": "name_match",
      "text": "mica",
      "confidence": 1.0,
      "uuid": "433f26f1-c399-4596-b179-ce3843cfd465",
      "name": "Mica",
      "url": "https://haz-map.com/Agents/621",
      "category": "agents"
    },
    {
      "type": "name_match",
      "text": "quaternium-15",
      "confidence": 1.0,
      "uuid": "b913df70-80f1-4bea-875d-b80a112615b4",
      "name": "Quaternium-15",
      "url": "https://haz-map.com/Agents/843",
      "category": "agents"
    },
    {
      "type": "name_match",
      "text": "ramin",
      "confidence": 1.0,
      "uuid": "f0fbb433-5eef-4a70-a208-66cc45df5768",
      "name": "Ramin",
      "url": "https://haz-map.com/Agents/962",
      "category": "agents"
    },
    {
      "type": "name_match",
      "text": "nitrogen",
      "confidence": 1.0,
      "uuid": "db5e90a9-06d2-45b9-8b81-f345a89b0bc0",
      "name": "Nitrogen",
      "url": "https://haz-map.com/Agents/1072",
      "category": "agents"
    },
    {
      "type": "name_match",
      "text": "ethylene",
      "confidence": 1.0,
      "uuid": "958eacc0-5135-4b62-bb93-6df972bf552f",
      "name": "Ethylene",
      "url": "https://haz-map.com/Agents/1076",
      "category": "agents"
    },
    {
      "type": "name_match",
      "text": "adamantane",
      "confidence": 1.0,
      "uuid": "a378436d-faa2-4afa-adc5-b519da2f9149",
      "name": "Adamantane",
      "url": "https://haz-map.com/Agents/19552",
      "category": "agents"
    }
  ],
  "all_links": [
    {
      "text": "EPA Pesticide Chemical Search",
      "url": "https://iaspub.epa.gov/apex/pesticides/f?p=CHEMICALSEARCH:1:"
    },
    {
      "text": "Search PubMed",
      "url": "https://www.ncbi.nlm.nih.gov/pubmed?term=Quaternium-15%20AND%20human%5Bmh%5D%20AND%20%28Occupational%20Diseases%20%5Bmh%5D%20OR%20Occupational%20Exposure%20%5Bmh%5D%29%20%20AND%20%28tox%5Bsb%5D%29&cmd=search"
    },
    {
      "text": "Contact dermatitis, allergic",
      "url": "https://haz-map.com/Diseases/18"
    },
    {
      "text": "Dressing Hair",
      "url": "https://haz-map.com/Processes/258"
    },
    {
      "text": "Metal Machining",
      "url": "https://haz-map.com/Processes/35"
    },
    {
      "text": "Painting (Pigments, Binders, and Biocides)",
      "url": "https://haz-map.com/Processes/145"
    },
    {
      "text": "Pulp and Paper Processing",
      "url": "https://haz-map.com/Processes/132"
    },
    {
      "text": "Textiles (Printing, Dyeing, or Finishing)",
      "url": "https://haz-map.com/Processes/235"
    },
    {
      "text": "Using Disinfectants or Biocides",
      "url": "https://haz-map.com/Processes/167"
    },
    {
      "text": "Working with Glues and Adhesives",
      "url": "https://haz-map.com/Processes/155"
    }
  ]
}