{
  "metadata": {
    "scraped_from": "https://haz-map.com/Agents/6414",
    "entity_name": "Methoxyamine",
    "category": "agents",
    "uuid": "b98ef665-3412-4203-8e9f-d306f4bff31c",
    "scraped_at": "2025-07-23T20:01:37.907385"
  },
  "parsed_at": "2025-07-24T01:07:20.302036",
  "title": "Methoxyamine",
  "sections": {
    "general": {
      "agent_name": {
        "original_name": "Agent Name",
        "value": "Methoxyamine",
        "links": [],
        "cross_references": [
          {
            "type": "name_match",
            "text": "methoxyamine",
            "confidence": 1.0,
            "uuid": "b98ef665-3412-4203-8e9f-d306f4bff31c",
            "name": "Methoxyamine",
            "url": "https://haz-map.com/Agents/6414",
            "category": "agents"
          }
        ]
      },
      "alternative_name": {
        "original_name": "Alternative Name",
        "value": "O-Methylhydroxylamine",
        "links": [],
        "cross_references": [
          {
            "type": "name_match",
            "text": "hydroxylamine",
            "confidence": 1.0,
            "uuid": "2c5bddbe-1859-4f6c-9590-541312386fcb",
            "name": "Hydroxylamine",
            "url": "https://haz-map.com/Agents/1092",
            "category": "agents"
          }
        ]
      },
      "cas_number": {
        "original_name": "CAS Number",
        "value": "67-62-9",
        "links": [],
        "cross_references": []
      },
      "formula": {
        "original_name": "Formula",
        "value": "C-H5-N-O",
        "links": [],
        "cross_references": []
      },
      "major_category": {
        "original_name": "Major Category",
        "value": "Nitrogen Compounds",
        "links": [],
        "cross_references": [
          {
            "type": "name_match",
            "text": "nitrogen",
            "confidence": 1.0,
            "uuid": "db5e90a9-06d2-45b9-8b81-f345a89b0bc0",
            "name": "Nitrogen",
            "url": "https://haz-map.com/Agents/1072",
            "category": "agents"
          }
        ]
      },
      "synonyms": {
        "original_name": "Synonyms",
        "value": "O-Methylhydroxylamine; Hydroxylamine methyl ether; Hydroxylamine, O-methyl-; Methoxylamine; alpha-Methylhydroxylamine; [ChemIDplus]",
        "links": [],
        "cross_references": [
          {
            "type": "name_match",
            "text": "ethyl ether",
            "confidence": 1.0,
            "uuid": "c95edddc-9ad3-44f8-bafa-78e0bd19db3a",
            "name": "Ethyl ether",
            "url": "https://haz-map.com/Agents/455",
            "category": "agents"
          },
          {
            "type": "name_match",
            "text": "hydroxylamine",
            "confidence": 1.0,
            "uuid": "2c5bddbe-1859-4f6c-9590-541312386fcb",
            "name": "Hydroxylamine",
            "url": "https://haz-map.com/Agents/1092",
            "category": "agents"
          }
        ]
      },
      "category": {
        "original_name": "Category",
        "value": "Hydroxylamines",
        "links": [],
        "cross_references": [
          {
            "type": "name_match",
            "text": "hydroxylamine",
            "confidence": 1.0,
            "uuid": "2c5bddbe-1859-4f6c-9590-541312386fcb",
            "name": "Hydroxylamine",
            "url": "https://haz-map.com/Agents/1092",
            "category": "agents"
          }
        ]
      },
      "description": {
        "original_name": "Description",
        "value": "Colorless liquid with an unpleasant odor; [Hawley]",
        "links": [],
        "cross_references": []
      },
      "sourcesuses": {
        "original_name": "Sources/Uses",
        "value": "Used as an analytical reagent (mainly for ketones and aldehydes); [Hawley]",
        "links": [],
        "cross_references": [
          {
            "type": "name_match",
            "text": "aldehydes",
            "confidence": 1.0,
            "uuid": "60ff52e0-7c53-4dd0-99cf-f775cfcfed59",
            "name": "ALDEHYDES",
            "url": "https://haz-map.com/Agents/719",
            "category": "agents"
          }
        ]
      },
      "comments": {
        "original_name": "Comments",
        "value": "Highly irritating; [Merck Index] A strong skin irritant; [Hawley] Emergency treatment: \"Corrosives-alkaline\"; [HSDB] Mutagenic; [RTECS] See \"Hydroxylamine.\"",
        "links": [],
        "cross_references": [
          {
            "type": "name_match",
            "text": "hydroxylamine",
            "confidence": 1.0,
            "uuid": "2c5bddbe-1859-4f6c-9590-541312386fcb",
            "name": "Hydroxylamine",
            "url": "https://haz-map.com/Agents/1092",
            "category": "agents"
          }
        ]
      },
      "biomedical_references": {
        "original_name": "Biomedical References",
        "value": "Search PubMed",
        "links": [
          {
            "text": "Search PubMed",
            "url": "https://www.ncbi.nlm.nih.gov/pubmed?term=Methoxyamine%20AND%20human%5Bmh%5D%20AND%20%28Occupational%20Diseases%20%5Bmh%5D%20OR%20Occupational%20Exposure%20%5Bmh%5D%29%20%20AND%20%28tox%5Bsb%5D%29&cmd=search"
          }
        ],
        "cross_references": []
      }
    },
    "exposure_assessment": {
      "vapor_pressure": {
        "original_name": "Vapor Pressure",
        "value": "291 mm Hg",
        "links": [],
        "cross_references": []
      },
      "explanatory_notes": {
        "original_name": "Explanatory Notes",
        "value": "VP from ChemIDplus;",
        "links": [],
        "cross_references": []
      }
    },
    "adverse_effects": {
      "dermatotoxin": {
        "original_name": "Dermatotoxin",
        "value": "Skin burns",
        "links": [],
        "cross_references": [
          {
            "type": "name_match",
            "text": "burn",
            "confidence": 1.0,
            "uuid": "63665de5-6376-4918-8dbf-4c10c4d63837",
            "name": "burn",
            "url": "https://haz-map.com/Findings/204",
            "category": "findings"
          }
        ]
      }
    },
    "diseases_processes_and_activities_linked_to_this_agent": {
      "other_information": {
        "original_name": "Other Information",
        "value": "No other related information on this agent was found.",
        "links": [],
        "cross_references": []
      }
    }
  },
  "cross_references": [
    {
      "type": "name_match",
      "text": "burn",
      "confidence": 1.0,
      "uuid": "63665de5-6376-4918-8dbf-4c10c4d63837",
      "name": "burn",
      "url": "https://haz-map.com/Findings/204",
      "category": "findings"
    },
    {
      "type": "name_match",
      "text": "ethyl ether",
      "confidence": 1.0,
      "uuid": "c95edddc-9ad3-44f8-bafa-78e0bd19db3a",
      "name": "Ethyl ether",
      "url": "https://haz-map.com/Agents/455",
      "category": "agents"
    },
    {
      "type": "name_match",
      "text": "aldehydes",
      "confidence": 1.0,
      "uuid": "60ff52e0-7c53-4dd0-99cf-f775cfcfed59",
      "name": "ALDEHYDES",
      "url": "https://haz-map.com/Agents/719",
      "category": "agents"
    },
    {
      "type": "name_match",
      "text": "nitrogen",
      "confidence": 1.0,
      "uuid": "db5e90a9-06d2-45b9-8b81-f345a89b0bc0",
      "name": "Nitrogen",
      "url": "https://haz-map.com/Agents/1072",
      "category": "agents"
    },
    {
      "type": "name_match",
      "text": "hydroxylamine",
      "confidence": 1.0,
      "uuid": "2c5bddbe-1859-4f6c-9590-541312386fcb",
      "name": "Hydroxylamine",
      "url": "https://haz-map.com/Agents/1092",
      "category": "agents"
    },
    {
      "type": "name_match",
      "text": "methoxyamine",
      "confidence": 1.0,
      "uuid": "b98ef665-3412-4203-8e9f-d306f4bff31c",
      "name": "Methoxyamine",
      "url": "https://haz-map.com/Agents/6414",
      "category": "agents"
    }
  ],
  "all_links": [
    {
      "text": "Search PubMed",
      "url": "https://www.ncbi.nlm.nih.gov/pubmed?term=Methoxyamine%20AND%20human%5Bmh%5D%20AND%20%28Occupational%20Diseases%20%5Bmh%5D%20OR%20Occupational%20Exposure%20%5Bmh%5D%29%20%20AND%20%28tox%5Bsb%5D%29&cmd=search"
    }
  ]
}