{
  "metadata": {
    "scraped_from": "https://haz-map.com/Agents/7411",
    "entity_name": "Thiodipropionic acid",
    "category": "agents",
    "uuid": "b99db94f-61cf-45eb-b738-cee35016ba9a",
    "scraped_at": "2025-07-23T20:12:32.126036"
  },
  "parsed_at": "2025-07-24T01:10:36.050788",
  "title": "Thiodipropionic acid",
  "sections": {
    "general": {
      "agent_name": {
        "original_name": "Agent Name",
        "value": "Thiodipropionic acid",
        "links": [],
        "cross_references": [
          {
            "type": "name_match",
            "text": "propionic acid",
            "confidence": 1.0,
            "uuid": "519c4d0a-ac6f-4f79-a08f-47ebc278e0b4",
            "name": "Propionic acid",
            "url": "https://haz-map.com/Agents/609",
            "category": "agents"
          },
          {
            "type": "name_match",
            "text": "thiodipropionic acid",
            "confidence": 1.0,
            "uuid": "b99db94f-61cf-45eb-b738-cee35016ba9a",
            "name": "Thiodipropionic acid",
            "url": "https://haz-map.com/Agents/7411",
            "category": "agents"
          }
        ]
      },
      "cas_number": {
        "original_name": "CAS Number",
        "value": "111-17-1",
        "links": [],
        "cross_references": []
      },
      "formula": {
        "original_name": "Formula",
        "value": "C6-H10-O4-S",
        "links": [],
        "cross_references": []
      },
      "major_category": {
        "original_name": "Major Category",
        "value": "Other Classes",
        "links": [],
        "cross_references": []
      },
      "synonyms": {
        "original_name": "Synonyms",
        "value": "3,3'-Thiobis(propanoic acid); 3,3'-Thiodipropionic acid; 4-Thiaheptanedioic acid; Bis(2-carboxyethyl) sulfide; Diethyl sulfide 2,2'-dicarboxylic acid; Kyselina 3,3-thiodipropionova [Czech]; Kyselina beta,beta'-thiodipropionova [Czech]; Propanoic acid, 3,3'-thiobis-; Propionic acid, 3,3'-thiodi-; Sulfide, bis(2-carboxyethyl); TDPA; Thiahydracrylic acid; Thiodihydracrylic acid; Tyox A; [ChemIDplus]",
        "links": [],
        "cross_references": [
          {
            "type": "name_match",
            "text": "acrylic acid",
            "confidence": 1.0,
            "uuid": "c8e65755-0f00-4e14-91fe-d4fa705d17da",
            "name": "Acrylic acid",
            "url": "https://haz-map.com/Agents/67",
            "category": "agents"
          },
          {
            "type": "name_match",
            "text": "propionic acid",
            "confidence": 1.0,
            "uuid": "519c4d0a-ac6f-4f79-a08f-47ebc278e0b4",
            "name": "Propionic acid",
            "url": "https://haz-map.com/Agents/609",
            "category": "agents"
          },
          {
            "type": "name_match",
            "text": "diethyl sulfide",
            "confidence": 1.0,
            "uuid": "a1d2a348-b8ea-45e6-8aa4-9d6ab50f7f7f",
            "name": "Diethyl sulfide",
            "url": "https://haz-map.com/Agents/2701",
            "category": "agents"
          },
          {
            "type": "name_match",
            "text": "thiodipropionic acid",
            "confidence": 1.0,
            "uuid": "b99db94f-61cf-45eb-b738-cee35016ba9a",
            "name": "Thiodipropionic acid",
            "url": "https://haz-map.com/Agents/7411",
            "category": "agents"
          }
        ]
      },
      "category": {
        "original_name": "Category",
        "value": "Sulfur Compounds",
        "links": [],
        "cross_references": [
          {
            "type": "name_match",
            "text": "sulfur",
            "confidence": 1.0,
            "uuid": "5aabdef6-71c8-44c8-b762-feaabff50696",
            "name": "Sulfur",
            "url": "https://haz-map.com/Agents/1942",
            "category": "agents"
          }
        ]
      },
      "description": {
        "original_name": "Description",
        "value": "Solid; [Merck Index] Lustrous pearlescent solid; [CHEMINFO] White powder with a stench; [Alfa Aesar MSDS]",
        "links": [],
        "cross_references": []
      },
      "sourcesuses": {
        "original_name": "Sources/Uses",
        "value": "Used as an antioxidant for soap products, ethylene polymers, and edible fats and oils; Also used in plasticizers, lubricants, pharmaceuticals, and food packaging; [HSDB]",
        "links": [],
        "cross_references": [
          {
            "type": "name_match",
            "text": "pharmaceuticals",
            "confidence": 1.0,
            "uuid": "713c3c30-b67e-4a2f-a90f-b32f8a306332",
            "name": "PHARMACEUTICALS",
            "url": "https://haz-map.com/Agents/1000",
            "category": "agents"
          },
          {
            "type": "name_match",
            "text": "ethylene",
            "confidence": 1.0,
            "uuid": "958eacc0-5135-4b62-bb93-6df972bf552f",
            "name": "Ethylene",
            "url": "https://haz-map.com/Agents/1076",
            "category": "agents"
          }
        ]
      },
      "comments": {
        "original_name": "Comments",
        "value": "Although approved as a food antioxidant, has limited commercial use due to problems with odor and flavor in edible fats; In intravenous lethal-dose studies of dogs, causes drop in blood pressure, respiratory difficulties, and cardiac collapse prior to death; [HSDB] A mild skin and moderate eye irritant; [RTECS] An eye irritant; [Alfa Aesar MSDS]",
        "links": [],
        "cross_references": []
      },
      "biomedical_references": {
        "original_name": "Biomedical References",
        "value": "Search PubMed",
        "links": [
          {
            "text": "Search PubMed",
            "url": "https://www.ncbi.nlm.nih.gov/pubmed?term=Thiodipropionic+acid%20AND%20human%5Bmh%5D%20AND%20%28Occupational%20Diseases%20%5Bmh%5D%20OR%20Occupational%20Exposure%20%5Bmh%5D%29%20%20AND%20%28tox%5Bsb%5D%29&cmd=search"
          }
        ],
        "cross_references": []
      }
    },
    "exposure_assessment": {
      "vapor_pressure": {
        "original_name": "Vapor Pressure",
        "value": "1.43E-05 mm Hg",
        "links": [],
        "cross_references": []
      }
    },
    "diseases_processes_and_activities_linked_to_this_agent": {
      "other_information": {
        "original_name": "Other Information",
        "value": "No other related information on this agent was found.",
        "links": [],
        "cross_references": []
      }
    }
  },
  "cross_references": [
    {
      "type": "name_match",
      "text": "acrylic acid",
      "confidence": 1.0,
      "uuid": "c8e65755-0f00-4e14-91fe-d4fa705d17da",
      "name": "Acrylic acid",
      "url": "https://haz-map.com/Agents/67",
      "category": "agents"
    },
    {
      "type": "name_match",
      "text": "propionic acid",
      "confidence": 1.0,
      "uuid": "519c4d0a-ac6f-4f79-a08f-47ebc278e0b4",
      "name": "Propionic acid",
      "url": "https://haz-map.com/Agents/609",
      "category": "agents"
    },
    {
      "type": "name_match",
      "text": "pharmaceuticals",
      "confidence": 1.0,
      "uuid": "713c3c30-b67e-4a2f-a90f-b32f8a306332",
      "name": "PHARMACEUTICALS",
      "url": "https://haz-map.com/Agents/1000",
      "category": "agents"
    },
    {
      "type": "name_match",
      "text": "ethylene",
      "confidence": 1.0,
      "uuid": "958eacc0-5135-4b62-bb93-6df972bf552f",
      "name": "Ethylene",
      "url": "https://haz-map.com/Agents/1076",
      "category": "agents"
    },
    {
      "type": "name_match",
      "text": "sulfur",
      "confidence": 1.0,
      "uuid": "5aabdef6-71c8-44c8-b762-feaabff50696",
      "name": "Sulfur",
      "url": "https://haz-map.com/Agents/1942",
      "category": "agents"
    },
    {
      "type": "name_match",
      "text": "diethyl sulfide",
      "confidence": 1.0,
      "uuid": "a1d2a348-b8ea-45e6-8aa4-9d6ab50f7f7f",
      "name": "Diethyl sulfide",
      "url": "https://haz-map.com/Agents/2701",
      "category": "agents"
    },
    {
      "type": "name_match",
      "text": "thiodipropionic acid",
      "confidence": 1.0,
      "uuid": "b99db94f-61cf-45eb-b738-cee35016ba9a",
      "name": "Thiodipropionic acid",
      "url": "https://haz-map.com/Agents/7411",
      "category": "agents"
    }
  ],
  "all_links": [
    {
      "text": "Search PubMed",
      "url": "https://www.ncbi.nlm.nih.gov/pubmed?term=Thiodipropionic+acid%20AND%20human%5Bmh%5D%20AND%20%28Occupational%20Diseases%20%5Bmh%5D%20OR%20Occupational%20Exposure%20%5Bmh%5D%29%20%20AND%20%28tox%5Bsb%5D%29&cmd=search"
    }
  ]
}