{
  "metadata": {
    "scraped_from": "https://haz-map.com/Agents/2944",
    "entity_name": "2,3,4,5,6-Pentabromotoluene",
    "category": "agents",
    "uuid": "b9ce818f-bb7f-46d9-8dc0-2bda11064757",
    "scraped_at": "2025-07-23T19:21:23.811061"
  },
  "parsed_at": "2025-07-24T00:53:11.596577",
  "title": "2,3,4,5,6-Pentabromotoluene",
  "sections": {
    "general": {
      "agent_name": {
        "original_name": "Agent Name",
        "value": "2,3,4,5,6-Pentabromotoluene",
        "links": [],
        "cross_references": [
          {
            "type": "name_match",
            "text": "toluene",
            "confidence": 1.0,
            "uuid": "0a34d5de-e924-4c47-aff5-7ae8e48c6772",
            "name": "Toluene",
            "url": "https://haz-map.com/Agents/83",
            "category": "agents"
          },
          {
            "type": "name_match",
            "text": "2,3,4,5,6-pentabromotoluene",
            "confidence": 1.0,
            "uuid": "b9ce818f-bb7f-46d9-8dc0-2bda11064757",
            "name": "2,3,4,5,6-Pentabromotoluene",
            "url": "https://haz-map.com/Agents/2944",
            "category": "agents"
          },
          {
            "type": "name_match",
            "text": "bromotoluene",
            "confidence": 1.0,
            "uuid": "a082fb31-5fa4-46ae-88eb-f7faf3e7a5d8",
            "name": "Bromotoluene",
            "url": "https://haz-map.com/Agents/8319",
            "category": "agents"
          }
        ]
      },
      "cas_number": {
        "original_name": "CAS Number",
        "value": "87-83-2",
        "links": [],
        "cross_references": []
      },
      "formula": {
        "original_name": "Formula",
        "value": "C7-H3-Br5",
        "links": [],
        "cross_references": []
      },
      "major_category": {
        "original_name": "Major Category",
        "value": "Other Classes",
        "links": [],
        "cross_references": []
      },
      "synonyms": {
        "original_name": "Synonyms",
        "value": "Benzene, pentabromomethyl-; Flammex 5BT; Pentabromomethylbenzene; Pentabromotoluene; Toluene, 2,3,4,5,6-pentabromo-; [ChemIDplus]",
        "links": [],
        "cross_references": [
          {
            "type": "name_match",
            "text": "benzene",
            "confidence": 1.0,
            "uuid": "b05124de-5f34-4c14-8f04-ccb20c3780d9",
            "name": "Benzene",
            "url": "https://haz-map.com/Agents/5",
            "category": "agents"
          },
          {
            "type": "name_match",
            "text": "toluene",
            "confidence": 1.0,
            "uuid": "0a34d5de-e924-4c47-aff5-7ae8e48c6772",
            "name": "Toluene",
            "url": "https://haz-map.com/Agents/83",
            "category": "agents"
          },
          {
            "type": "name_match",
            "text": "bromotoluene",
            "confidence": 1.0,
            "uuid": "a082fb31-5fa4-46ae-88eb-f7faf3e7a5d8",
            "name": "Bromotoluene",
            "url": "https://haz-map.com/Agents/8319",
            "category": "agents"
          }
        ]
      },
      "category": {
        "original_name": "Category",
        "value": "Halogenated Monoaromatics",
        "links": [],
        "cross_references": []
      },
      "description": {
        "original_name": "Description",
        "value": "Colorless solid; [CAMEO] White solid; [MSDSonline]",
        "links": [],
        "cross_references": []
      },
      "comments": {
        "original_name": "Comments",
        "value": "Causes other changes to liver/kidneys, normocytic anemia, and changes in thyroid weight in feeding studies of rats; [RTECS] An irritant; [MSDSonline]",
        "links": [],
        "cross_references": [
          {
            "type": "name_match",
            "text": "anemia",
            "confidence": 1.0,
            "uuid": "be5db7c0-2652-4940-a3d9-d0afb3e2b182",
            "name": "anemia",
            "url": "https://haz-map.com/Findings/54",
            "category": "findings"
          },
          {
            "type": "name_match",
            "text": "ht",
            "confidence": 1.0,
            "uuid": "764df367-8d53-4a11-81a2-31ccfe122a8d",
            "name": "HT",
            "url": "https://haz-map.com/Agents/2168",
            "category": "agents"
          }
        ]
      },
      "biomedical_references": {
        "original_name": "Biomedical References",
        "value": "Search PubMed",
        "links": [
          {
            "text": "Search PubMed",
            "url": "https://www.ncbi.nlm.nih.gov/pubmed?term=2%2c3%2c4%2c5%2c6-Pentabromotoluene%20AND%20human%5Bmh%5D%20AND%20%28Occupational%20Diseases%20%5Bmh%5D%20OR%20Occupational%20Exposure%20%5Bmh%5D%29%20%20AND%20%28tox%5Bsb%5D%29&cmd=search"
          }
        ],
        "cross_references": []
      }
    },
    "exposure_assessment": {
      "vapor_pressure": {
        "original_name": "Vapor Pressure",
        "value": "1.08E-05 mm Hg",
        "links": [],
        "cross_references": []
      }
    },
    "diseases_processes_and_activities_linked_to_this_agent": {
      "other_information": {
        "original_name": "Other Information",
        "value": "No other related information on this agent was found.",
        "links": [],
        "cross_references": []
      }
    }
  },
  "cross_references": [
    {
      "type": "name_match",
      "text": "anemia",
      "confidence": 1.0,
      "uuid": "be5db7c0-2652-4940-a3d9-d0afb3e2b182",
      "name": "anemia",
      "url": "https://haz-map.com/Findings/54",
      "category": "findings"
    },
    {
      "type": "name_match",
      "text": "benzene",
      "confidence": 1.0,
      "uuid": "b05124de-5f34-4c14-8f04-ccb20c3780d9",
      "name": "Benzene",
      "url": "https://haz-map.com/Agents/5",
      "category": "agents"
    },
    {
      "type": "name_match",
      "text": "toluene",
      "confidence": 1.0,
      "uuid": "0a34d5de-e924-4c47-aff5-7ae8e48c6772",
      "name": "Toluene",
      "url": "https://haz-map.com/Agents/83",
      "category": "agents"
    },
    {
      "type": "name_match",
      "text": "ht",
      "confidence": 1.0,
      "uuid": "764df367-8d53-4a11-81a2-31ccfe122a8d",
      "name": "HT",
      "url": "https://haz-map.com/Agents/2168",
      "category": "agents"
    },
    {
      "type": "name_match",
      "text": "2,3,4,5,6-pentabromotoluene",
      "confidence": 1.0,
      "uuid": "b9ce818f-bb7f-46d9-8dc0-2bda11064757",
      "name": "2,3,4,5,6-Pentabromotoluene",
      "url": "https://haz-map.com/Agents/2944",
      "category": "agents"
    },
    {
      "type": "name_match",
      "text": "bromotoluene",
      "confidence": 1.0,
      "uuid": "a082fb31-5fa4-46ae-88eb-f7faf3e7a5d8",
      "name": "Bromotoluene",
      "url": "https://haz-map.com/Agents/8319",
      "category": "agents"
    }
  ],
  "all_links": [
    {
      "text": "Search PubMed",
      "url": "https://www.ncbi.nlm.nih.gov/pubmed?term=2%2c3%2c4%2c5%2c6-Pentabromotoluene%20AND%20human%5Bmh%5D%20AND%20%28Occupational%20Diseases%20%5Bmh%5D%20OR%20Occupational%20Exposure%20%5Bmh%5D%29%20%20AND%20%28tox%5Bsb%5D%29&cmd=search"
    }
  ]
}