{
  "metadata": {
    "scraped_from": "https://haz-map.com/Agents/6068",
    "entity_name": "Methyl anthranilate",
    "category": "agents",
    "uuid": "b9d4839e-6443-4b09-9aa9-afa83b6a001a",
    "scraped_at": "2025-07-23T19:58:14.154144"
  },
  "parsed_at": "2025-07-24T01:16:20.842108",
  "title": "Methyl anthranilate",
  "sections": {
    "general": {
      "agent_name": {
        "original_name": "Agent Name",
        "value": "Methyl anthranilate",
        "links": [],
        "cross_references": [
          {
            "type": "name_match",
            "text": "ethyl anthranilate",
            "confidence": 1.0,
            "uuid": "9554cf73-409c-40c2-87bc-a73b029d3748",
            "name": "Ethyl anthranilate",
            "url": "https://haz-map.com/Agents/5189",
            "category": "agents"
          },
          {
            "type": "name_match",
            "text": "methyl anthranilate",
            "confidence": 1.0,
            "uuid": "b9d4839e-6443-4b09-9aa9-afa83b6a001a",
            "name": "Methyl anthranilate",
            "url": "https://haz-map.com/Agents/6068",
            "category": "agents"
          }
        ]
      },
      "cas_number": {
        "original_name": "CAS Number",
        "value": "134-20-3",
        "links": [],
        "cross_references": []
      },
      "formula": {
        "original_name": "Formula",
        "value": "C8-H9-N-O2",
        "links": [],
        "cross_references": []
      },
      "major_category": {
        "original_name": "Major Category",
        "value": "Nitrogen Compounds",
        "links": [],
        "cross_references": [
          {
            "type": "name_match",
            "text": "nitrogen",
            "confidence": 1.0,
            "uuid": "db5e90a9-06d2-45b9-8b81-f345a89b0bc0",
            "name": "Nitrogen",
            "url": "https://haz-map.com/Agents/1072",
            "category": "agents"
          }
        ]
      },
      "synonyms": {
        "original_name": "Synonyms",
        "value": "2-(Methoxycarbonyl)aniline; 2-Aminobenzoic acid methyl ester; 2-Carbomethoxyaniline; Amino methyl benzoate, o-; Anthranilic acid methyl ester; Benzoic acid, 2-amino-, methyl ester; Methyl 2-aminobenzoate; Methyl anthranilate (natural); Methyl o-aminobenzoate; Methylanthranilate; Methylester kyseliny anthranilove [Czech]; Neroli oil, artificial; Nevoli oil; o-Aminobenzoic acid methyl ester; o-Carbomethoxyaniline; [ChemIDplus]",
        "links": [],
        "cross_references": [
          {
            "type": "name_match",
            "text": "aniline",
            "confidence": 1.0,
            "uuid": "e4932692-8d9c-4a98-8c5c-81e55b12aedf",
            "name": "Aniline",
            "url": "https://haz-map.com/Agents/296",
            "category": "agents"
          },
          {
            "type": "name_match",
            "text": "benzoic acid",
            "confidence": 1.0,
            "uuid": "d2c5d3be-d826-4f55-bc32-7b16821aef40",
            "name": "Benzoic acid",
            "url": "https://haz-map.com/Agents/1883",
            "category": "agents"
          },
          {
            "type": "name_match",
            "text": "carbon",
            "confidence": 1.0,
            "uuid": "b53f8815-ee80-40ef-b4aa-3b000e17dab5",
            "name": "Carbon",
            "url": "https://haz-map.com/Agents/1891",
            "category": "agents"
          },
          {
            "type": "name_match",
            "text": "anthranilic acid",
            "confidence": 1.0,
            "uuid": "8912c66e-c272-4ed8-9b29-b25a22d08647",
            "name": "Anthranilic acid",
            "url": "https://haz-map.com/Agents/3712",
            "category": "agents"
          },
          {
            "type": "name_match",
            "text": "ethyl anthranilate",
            "confidence": 1.0,
            "uuid": "9554cf73-409c-40c2-87bc-a73b029d3748",
            "name": "Ethyl anthranilate",
            "url": "https://haz-map.com/Agents/5189",
            "category": "agents"
          },
          {
            "type": "name_match",
            "text": "methyl anthranilate",
            "confidence": 1.0,
            "uuid": "b9d4839e-6443-4b09-9aa9-afa83b6a001a",
            "name": "Methyl anthranilate",
            "url": "https://haz-map.com/Agents/6068",
            "category": "agents"
          },
          {
            "type": "name_match",
            "text": "ethyl benzoate",
            "confidence": 1.0,
            "uuid": "e803e9e1-d2ac-42a3-b0f0-6816d0438ef5",
            "name": "Ethyl benzoate",
            "url": "https://haz-map.com/Agents/8255",
            "category": "agents"
          },
          {
            "type": "name_match",
            "text": "methyl benzoate",
            "confidence": 1.0,
            "uuid": "af384cfe-752f-4649-bb9a-6a1150d31d7f",
            "name": "Methyl benzoate",
            "url": "https://haz-map.com/Agents/8379",
            "category": "agents"
          },
          {
            "type": "name_match",
            "text": "nerol",
            "confidence": 1.0,
            "uuid": "53925df0-1f00-41e3-a11b-d04ce842c736",
            "name": "Nerol",
            "url": "https://haz-map.com/Agents/15879",
            "category": "agents"
          }
        ]
      },
      "category": {
        "original_name": "Category",
        "value": "Aminobenzoic Acids",
        "links": [],
        "cross_references": [
          {
            "type": "name_match",
            "text": "benzoic acid",
            "confidence": 1.0,
            "uuid": "d2c5d3be-d826-4f55-bc32-7b16821aef40",
            "name": "Benzoic acid",
            "url": "https://haz-map.com/Agents/1883",
            "category": "agents"
          }
        ]
      },
      "description": {
        "original_name": "Description",
        "value": "Solid or pale yellow liquid with blue fluorescence; Odor of orange blossoms; mp = 23.8 deg C; [Hawley] Colorless to tan liquid with a grape odor; Exhibits light blue fluorescence; Sensitive to light and air; mp = 23.9-25 deg C; [CAMEO]",
        "links": [],
        "cross_references": [
          {
            "type": "name_match",
            "text": "ht",
            "confidence": 1.0,
            "uuid": "764df367-8d53-4a11-81a2-31ccfe122a8d",
            "name": "HT",
            "url": "https://haz-map.com/Agents/2168",
            "category": "agents"
          }
        ]
      },
      "sourcesuses": {
        "original_name": "Sources/Uses",
        "value": "Found in neroli, ylang-ylang, bergamot, other essential oils, and grape juice; [Merck Index] Used to make perfumes and flavors; Effectively tested as a non-toxic and non-lethal bird repellent; Can also be added to liquids to protect migratory birds from contaminated standing water; Registered with the EPA for use in the US; [HSDB]",
        "links": [],
        "cross_references": [
          {
            "type": "name_match",
            "text": "dde",
            "confidence": 1.0,
            "uuid": "88506fb4-e7b1-4bde-a283-917057f67fc2",
            "name": "DDE",
            "url": "https://haz-map.com/Agents/4656",
            "category": "agents"
          },
          {
            "type": "name_match",
            "text": "nerol",
            "confidence": 1.0,
            "uuid": "53925df0-1f00-41e3-a11b-d04ce842c736",
            "name": "Nerol",
            "url": "https://haz-map.com/Agents/15879",
            "category": "agents"
          },
          {
            "type": "name_match",
            "text": "water",
            "confidence": 1.0,
            "uuid": "6f2a7557-dfd2-49bc-9b4b-a93cd8e225d4",
            "name": "Water",
            "url": "https://haz-map.com/Agents/18668",
            "category": "agents"
          },
          {
            "type": "name_match",
            "text": "birds",
            "confidence": 1.0,
            "uuid": "b275e67e-6346-4cb9-88dd-f56d826c8b43",
            "name": "Birds",
            "url": "https://haz-map.com/Agents/19083",
            "category": "agents"
          }
        ]
      },
      "comments": {
        "original_name": "Comments",
        "value": "A mutagen, reproductive effector, and moderate skin irritant; Causes somnolence and coma in lethal-dose feeding studies of rats; [RTECS] Safe to use as a flavoring agent in food; ADI = 0-1.5 mg/kg; [JECFA] A skin irritant; [CAMEO] A skin and eye irritant; [eChemPortal: ERMA] Included in list of \"fragrance substances with negative human data, i.e. patch tests of patients with suspected contact allergy to fragrance ingredients which yielded negative results.\"; [EC: Scientific Committee on Consumer Safety: Fragrance allergens in cosmetic products (2011)] An irritant; [MSDSonline]",
        "links": [],
        "cross_references": []
      },
      "biomedical_references": {
        "original_name": "Biomedical References",
        "value": "Search PubMed",
        "links": [
          {
            "text": "Search PubMed",
            "url": "https://www.ncbi.nlm.nih.gov/pubmed?term=Methyl+anthranilate%20AND%20human%5Bmh%5D%20AND%20%28Occupational%20Diseases%20%5Bmh%5D%20OR%20Occupational%20Exposure%20%5Bmh%5D%29%20%20AND%20%28tox%5Bsb%5D%29&cmd=search"
          }
        ],
        "cross_references": []
      }
    },
    "exposure_assessment": {
      "vapor_pressure": {
        "original_name": "Vapor Pressure",
        "value": "0.027 mm Hg",
        "links": [],
        "cross_references": []
      },
      "nfpa": {
        "original_name": "NFPA",
        "value": "must be preheated",
        "links": [],
        "cross_references": []
      }
    },
    "adverse_effects": {
      "neurotoxin": {
        "original_name": "Neurotoxin",
        "value": "Other CNS neurotoxin",
        "links": [],
        "cross_references": []
      }
    },
    "diseases_processes_and_activities_linked_to_this_agent": {
      "other_information": {
        "original_name": "Other Information",
        "value": "No other related information on this agent was found.",
        "links": [],
        "cross_references": []
      }
    }
  },
  "cross_references": [
    {
      "type": "name_match",
      "text": "aniline",
      "confidence": 1.0,
      "uuid": "e4932692-8d9c-4a98-8c5c-81e55b12aedf",
      "name": "Aniline",
      "url": "https://haz-map.com/Agents/296",
      "category": "agents"
    },
    {
      "type": "name_match",
      "text": "nitrogen",
      "confidence": 1.0,
      "uuid": "db5e90a9-06d2-45b9-8b81-f345a89b0bc0",
      "name": "Nitrogen",
      "url": "https://haz-map.com/Agents/1072",
      "category": "agents"
    },
    {
      "type": "name_match",
      "text": "benzoic acid",
      "confidence": 1.0,
      "uuid": "d2c5d3be-d826-4f55-bc32-7b16821aef40",
      "name": "Benzoic acid",
      "url": "https://haz-map.com/Agents/1883",
      "category": "agents"
    },
    {
      "type": "name_match",
      "text": "carbon",
      "confidence": 1.0,
      "uuid": "b53f8815-ee80-40ef-b4aa-3b000e17dab5",
      "name": "Carbon",
      "url": "https://haz-map.com/Agents/1891",
      "category": "agents"
    },
    {
      "type": "name_match",
      "text": "ht",
      "confidence": 1.0,
      "uuid": "764df367-8d53-4a11-81a2-31ccfe122a8d",
      "name": "HT",
      "url": "https://haz-map.com/Agents/2168",
      "category": "agents"
    },
    {
      "type": "name_match",
      "text": "anthranilic acid",
      "confidence": 1.0,
      "uuid": "8912c66e-c272-4ed8-9b29-b25a22d08647",
      "name": "Anthranilic acid",
      "url": "https://haz-map.com/Agents/3712",
      "category": "agents"
    },
    {
      "type": "name_match",
      "text": "dde",
      "confidence": 1.0,
      "uuid": "88506fb4-e7b1-4bde-a283-917057f67fc2",
      "name": "DDE",
      "url": "https://haz-map.com/Agents/4656",
      "category": "agents"
    },
    {
      "type": "name_match",
      "text": "ethyl anthranilate",
      "confidence": 1.0,
      "uuid": "9554cf73-409c-40c2-87bc-a73b029d3748",
      "name": "Ethyl anthranilate",
      "url": "https://haz-map.com/Agents/5189",
      "category": "agents"
    },
    {
      "type": "name_match",
      "text": "methyl anthranilate",
      "confidence": 1.0,
      "uuid": "b9d4839e-6443-4b09-9aa9-afa83b6a001a",
      "name": "Methyl anthranilate",
      "url": "https://haz-map.com/Agents/6068",
      "category": "agents"
    },
    {
      "type": "name_match",
      "text": "ethyl benzoate",
      "confidence": 1.0,
      "uuid": "e803e9e1-d2ac-42a3-b0f0-6816d0438ef5",
      "name": "Ethyl benzoate",
      "url": "https://haz-map.com/Agents/8255",
      "category": "agents"
    },
    {
      "type": "name_match",
      "text": "methyl benzoate",
      "confidence": 1.0,
      "uuid": "af384cfe-752f-4649-bb9a-6a1150d31d7f",
      "name": "Methyl benzoate",
      "url": "https://haz-map.com/Agents/8379",
      "category": "agents"
    },
    {
      "type": "name_match",
      "text": "nerol",
      "confidence": 1.0,
      "uuid": "53925df0-1f00-41e3-a11b-d04ce842c736",
      "name": "Nerol",
      "url": "https://haz-map.com/Agents/15879",
      "category": "agents"
    },
    {
      "type": "name_match",
      "text": "water",
      "confidence": 1.0,
      "uuid": "6f2a7557-dfd2-49bc-9b4b-a93cd8e225d4",
      "name": "Water",
      "url": "https://haz-map.com/Agents/18668",
      "category": "agents"
    },
    {
      "type": "name_match",
      "text": "birds",
      "confidence": 1.0,
      "uuid": "b275e67e-6346-4cb9-88dd-f56d826c8b43",
      "name": "Birds",
      "url": "https://haz-map.com/Agents/19083",
      "category": "agents"
    }
  ],
  "all_links": [
    {
      "text": "Search PubMed",
      "url": "https://www.ncbi.nlm.nih.gov/pubmed?term=Methyl+anthranilate%20AND%20human%5Bmh%5D%20AND%20%28Occupational%20Diseases%20%5Bmh%5D%20OR%20Occupational%20Exposure%20%5Bmh%5D%29%20%20AND%20%28tox%5Bsb%5D%29&cmd=search"
    }
  ]
}