{
  "metadata": {
    "scraped_from": "https://haz-map.com/Agents/10848",
    "entity_name": "2-Ethyl-1-hexene",
    "category": "agents",
    "uuid": "ba366247-c987-41c0-be16-9f40369d9f5b",
    "scraped_at": "2025-07-23T20:53:30.205618"
  },
  "parsed_at": "2025-07-24T01:06:00.628234",
  "title": "2-Ethyl-1-hexene",
  "sections": {
    "general": {
      "agent_name": {
        "original_name": "Agent Name",
        "value": "2-Ethyl-1-hexene",
        "links": [],
        "cross_references": [
          {
            "type": "name_match",
            "text": "1-hexene",
            "confidence": 1.0,
            "uuid": "ce08fefc-c3d0-4d7c-bb65-9be201e452f6",
            "name": "1-Hexene",
            "url": "https://haz-map.com/Agents/1648",
            "category": "agents"
          },
          {
            "type": "name_match",
            "text": "hexene",
            "confidence": 1.0,
            "uuid": "592a6801-2d0b-441f-b3f6-6d67971256b7",
            "name": "Hexene",
            "url": "https://haz-map.com/Agents/5534",
            "category": "agents"
          },
          {
            "type": "name_match",
            "text": "2-ethyl-1-hexene",
            "confidence": 1.0,
            "uuid": "ba366247-c987-41c0-be16-9f40369d9f5b",
            "name": "2-Ethyl-1-hexene",
            "url": "https://haz-map.com/Agents/10848",
            "category": "agents"
          }
        ]
      },
      "cas_number": {
        "original_name": "CAS Number",
        "value": "1632-16-2",
        "links": [],
        "cross_references": []
      },
      "formula": {
        "original_name": "Formula",
        "value": "C8-H16",
        "links": [],
        "cross_references": []
      },
      "major_category": {
        "original_name": "Major Category",
        "value": "Other Classes",
        "links": [],
        "cross_references": []
      },
      "synonyms": {
        "original_name": "Synonyms",
        "value": "2-Ethyl hexene-1; 2-Ethylhexene; Heptane, 3-methylene-; 1-Hexene, 2-ethyl-; 2-Ethylhex-1-ene; [ChemIDplus] 3-Methyleneheptane; [AccuStandard MSDS]",
        "links": [],
        "cross_references": [
          {
            "type": "name_match",
            "text": "ethylene",
            "confidence": 1.0,
            "uuid": "958eacc0-5135-4b62-bb93-6df972bf552f",
            "name": "Ethylene",
            "url": "https://haz-map.com/Agents/1076",
            "category": "agents"
          },
          {
            "type": "name_match",
            "text": "1-hexene",
            "confidence": 1.0,
            "uuid": "ce08fefc-c3d0-4d7c-bb65-9be201e452f6",
            "name": "1-Hexene",
            "url": "https://haz-map.com/Agents/1648",
            "category": "agents"
          },
          {
            "type": "name_match",
            "text": "hexene",
            "confidence": 1.0,
            "uuid": "592a6801-2d0b-441f-b3f6-6d67971256b7",
            "name": "Hexene",
            "url": "https://haz-map.com/Agents/5534",
            "category": "agents"
          }
        ]
      },
      "category": {
        "original_name": "Category",
        "value": "Aliphatics, Unsaturated",
        "links": [],
        "cross_references": []
      },
      "description": {
        "original_name": "Description",
        "value": "Colorless liquid; [AccuStandard MSDS]",
        "links": [],
        "cross_references": []
      },
      "comments": {
        "original_name": "Comments",
        "value": "A mild eye and moderate skin irritant; [RTECS] May cause irritation; [AccuStandard MSDS] See \"1-Hexene, 4-ethyl-.\"",
        "links": [],
        "cross_references": [
          {
            "type": "name_match",
            "text": "1-hexene",
            "confidence": 1.0,
            "uuid": "ce08fefc-c3d0-4d7c-bb65-9be201e452f6",
            "name": "1-Hexene",
            "url": "https://haz-map.com/Agents/1648",
            "category": "agents"
          },
          {
            "type": "name_match",
            "text": "hexene",
            "confidence": 1.0,
            "uuid": "592a6801-2d0b-441f-b3f6-6d67971256b7",
            "name": "Hexene",
            "url": "https://haz-map.com/Agents/5534",
            "category": "agents"
          },
          {
            "type": "name_match",
            "text": "1-hexene, 4-ethyl-",
            "confidence": 1.0,
            "uuid": "36cb592c-5dcf-40bc-b71c-ac6b2c2d0a59",
            "name": "1-Hexene, 4-ethyl-",
            "url": "https://haz-map.com/Agents/10496",
            "category": "agents"
          }
        ]
      },
      "biomedical_references": {
        "original_name": "Biomedical References",
        "value": "Search PubMed",
        "links": [
          {
            "text": "Search PubMed",
            "url": "https://www.ncbi.nlm.nih.gov/pubmed?term=2-Ethyl-1-hexene%20AND%20human%5Bmh%5D%20AND%20%28Occupational%20Diseases%20%5Bmh%5D%20OR%20Occupational%20Exposure%20%5Bmh%5D%29%20%20AND%20%28tox%5Bsb%5D%29&cmd=search"
          }
        ],
        "cross_references": []
      }
    },
    "exposure_assessment": {
      "vapor_pressure": {
        "original_name": "Vapor Pressure",
        "value": "19.7 mm Hg",
        "links": [],
        "cross_references": []
      },
      "lethal_concentration": {
        "original_name": "Lethal Concentration",
        "value": "LCLo (rat) = 4,000 ppm/4hr",
        "links": [],
        "cross_references": []
      },
      "explanatory_notes": {
        "original_name": "Explanatory Notes",
        "value": "VP from ChemIDplus;",
        "links": [],
        "cross_references": []
      }
    },
    "diseases_processes_and_activities_linked_to_this_agent": {
      "other_information": {
        "original_name": "Other Information",
        "value": "No other related information on this agent was found.",
        "links": [],
        "cross_references": []
      }
    }
  },
  "cross_references": [
    {
      "type": "name_match",
      "text": "ethylene",
      "confidence": 1.0,
      "uuid": "958eacc0-5135-4b62-bb93-6df972bf552f",
      "name": "Ethylene",
      "url": "https://haz-map.com/Agents/1076",
      "category": "agents"
    },
    {
      "type": "name_match",
      "text": "1-hexene",
      "confidence": 1.0,
      "uuid": "ce08fefc-c3d0-4d7c-bb65-9be201e452f6",
      "name": "1-Hexene",
      "url": "https://haz-map.com/Agents/1648",
      "category": "agents"
    },
    {
      "type": "name_match",
      "text": "hexene",
      "confidence": 1.0,
      "uuid": "592a6801-2d0b-441f-b3f6-6d67971256b7",
      "name": "Hexene",
      "url": "https://haz-map.com/Agents/5534",
      "category": "agents"
    },
    {
      "type": "name_match",
      "text": "1-hexene, 4-ethyl-",
      "confidence": 1.0,
      "uuid": "36cb592c-5dcf-40bc-b71c-ac6b2c2d0a59",
      "name": "1-Hexene, 4-ethyl-",
      "url": "https://haz-map.com/Agents/10496",
      "category": "agents"
    },
    {
      "type": "name_match",
      "text": "2-ethyl-1-hexene",
      "confidence": 1.0,
      "uuid": "ba366247-c987-41c0-be16-9f40369d9f5b",
      "name": "2-Ethyl-1-hexene",
      "url": "https://haz-map.com/Agents/10848",
      "category": "agents"
    }
  ],
  "all_links": [
    {
      "text": "Search PubMed",
      "url": "https://www.ncbi.nlm.nih.gov/pubmed?term=2-Ethyl-1-hexene%20AND%20human%5Bmh%5D%20AND%20%28Occupational%20Diseases%20%5Bmh%5D%20OR%20Occupational%20Exposure%20%5Bmh%5D%29%20%20AND%20%28tox%5Bsb%5D%29&cmd=search"
    }
  ]
}