{
  "metadata": {
    "scraped_from": "https://haz-map.com/Agents/15162",
    "entity_name": "Leucine",
    "category": "agents",
    "uuid": "ba733437-a503-4dd6-9f58-9ce7cb505d48",
    "scraped_at": "2025-07-23T21:28:15.760303"
  },
  "parsed_at": "2025-07-24T01:09:32.226729",
  "title": "Leucine",
  "sections": {
    "general": {
      "agent_name": {
        "original_name": "Agent Name",
        "value": "Leucine",
        "links": [],
        "cross_references": [
          {
            "type": "name_match",
            "text": "leucine",
            "confidence": 1.0,
            "uuid": "ba733437-a503-4dd6-9f58-9ce7cb505d48",
            "name": "Leucine",
            "url": "https://haz-map.com/Agents/15162",
            "category": "agents"
          }
        ]
      },
      "cas_number": {
        "original_name": "CAS Number",
        "value": "61-90-5",
        "links": [],
        "cross_references": []
      },
      "formula": {
        "original_name": "Formula",
        "value": "C6-H13-N-O2",
        "links": [],
        "cross_references": []
      },
      "major_category": {
        "original_name": "Major Category",
        "value": "Biological Agents",
        "links": [],
        "cross_references": []
      },
      "synonyms": {
        "original_name": "Synonyms",
        "value": "2-Amino-4-methylpentanoic acid (L); 2-Amino-4-methylvaleric acid (L); (S)-2-Amino-4-methylpentanoic acid; (S)-2-Amino-4-methylvaleric acid; (S)-Leucine; 2-Amino-4-methylpentanoic acid, (S)-; L-(-)-2-Amino-4-methylpentanoic acid; L-Leucine; L-Norvaline, 4-methyl-; L-alpha-Aminoisocaproic acid; Leu; Leucin [German]; Leucina [INN-Spanish]; Leucina [Latin,Spanish]; Leucinum [INN-Latin]; Pentanoic acid, 2-amino-4-methyl-, (S)-; Valeric acid, 2-amino-4-methyl-, (S)-; Leucine, L-; [ChemIDplus] alpha-Aminoisocaproic acid; [Merck Index]",
        "links": [],
        "cross_references": [
          {
            "type": "name_match",
            "text": "caproic acid",
            "confidence": 1.0,
            "uuid": "a68f84aa-0e47-4c25-9c1f-566b2ee47c7e",
            "name": "Caproic acid",
            "url": "https://haz-map.com/Agents/5532",
            "category": "agents"
          },
          {
            "type": "name_match",
            "text": "leucine",
            "confidence": 1.0,
            "uuid": "ba733437-a503-4dd6-9f58-9ce7cb505d48",
            "name": "Leucine",
            "url": "https://haz-map.com/Agents/15162",
            "category": "agents"
          },
          {
            "type": "name_match",
            "text": "valine",
            "confidence": 1.0,
            "uuid": "2284e5a1-ea67-4774-8b4e-3eaa65e20c4f",
            "name": "Valine",
            "url": "https://haz-map.com/Agents/18597",
            "category": "agents"
          },
          {
            "type": "name_match",
            "text": "isocaproic acid",
            "confidence": 1.0,
            "uuid": "39397c9c-b142-4c6a-8ce5-04c9c36451bd",
            "name": "Isocaproic acid",
            "url": "https://haz-map.com/Agents/21056",
            "category": "agents"
          }
        ]
      },
      "category": {
        "original_name": "Category",
        "value": "Amino Acids and Derivatives",
        "links": [],
        "cross_references": []
      },
      "description": {
        "original_name": "Description",
        "value": "White solid; [Merck Index] White powder; [Sigma-Aldrich MSDS]",
        "links": [],
        "cross_references": []
      },
      "sourcesuses": {
        "original_name": "Sources/Uses",
        "value": "An essential amino acid; [Merck Index] Used as a flavoring agent and nutritional supplement for foods; [FDA] Used in biochemical research; [HSDB]",
        "links": [],
        "cross_references": [
          {
            "type": "name_match",
            "text": "mica",
            "confidence": 1.0,
            "uuid": "433f26f1-c399-4596-b179-ce3843cfd465",
            "name": "Mica",
            "url": "https://haz-map.com/Agents/621",
            "category": "agents"
          }
        ]
      },
      "comments": {
        "original_name": "Comments",
        "value": "Teratogenicity and fetal loss observed in high dose animal studies; A more recent oral study of rats showed no adverse effects at 1,000 mg/kg during gestation; No human data available; [REPROTOX] Safe when used as a flavoring agent in food; [JECFA] May cause irritation; Shown to have tumor promoting activity for bladder carcinomas; [Sigma-Aldrich MSDS]",
        "links": [],
        "cross_references": [
          {
            "type": "name_match",
            "text": "dde",
            "confidence": 1.0,
            "uuid": "88506fb4-e7b1-4bde-a283-917057f67fc2",
            "name": "DDE",
            "url": "https://haz-map.com/Agents/4656",
            "category": "agents"
          }
        ]
      },
      "biomedical_references": {
        "original_name": "Biomedical References",
        "value": "Search PubMed",
        "links": [
          {
            "text": "Search PubMed",
            "url": "https://www.ncbi.nlm.nih.gov/pubmed?term=Leucine%20AND%20human%5Bmh%5D%20AND%20%28Occupational%20Diseases%20%5Bmh%5D%20OR%20Occupational%20Exposure%20%5Bmh%5D%29%20%20AND%20%28tox%5Bsb%5D%29&cmd=search"
          }
        ],
        "cross_references": []
      }
    },
    "exposure_assessment": {
      "vapor_pressure": {
        "original_name": "Vapor Pressure",
        "value": "1.34E-08 mm Hg",
        "links": [],
        "cross_references": []
      }
    },
    "diseases_processes_and_activities_linked_to_this_agent": {
      "other_information": {
        "original_name": "Other Information",
        "value": "No other related information on this agent was found.",
        "links": [],
        "cross_references": []
      }
    }
  },
  "cross_references": [
    {
      "type": "name_match",
      "text": "mica",
      "confidence": 1.0,
      "uuid": "433f26f1-c399-4596-b179-ce3843cfd465",
      "name": "Mica",
      "url": "https://haz-map.com/Agents/621",
      "category": "agents"
    },
    {
      "type": "name_match",
      "text": "dde",
      "confidence": 1.0,
      "uuid": "88506fb4-e7b1-4bde-a283-917057f67fc2",
      "name": "DDE",
      "url": "https://haz-map.com/Agents/4656",
      "category": "agents"
    },
    {
      "type": "name_match",
      "text": "caproic acid",
      "confidence": 1.0,
      "uuid": "a68f84aa-0e47-4c25-9c1f-566b2ee47c7e",
      "name": "Caproic acid",
      "url": "https://haz-map.com/Agents/5532",
      "category": "agents"
    },
    {
      "type": "name_match",
      "text": "leucine",
      "confidence": 1.0,
      "uuid": "ba733437-a503-4dd6-9f58-9ce7cb505d48",
      "name": "Leucine",
      "url": "https://haz-map.com/Agents/15162",
      "category": "agents"
    },
    {
      "type": "name_match",
      "text": "valine",
      "confidence": 1.0,
      "uuid": "2284e5a1-ea67-4774-8b4e-3eaa65e20c4f",
      "name": "Valine",
      "url": "https://haz-map.com/Agents/18597",
      "category": "agents"
    },
    {
      "type": "name_match",
      "text": "isocaproic acid",
      "confidence": 1.0,
      "uuid": "39397c9c-b142-4c6a-8ce5-04c9c36451bd",
      "name": "Isocaproic acid",
      "url": "https://haz-map.com/Agents/21056",
      "category": "agents"
    }
  ],
  "all_links": [
    {
      "text": "Search PubMed",
      "url": "https://www.ncbi.nlm.nih.gov/pubmed?term=Leucine%20AND%20human%5Bmh%5D%20AND%20%28Occupational%20Diseases%20%5Bmh%5D%20OR%20Occupational%20Exposure%20%5Bmh%5D%29%20%20AND%20%28tox%5Bsb%5D%29&cmd=search"
    }
  ]
}