{
  "metadata": {
    "scraped_from": "https://haz-map.com/Agents/13871",
    "entity_name": "Ficoll",
    "category": "agents",
    "uuid": "ba9e35dc-a998-4e34-9548-7cbeffd555d6",
    "scraped_at": "2025-07-23T21:18:53.689723"
  },
  "parsed_at": "2025-07-24T01:11:30.587430",
  "title": "Ficoll",
  "sections": {
    "general": {
      "agent_name": {
        "original_name": "Agent Name",
        "value": "Ficoll",
        "links": [],
        "cross_references": [
          {
            "type": "name_match",
            "text": "ficoll",
            "confidence": 1.0,
            "uuid": "ba9e35dc-a998-4e34-9548-7cbeffd555d6",
            "name": "Ficoll",
            "url": "https://haz-map.com/Agents/13871",
            "category": "agents"
          }
        ]
      },
      "cas_number": {
        "original_name": "CAS Number",
        "value": "25702-74-3",
        "links": [],
        "cross_references": []
      },
      "formula": {
        "original_name": "Formula",
        "value": "(C12-H22-O11)x-",
        "links": [],
        "cross_references": []
      },
      "major_category": {
        "original_name": "Major Category",
        "value": "Other Uses",
        "links": [],
        "cross_references": []
      },
      "synonyms": {
        "original_name": "Synonyms",
        "value": "alpha-D-Glucopyranoside, beta-D-fructofuranosyl, homopolymer; [ChemIDplus] ANTI-D,-C,-E, CDE (POLYCLONAL),RH-HR CONTROL; [Immucor MSDS]",
        "links": [],
        "cross_references": [
          {
            "type": "name_match",
            "text": "furan",
            "confidence": 1.0,
            "uuid": "96da3d2e-f46b-4100-9000-704d1a86985b",
            "name": "Furan",
            "url": "https://haz-map.com/Agents/1477",
            "category": "agents"
          }
        ]
      },
      "category": {
        "original_name": "Category",
        "value": "Biochemical Research",
        "links": [],
        "cross_references": [
          {
            "type": "name_match",
            "text": "mica",
            "confidence": 1.0,
            "uuid": "433f26f1-c399-4596-b179-ce3843cfd465",
            "name": "Mica",
            "url": "https://haz-map.com/Agents/621",
            "category": "agents"
          }
        ]
      },
      "description": {
        "original_name": "Description",
        "value": "Clear amber liquid; Odorless; [Immucor MSDS]",
        "links": [],
        "cross_references": []
      },
      "sourcesuses": {
        "original_name": "Sources/Uses",
        "value": "Medical diagnostic reagent; [Immucor MSDS] Component of Ficoll-Paque that is used to separate blood into its components; Can be used to separate islets of Langerhans from pancreatic tissue; [Wikipedia]",
        "links": [],
        "cross_references": [
          {
            "type": "name_match",
            "text": "ficoll",
            "confidence": 1.0,
            "uuid": "ba9e35dc-a998-4e34-9548-7cbeffd555d6",
            "name": "Ficoll",
            "url": "https://haz-map.com/Agents/13871",
            "category": "agents"
          }
        ]
      },
      "comments": {
        "original_name": "Comments",
        "value": "A high molecular weight sucrose polymer; [ChemIDplus] May cause eye irritation; [Immucor MSDS]",
        "links": [],
        "cross_references": [
          {
            "type": "name_match",
            "text": "sucrose",
            "confidence": 1.0,
            "uuid": "a278842e-4415-48f2-b2fa-13333ad31146",
            "name": "Sucrose",
            "url": "https://haz-map.com/Agents/633",
            "category": "agents"
          },
          {
            "type": "name_match",
            "text": "ht",
            "confidence": 1.0,
            "uuid": "764df367-8d53-4a11-81a2-31ccfe122a8d",
            "name": "HT",
            "url": "https://haz-map.com/Agents/2168",
            "category": "agents"
          }
        ]
      },
      "biomedical_references": {
        "original_name": "Biomedical References",
        "value": "Search PubMed",
        "links": [
          {
            "text": "Search PubMed",
            "url": "https://www.ncbi.nlm.nih.gov/pubmed?term=Ficoll%20AND%20human%5Bmh%5D%20AND%20%28Occupational%20Diseases%20%5Bmh%5D%20OR%20Occupational%20Exposure%20%5Bmh%5D%29%20%20AND%20%28tox%5Bsb%5D%29&cmd=search"
          }
        ],
        "cross_references": []
      }
    },
    "exposure_assessment": {
      "vapor_pressure": {
        "original_name": "Vapor Pressure",
        "value": "32 mm Hg",
        "links": [],
        "cross_references": []
      }
    },
    "diseases_processes_and_activities_linked_to_this_agent": {
      "other_information": {
        "original_name": "Other Information",
        "value": "No other related information on this agent was found.",
        "links": [],
        "cross_references": []
      }
    }
  },
  "cross_references": [
    {
      "type": "name_match",
      "text": "mica",
      "confidence": 1.0,
      "uuid": "433f26f1-c399-4596-b179-ce3843cfd465",
      "name": "Mica",
      "url": "https://haz-map.com/Agents/621",
      "category": "agents"
    },
    {
      "type": "name_match",
      "text": "sucrose",
      "confidence": 1.0,
      "uuid": "a278842e-4415-48f2-b2fa-13333ad31146",
      "name": "Sucrose",
      "url": "https://haz-map.com/Agents/633",
      "category": "agents"
    },
    {
      "type": "name_match",
      "text": "furan",
      "confidence": 1.0,
      "uuid": "96da3d2e-f46b-4100-9000-704d1a86985b",
      "name": "Furan",
      "url": "https://haz-map.com/Agents/1477",
      "category": "agents"
    },
    {
      "type": "name_match",
      "text": "ht",
      "confidence": 1.0,
      "uuid": "764df367-8d53-4a11-81a2-31ccfe122a8d",
      "name": "HT",
      "url": "https://haz-map.com/Agents/2168",
      "category": "agents"
    },
    {
      "type": "name_match",
      "text": "ficoll",
      "confidence": 1.0,
      "uuid": "ba9e35dc-a998-4e34-9548-7cbeffd555d6",
      "name": "Ficoll",
      "url": "https://haz-map.com/Agents/13871",
      "category": "agents"
    }
  ],
  "all_links": [
    {
      "text": "Search PubMed",
      "url": "https://www.ncbi.nlm.nih.gov/pubmed?term=Ficoll%20AND%20human%5Bmh%5D%20AND%20%28Occupational%20Diseases%20%5Bmh%5D%20OR%20Occupational%20Exposure%20%5Bmh%5D%29%20%20AND%20%28tox%5Bsb%5D%29&cmd=search"
    }
  ]
}