{
  "metadata": {
    "scraped_from": "https://haz-map.com/Agents/6169",
    "entity_name": "MGK 264",
    "category": "agents",
    "uuid": "baf4af71-a0cd-4531-9bcf-bc7241a0a01f",
    "scraped_at": "2025-07-23T19:59:14.618226"
  },
  "parsed_at": "2025-07-24T01:07:48.052312",
  "title": "MGK 264",
  "sections": {
    "general": {
      "agent_name": {
        "original_name": "Agent Name",
        "value": "MGK 264",
        "links": [],
        "cross_references": [
          {
            "type": "name_match",
            "text": "mgk 264",
            "confidence": 1.0,
            "uuid": "baf4af71-a0cd-4531-9bcf-bc7241a0a01f",
            "name": "MGK 264",
            "url": "https://haz-map.com/Agents/6169",
            "category": "agents"
          }
        ]
      },
      "cas_number": {
        "original_name": "CAS Number",
        "value": "113-48-4",
        "links": [],
        "cross_references": []
      },
      "formula": {
        "original_name": "Formula",
        "value": "C17-H25-N-O2",
        "links": [],
        "cross_references": []
      },
      "major_category": {
        "original_name": "Major Category",
        "value": "Pesticides",
        "links": [],
        "cross_references": []
      },
      "synonyms": {
        "original_name": "Synonyms",
        "value": "2-(2-Ethylhexyl)-3a,4,7,7a-tetrahydro-4,7-methano-1H-isoindole-1,3(2H)-dione; 264; 4,7-Methano-1H-isoindole-1,3(2H)-dione, 2-(2-ethylhexyl)-3a,4,7,7a-tetrahydro-; 5-Norbornene-2,3-dicarboximide, N-(2-ethylhexyl)-; Bicyclo(2.2.1)heptene-2-dicarboxylic acid, 2-ethylhexylimide; ENT 8,184; Endomethylenetetrahydrophthalic acid, N-2-ethylhexyl imide; Endomethylenetetrahydrophthalic acid, N-2-ethylhexylimide; MGK repellent 264; MGK-264; N-(2-Ethylhexyl)-5-norbornene-2,3-dicarboximide; N-(2-Ethylhexyl)-8,9,10-trinorborn-5-ene-2,3-dicarboximide; N-(2-Ethylhexyl)bicyclo-(2,2,1)-hept-5-ene-2,3-dicarboximide; N-2-Ethylhexyl bicycloheptenedicarboximide; N-2-Ethylhexylbicycloheptenedicarboximide; N-2-Ethylhexylimid kyseliny bicyklo-(2,2,1)-5-hepten-2,3-dikarboxylove [Czech]; N-2-Ethylhexylimide endomethylenetetrahydrophthalic acid; N-Octyl bicycloheptene dicarboximide; N-Octylbicyclo-(2.2.1)-5-heptene-2,3-dicarboximide; N-Octylbicycloheptenedicarboximide; Octacide 264; Octyl bicycloheptenedicarboximide; Pyrdone (obsolete); Pyrodone; Sinepyrin 222; Synepirin 222; Synergist 264; Van Dyk 264; endo Methylenetetrahydrophthalic acid, N-2-ethylhexyl imide; [ChemIDplus]",
        "links": [],
        "cross_references": [
          {
            "type": "name_match",
            "text": "ethylene",
            "confidence": 1.0,
            "uuid": "958eacc0-5135-4b62-bb93-6df972bf552f",
            "name": "Ethylene",
            "url": "https://haz-map.com/Agents/1076",
            "category": "agents"
          },
          {
            "type": "name_match",
            "text": "ht",
            "confidence": 1.0,
            "uuid": "764df367-8d53-4a11-81a2-31ccfe122a8d",
            "name": "HT",
            "url": "https://haz-map.com/Agents/2168",
            "category": "agents"
          },
          {
            "type": "name_match",
            "text": "indole",
            "confidence": 1.0,
            "uuid": "9c93731a-de8c-47f7-94f9-bfba35edd847",
            "name": "Indole",
            "url": "https://haz-map.com/Agents/5628",
            "category": "agents"
          },
          {
            "type": "name_match",
            "text": "phthalic acid",
            "confidence": 1.0,
            "uuid": "f19ac6b5-df06-48aa-81e6-825cdcfe8f9c",
            "name": "Phthalic acid",
            "url": "https://haz-map.com/Agents/6702",
            "category": "agents"
          },
          {
            "type": "name_match",
            "text": "n-octyl bicycloheptene dicarboximide",
            "confidence": 1.0,
            "uuid": "db232530-f5ba-48ed-9d49-6a3ea9833893",
            "name": "N-Octyl bicycloheptene dicarboximide",
            "url": "https://haz-map.com/Agents/8772",
            "category": "agents"
          },
          {
            "type": "name_match",
            "text": "heptene",
            "confidence": 1.0,
            "uuid": "a41f7be2-f9f6-47de-967c-2683b506d55d",
            "name": "Heptene",
            "url": "https://haz-map.com/Agents/14566",
            "category": "agents"
          },
          {
            "type": "name_match",
            "text": "cycloheptene",
            "confidence": 1.0,
            "uuid": "5048ca1f-1285-4c2d-a094-120e20d1163f",
            "name": "Cycloheptene",
            "url": "https://haz-map.com/Agents/20497",
            "category": "agents"
          }
        ]
      },
      "category": {
        "original_name": "Category",
        "value": "Other Insecticides",
        "links": [],
        "cross_references": []
      },
      "description": {
        "original_name": "Description",
        "value": "Light yellow liquid; [HSDB]",
        "links": [],
        "cross_references": [
          {
            "type": "name_match",
            "text": "ht",
            "confidence": 1.0,
            "uuid": "764df367-8d53-4a11-81a2-31ccfe122a8d",
            "name": "HT",
            "url": "https://haz-map.com/Agents/2168",
            "category": "agents"
          }
        ]
      },
      "sourcesuses": {
        "original_name": "Sources/Uses",
        "value": "Used as synergist for pyrethrins, allethrin, pyethroids, and rotenone; Commonly used with piperonyl butoxide in household and industrial aerosols; [HSDB]",
        "links": [],
        "cross_references": [
          {
            "type": "name_match",
            "text": "rotenone",
            "confidence": 1.0,
            "uuid": "53b641f1-8ca1-4abf-b8fb-b0e4d89f6d63",
            "name": "Rotenone",
            "url": "https://haz-map.com/Agents/618",
            "category": "agents"
          },
          {
            "type": "name_match",
            "text": "allethrin",
            "confidence": 1.0,
            "uuid": "6ea52a3e-d052-48af-9f2b-a571b0b3d3f0",
            "name": "Allethrin",
            "url": "https://haz-map.com/Agents/1768",
            "category": "agents"
          },
          {
            "type": "name_match",
            "text": "piperonyl butoxide",
            "confidence": 1.0,
            "uuid": "7094e7ca-33b9-45be-8c96-f2868f9c5fd0",
            "name": "Piperonyl butoxide",
            "url": "https://haz-map.com/Agents/6725",
            "category": "agents"
          }
        ]
      },
      "comments": {
        "original_name": "Comments",
        "value": "May cause CNS excitation then depression; [HSDB] Embryotoxic in a 3-generation rat study, but only at maternally toxic doses; [REPROTOX] May cause irritation; Can be absorbed through skin; [MSDSonline]",
        "links": [],
        "cross_references": []
      },
      "reference_link_1": {
        "original_name": "Reference Link #1",
        "value": "EPA Pesticide Chemical Search",
        "links": [
          {
            "text": "EPA Pesticide Chemical Search",
            "url": "https://iaspub.epa.gov/apex/pesticides/f?p=CHEMICALSEARCH:1:"
          }
        ],
        "cross_references": [
          {
            "type": "name_match",
            "text": "mica",
            "confidence": 1.0,
            "uuid": "433f26f1-c399-4596-b179-ce3843cfd465",
            "name": "Mica",
            "url": "https://haz-map.com/Agents/621",
            "category": "agents"
          }
        ]
      },
      "biomedical_references": {
        "original_name": "Biomedical References",
        "value": "Search PubMed",
        "links": [
          {
            "text": "Search PubMed",
            "url": "https://www.ncbi.nlm.nih.gov/pubmed?term=MGK+264%20AND%20human%5Bmh%5D%20AND%20%28Occupational%20Diseases%20%5Bmh%5D%20OR%20Occupational%20Exposure%20%5Bmh%5D%29%20%20AND%20%28tox%5Bsb%5D%29&cmd=search"
          }
        ],
        "cross_references": []
      }
    },
    "exposure_assessment": {
      "vapor_pressure": {
        "original_name": "Vapor Pressure",
        "value": "1.8E-05 mm Hg",
        "links": [],
        "cross_references": []
      }
    },
    "adverse_effects": {
      "neurotoxin": {
        "original_name": "Neurotoxin",
        "value": "Other CNS neurotoxin",
        "links": [],
        "cross_references": []
      },
      "hepatotoxin": {
        "original_name": "Hepatotoxin",
        "value": "Hepatoxic (a) from occupational exposure (secondary effect) or (b) in animal studies or in humans after ingestion",
        "links": [],
        "cross_references": []
      }
    },
    "diseases_processes_and_activities_linked_to_this_agent": {
      "processes": {
        "original_name": "Processes",
        "value": "Industrial Processes with risk of exposure: Farming (Pesticides)",
        "links": [
          {
            "text": "Farming (Pesticides)",
            "url": "https://haz-map.com/Processes/218"
          }
        ],
        "cross_references": [
          {
            "type": "url_match",
            "text": "Farming (Pesticides)",
            "url": "https://haz-map.com/Processes/218",
            "confidence": 1.0,
            "uuid": "cf1e5815-c9bb-4917-82a5-391848170b7e",
            "name": "Farming (Pesticides)",
            "category": "processes"
          }
        ]
      }
    }
  },
  "cross_references": [
    {
      "type": "url_match",
      "text": "Farming (Pesticides)",
      "url": "https://haz-map.com/Processes/218",
      "confidence": 1.0,
      "uuid": "cf1e5815-c9bb-4917-82a5-391848170b7e",
      "name": "Farming (Pesticides)",
      "category": "processes"
    },
    {
      "type": "name_match",
      "text": "rotenone",
      "confidence": 1.0,
      "uuid": "53b641f1-8ca1-4abf-b8fb-b0e4d89f6d63",
      "name": "Rotenone",
      "url": "https://haz-map.com/Agents/618",
      "category": "agents"
    },
    {
      "type": "name_match",
      "text": "mica",
      "confidence": 1.0,
      "uuid": "433f26f1-c399-4596-b179-ce3843cfd465",
      "name": "Mica",
      "url": "https://haz-map.com/Agents/621",
      "category": "agents"
    },
    {
      "type": "name_match",
      "text": "ethylene",
      "confidence": 1.0,
      "uuid": "958eacc0-5135-4b62-bb93-6df972bf552f",
      "name": "Ethylene",
      "url": "https://haz-map.com/Agents/1076",
      "category": "agents"
    },
    {
      "type": "name_match",
      "text": "allethrin",
      "confidence": 1.0,
      "uuid": "6ea52a3e-d052-48af-9f2b-a571b0b3d3f0",
      "name": "Allethrin",
      "url": "https://haz-map.com/Agents/1768",
      "category": "agents"
    },
    {
      "type": "name_match",
      "text": "ht",
      "confidence": 1.0,
      "uuid": "764df367-8d53-4a11-81a2-31ccfe122a8d",
      "name": "HT",
      "url": "https://haz-map.com/Agents/2168",
      "category": "agents"
    },
    {
      "type": "name_match",
      "text": "indole",
      "confidence": 1.0,
      "uuid": "9c93731a-de8c-47f7-94f9-bfba35edd847",
      "name": "Indole",
      "url": "https://haz-map.com/Agents/5628",
      "category": "agents"
    },
    {
      "type": "name_match",
      "text": "mgk 264",
      "confidence": 1.0,
      "uuid": "baf4af71-a0cd-4531-9bcf-bc7241a0a01f",
      "name": "MGK 264",
      "url": "https://haz-map.com/Agents/6169",
      "category": "agents"
    },
    {
      "type": "name_match",
      "text": "phthalic acid",
      "confidence": 1.0,
      "uuid": "f19ac6b5-df06-48aa-81e6-825cdcfe8f9c",
      "name": "Phthalic acid",
      "url": "https://haz-map.com/Agents/6702",
      "category": "agents"
    },
    {
      "type": "name_match",
      "text": "piperonyl butoxide",
      "confidence": 1.0,
      "uuid": "7094e7ca-33b9-45be-8c96-f2868f9c5fd0",
      "name": "Piperonyl butoxide",
      "url": "https://haz-map.com/Agents/6725",
      "category": "agents"
    },
    {
      "type": "name_match",
      "text": "n-octyl bicycloheptene dicarboximide",
      "confidence": 1.0,
      "uuid": "db232530-f5ba-48ed-9d49-6a3ea9833893",
      "name": "N-Octyl bicycloheptene dicarboximide",
      "url": "https://haz-map.com/Agents/8772",
      "category": "agents"
    },
    {
      "type": "name_match",
      "text": "heptene",
      "confidence": 1.0,
      "uuid": "a41f7be2-f9f6-47de-967c-2683b506d55d",
      "name": "Heptene",
      "url": "https://haz-map.com/Agents/14566",
      "category": "agents"
    },
    {
      "type": "name_match",
      "text": "cycloheptene",
      "confidence": 1.0,
      "uuid": "5048ca1f-1285-4c2d-a094-120e20d1163f",
      "name": "Cycloheptene",
      "url": "https://haz-map.com/Agents/20497",
      "category": "agents"
    }
  ],
  "all_links": [
    {
      "text": "EPA Pesticide Chemical Search",
      "url": "https://iaspub.epa.gov/apex/pesticides/f?p=CHEMICALSEARCH:1:"
    },
    {
      "text": "Search PubMed",
      "url": "https://www.ncbi.nlm.nih.gov/pubmed?term=MGK+264%20AND%20human%5Bmh%5D%20AND%20%28Occupational%20Diseases%20%5Bmh%5D%20OR%20Occupational%20Exposure%20%5Bmh%5D%29%20%20AND%20%28tox%5Bsb%5D%29&cmd=search"
    },
    {
      "text": "Farming (Pesticides)",
      "url": "https://haz-map.com/Processes/218"
    }
  ]
}