{
  "metadata": {
    "scraped_from": "https://haz-map.com/Agents/12234",
    "entity_name": "Benzoxazole",
    "category": "agents",
    "uuid": "bb3b6774-ad17-44a9-b096-679988a078e1",
    "scraped_at": "2025-07-23T21:06:39.057238"
  },
  "parsed_at": "2025-07-24T01:10:31.116013",
  "title": "Benzoxazole",
  "sections": {
    "general": {
      "agent_name": {
        "original_name": "Agent Name",
        "value": "Benzoxazole",
        "links": [],
        "cross_references": [
          {
            "type": "name_match",
            "text": "benzoxazole",
            "confidence": 1.0,
            "uuid": "bb3b6774-ad17-44a9-b096-679988a078e1",
            "name": "Benzoxazole",
            "url": "https://haz-map.com/Agents/12234",
            "category": "agents"
          }
        ]
      },
      "cas_number": {
        "original_name": "CAS Number",
        "value": "273-53-0",
        "links": [],
        "cross_references": []
      },
      "formula": {
        "original_name": "Formula",
        "value": "C7-H5-N-O",
        "links": [],
        "cross_references": []
      },
      "major_category": {
        "original_name": "Major Category",
        "value": "Nitrogen Compounds",
        "links": [],
        "cross_references": [
          {
            "type": "name_match",
            "text": "nitrogen",
            "confidence": 1.0,
            "uuid": "db5e90a9-06d2-45b9-8b81-f345a89b0bc0",
            "name": "Nitrogen",
            "url": "https://haz-map.com/Agents/1072",
            "category": "agents"
          }
        ]
      },
      "synonyms": {
        "original_name": "Synonyms",
        "value": "1-Oxa-3-aza-1H-indene; 1-Oxa-3-azaindene; [ChemIDplus]",
        "links": [],
        "cross_references": [
          {
            "type": "name_match",
            "text": "indene",
            "confidence": 1.0,
            "uuid": "abe76b78-2986-4d49-b6e5-d1ce49774b99",
            "name": "Indene",
            "url": "https://haz-map.com/Agents/520",
            "category": "agents"
          }
        ]
      },
      "category": {
        "original_name": "Category",
        "value": "Other Aromatics (Nitrogen)",
        "links": [],
        "cross_references": [
          {
            "type": "name_match",
            "text": "nitrogen",
            "confidence": 1.0,
            "uuid": "db5e90a9-06d2-45b9-8b81-f345a89b0bc0",
            "name": "Nitrogen",
            "url": "https://haz-map.com/Agents/1072",
            "category": "agents"
          }
        ]
      },
      "description": {
        "original_name": "Description",
        "value": "White solid; mp = 28-31 deg C; [Alfa Aesar MSDS]",
        "links": [],
        "cross_references": []
      },
      "comments": {
        "original_name": "Comments",
        "value": "May cause irritation; Harmful by ingestion; [Alfa Aesar MSDS] See \"2-Methylbenzoxazole.\"",
        "links": [],
        "cross_references": [
          {
            "type": "name_match",
            "text": "2-methylbenzoxazole",
            "confidence": 1.0,
            "uuid": "d20b7083-73d5-467a-b551-56666d8069ad",
            "name": "2-Methylbenzoxazole",
            "url": "https://haz-map.com/Agents/10910",
            "category": "agents"
          },
          {
            "type": "name_match",
            "text": "benzoxazole",
            "confidence": 1.0,
            "uuid": "bb3b6774-ad17-44a9-b096-679988a078e1",
            "name": "Benzoxazole",
            "url": "https://haz-map.com/Agents/12234",
            "category": "agents"
          }
        ]
      },
      "biomedical_references": {
        "original_name": "Biomedical References",
        "value": "Search PubMed",
        "links": [
          {
            "text": "Search PubMed",
            "url": "https://www.ncbi.nlm.nih.gov/pubmed?term=Benzoxazole%20AND%20human%5Bmh%5D%20AND%20%28Occupational%20Diseases%20%5Bmh%5D%20OR%20Occupational%20Exposure%20%5Bmh%5D%29%20%20AND%20%28tox%5Bsb%5D%29&cmd=search"
          }
        ],
        "cross_references": []
      }
    },
    "exposure_assessment": {
      "vapor_pressure": {
        "original_name": "Vapor Pressure",
        "value": "0.247 mm Hg",
        "links": [],
        "cross_references": []
      }
    },
    "diseases_processes_and_activities_linked_to_this_agent": {
      "other_information": {
        "original_name": "Other Information",
        "value": "No other related information on this agent was found.",
        "links": [],
        "cross_references": []
      }
    }
  },
  "cross_references": [
    {
      "type": "name_match",
      "text": "indene",
      "confidence": 1.0,
      "uuid": "abe76b78-2986-4d49-b6e5-d1ce49774b99",
      "name": "Indene",
      "url": "https://haz-map.com/Agents/520",
      "category": "agents"
    },
    {
      "type": "name_match",
      "text": "nitrogen",
      "confidence": 1.0,
      "uuid": "db5e90a9-06d2-45b9-8b81-f345a89b0bc0",
      "name": "Nitrogen",
      "url": "https://haz-map.com/Agents/1072",
      "category": "agents"
    },
    {
      "type": "name_match",
      "text": "2-methylbenzoxazole",
      "confidence": 1.0,
      "uuid": "d20b7083-73d5-467a-b551-56666d8069ad",
      "name": "2-Methylbenzoxazole",
      "url": "https://haz-map.com/Agents/10910",
      "category": "agents"
    },
    {
      "type": "name_match",
      "text": "benzoxazole",
      "confidence": 1.0,
      "uuid": "bb3b6774-ad17-44a9-b096-679988a078e1",
      "name": "Benzoxazole",
      "url": "https://haz-map.com/Agents/12234",
      "category": "agents"
    }
  ],
  "all_links": [
    {
      "text": "Search PubMed",
      "url": "https://www.ncbi.nlm.nih.gov/pubmed?term=Benzoxazole%20AND%20human%5Bmh%5D%20AND%20%28Occupational%20Diseases%20%5Bmh%5D%20OR%20Occupational%20Exposure%20%5Bmh%5D%29%20%20AND%20%28tox%5Bsb%5D%29&cmd=search"
    }
  ]
}