{
  "metadata": {
    "scraped_from": "https://haz-map.com/Agents/6428",
    "entity_name": "Octachlorostyrene",
    "category": "agents",
    "uuid": "bc8370a2-454c-4ea1-82ee-b920f6bb3baa",
    "scraped_at": "2025-07-23T20:01:52.309661"
  },
  "parsed_at": "2025-07-24T00:58:38.938753",
  "title": "Octachlorostyrene",
  "sections": {
    "general": {
      "agent_name": {
        "original_name": "Agent Name",
        "value": "Octachlorostyrene",
        "links": [],
        "cross_references": [
          {
            "type": "name_match",
            "text": "styrene",
            "confidence": 1.0,
            "uuid": "03c5632f-5079-4688-82bd-0dacf3d0d36a",
            "name": "Styrene",
            "url": "https://haz-map.com/Agents/32",
            "category": "agents"
          },
          {
            "type": "name_match",
            "text": "octachlorostyrene",
            "confidence": 1.0,
            "uuid": "bc8370a2-454c-4ea1-82ee-b920f6bb3baa",
            "name": "Octachlorostyrene",
            "url": "https://haz-map.com/Agents/6428",
            "category": "agents"
          }
        ]
      },
      "cas_number": {
        "original_name": "CAS Number",
        "value": "29082-74-4",
        "links": [],
        "cross_references": []
      },
      "formula": {
        "original_name": "Formula",
        "value": "C8-Cl8",
        "links": [],
        "cross_references": []
      },
      "major_category": {
        "original_name": "Major Category",
        "value": "Other Classes",
        "links": [],
        "cross_references": []
      },
      "synonyms": {
        "original_name": "Synonyms",
        "value": "Benzene, pentachloro(trichloroethenyl)-; Styrene, octachloro-; Trichlorovinylpentachlorobenzene; [ChemIDplus]",
        "links": [],
        "cross_references": [
          {
            "type": "name_match",
            "text": "benzene",
            "confidence": 1.0,
            "uuid": "b05124de-5f34-4c14-8f04-ccb20c3780d9",
            "name": "Benzene",
            "url": "https://haz-map.com/Agents/5",
            "category": "agents"
          },
          {
            "type": "name_match",
            "text": "styrene",
            "confidence": 1.0,
            "uuid": "03c5632f-5079-4688-82bd-0dacf3d0d36a",
            "name": "Styrene",
            "url": "https://haz-map.com/Agents/32",
            "category": "agents"
          },
          {
            "type": "name_match",
            "text": "chlorobenzene",
            "confidence": 1.0,
            "uuid": "7e598eca-f35d-493c-aa78-93bb67744c4c",
            "name": "Chlorobenzene",
            "url": "https://haz-map.com/Agents/85",
            "category": "agents"
          },
          {
            "type": "name_match",
            "text": "pentachlorobenzene",
            "confidence": 1.0,
            "uuid": "93da75d6-378e-4e31-9cf2-40466f467fef",
            "name": "Pentachlorobenzene",
            "url": "https://haz-map.com/Agents/1909",
            "category": "agents"
          }
        ]
      },
      "category": {
        "original_name": "Category",
        "value": "Halogenated Monoaromatics",
        "links": [],
        "cross_references": []
      },
      "description": {
        "original_name": "Description",
        "value": "White solid; [MSDSonline]",
        "links": [],
        "cross_references": []
      },
      "sourcesuses": {
        "original_name": "Sources/Uses",
        "value": "An unintended by-product of various industrial processes including electrolytic production of chlorine gas or magnesium, refining and degassing in aluminum smelting, and chlorination and distillation for the production of niobium and tantalum; [HSDB]",
        "links": [],
        "cross_references": [
          {
            "type": "name_match",
            "text": "chlorine",
            "confidence": 1.0,
            "uuid": "8a67a545-61fb-4d71-865e-ff2725a0b999",
            "name": "Chlorine",
            "url": "https://haz-map.com/Agents/89",
            "category": "agents"
          },
          {
            "type": "name_match",
            "text": "aluminum",
            "confidence": 1.0,
            "uuid": "60ab7471-1af2-4a33-b727-63fa1e1fa189",
            "name": "Aluminum",
            "url": "https://haz-map.com/Agents/287",
            "category": "agents"
          },
          {
            "type": "name_match",
            "text": "magnesium",
            "confidence": 1.0,
            "uuid": "cc686725-b850-45b5-ad9d-2a40f17936a8",
            "name": "Magnesium",
            "url": "https://haz-map.com/Agents/1549",
            "category": "agents"
          },
          {
            "type": "name_match",
            "text": "niobium",
            "confidence": 1.0,
            "uuid": "cd2b9464-e49a-43d8-b47f-51063bf54cbf",
            "name": "Niobium",
            "url": "https://haz-map.com/Agents/1997",
            "category": "agents"
          },
          {
            "type": "name_match",
            "text": "chlorin",
            "confidence": 1.0,
            "uuid": "4a566fec-ec7e-42b0-9f14-ec586335e694",
            "name": "Chlorin",
            "url": "https://haz-map.com/Agents/20422",
            "category": "agents"
          }
        ]
      },
      "comments": {
        "original_name": "Comments",
        "value": "Effects in single oral dose study with rats include increased liver weight, liver enzyme activity, serum cholesterol, and uric acid; Histological changes to the liver and thyroid were observed in 28 day feeding study with rats at doses as low as 5 ppm; Significant histological changes to liver, thyroid, and kidneys observed in one year feeding study with rats; [HSDB]",
        "links": [],
        "cross_references": [
          {
            "type": "name_match",
            "text": "ht",
            "confidence": 1.0,
            "uuid": "764df367-8d53-4a11-81a2-31ccfe122a8d",
            "name": "HT",
            "url": "https://haz-map.com/Agents/2168",
            "category": "agents"
          },
          {
            "type": "name_match",
            "text": "cholesterol",
            "confidence": 1.0,
            "uuid": "3e9e7ae0-82d3-48a0-b599-722a89aa7bfc",
            "name": "Cholesterol",
            "url": "https://haz-map.com/Agents/12966",
            "category": "agents"
          },
          {
            "type": "name_match",
            "text": "uric acid",
            "confidence": 1.0,
            "uuid": "bd67e9b1-899e-4f1c-95f0-d25380f3c966",
            "name": "Uric acid",
            "url": "https://haz-map.com/Agents/18587",
            "category": "agents"
          }
        ]
      },
      "biomedical_references": {
        "original_name": "Biomedical References",
        "value": "Search PubMed",
        "links": [
          {
            "text": "Search PubMed",
            "url": "https://www.ncbi.nlm.nih.gov/pubmed?term=Octachlorostyrene%20AND%20human%5Bmh%5D%20AND%20%28Occupational%20Diseases%20%5Bmh%5D%20OR%20Occupational%20Exposure%20%5Bmh%5D%29%20%20AND%20%28tox%5Bsb%5D%29&cmd=search"
          }
        ],
        "cross_references": []
      }
    },
    "exposure_assessment": {
      "vapor_pressure": {
        "original_name": "Vapor Pressure",
        "value": "1.32E-05 mm Hg",
        "links": [],
        "cross_references": []
      }
    },
    "adverse_effects": {
      "hepatotoxin": {
        "original_name": "Hepatotoxin",
        "value": "Hepatoxic (a) from occupational exposure (secondary effect) or (b) in animal studies or in humans after ingestion",
        "links": [],
        "cross_references": []
      }
    },
    "diseases_processes_and_activities_linked_to_this_agent": {
      "processes": {
        "original_name": "Processes",
        "value": "Industrial Processes with risk of exposure: Aluminum Producing Metal Extraction and Refining",
        "links": [
          {
            "text": "Aluminum Producing",
            "url": "https://haz-map.com/Processes/1"
          },
          {
            "text": "Metal Extraction and Refining",
            "url": "https://haz-map.com/Processes/261"
          }
        ],
        "cross_references": [
          {
            "type": "url_match",
            "text": "Aluminum Producing",
            "url": "https://haz-map.com/Processes/1",
            "confidence": 1.0,
            "uuid": "a56d4fbd-892c-4396-b20b-d1f2ca539889",
            "name": "Aluminum Producing",
            "category": "processes"
          },
          {
            "type": "name_match",
            "text": "aluminum",
            "confidence": 1.0,
            "uuid": "60ab7471-1af2-4a33-b727-63fa1e1fa189",
            "name": "Aluminum",
            "url": "https://haz-map.com/Agents/287",
            "category": "agents"
          }
        ]
      }
    }
  },
  "cross_references": [
    {
      "type": "url_match",
      "text": "Aluminum Producing",
      "url": "https://haz-map.com/Processes/1",
      "confidence": 1.0,
      "uuid": "a56d4fbd-892c-4396-b20b-d1f2ca539889",
      "name": "Aluminum Producing",
      "category": "processes"
    },
    {
      "type": "name_match",
      "text": "benzene",
      "confidence": 1.0,
      "uuid": "b05124de-5f34-4c14-8f04-ccb20c3780d9",
      "name": "Benzene",
      "url": "https://haz-map.com/Agents/5",
      "category": "agents"
    },
    {
      "type": "name_match",
      "text": "styrene",
      "confidence": 1.0,
      "uuid": "03c5632f-5079-4688-82bd-0dacf3d0d36a",
      "name": "Styrene",
      "url": "https://haz-map.com/Agents/32",
      "category": "agents"
    },
    {
      "type": "name_match",
      "text": "chlorobenzene",
      "confidence": 1.0,
      "uuid": "7e598eca-f35d-493c-aa78-93bb67744c4c",
      "name": "Chlorobenzene",
      "url": "https://haz-map.com/Agents/85",
      "category": "agents"
    },
    {
      "type": "name_match",
      "text": "chlorine",
      "confidence": 1.0,
      "uuid": "8a67a545-61fb-4d71-865e-ff2725a0b999",
      "name": "Chlorine",
      "url": "https://haz-map.com/Agents/89",
      "category": "agents"
    },
    {
      "type": "name_match",
      "text": "aluminum",
      "confidence": 1.0,
      "uuid": "60ab7471-1af2-4a33-b727-63fa1e1fa189",
      "name": "Aluminum",
      "url": "https://haz-map.com/Agents/287",
      "category": "agents"
    },
    {
      "type": "name_match",
      "text": "magnesium",
      "confidence": 1.0,
      "uuid": "cc686725-b850-45b5-ad9d-2a40f17936a8",
      "name": "Magnesium",
      "url": "https://haz-map.com/Agents/1549",
      "category": "agents"
    },
    {
      "type": "name_match",
      "text": "pentachlorobenzene",
      "confidence": 1.0,
      "uuid": "93da75d6-378e-4e31-9cf2-40466f467fef",
      "name": "Pentachlorobenzene",
      "url": "https://haz-map.com/Agents/1909",
      "category": "agents"
    },
    {
      "type": "name_match",
      "text": "niobium",
      "confidence": 1.0,
      "uuid": "cd2b9464-e49a-43d8-b47f-51063bf54cbf",
      "name": "Niobium",
      "url": "https://haz-map.com/Agents/1997",
      "category": "agents"
    },
    {
      "type": "name_match",
      "text": "ht",
      "confidence": 1.0,
      "uuid": "764df367-8d53-4a11-81a2-31ccfe122a8d",
      "name": "HT",
      "url": "https://haz-map.com/Agents/2168",
      "category": "agents"
    },
    {
      "type": "name_match",
      "text": "octachlorostyrene",
      "confidence": 1.0,
      "uuid": "bc8370a2-454c-4ea1-82ee-b920f6bb3baa",
      "name": "Octachlorostyrene",
      "url": "https://haz-map.com/Agents/6428",
      "category": "agents"
    },
    {
      "type": "name_match",
      "text": "cholesterol",
      "confidence": 1.0,
      "uuid": "3e9e7ae0-82d3-48a0-b599-722a89aa7bfc",
      "name": "Cholesterol",
      "url": "https://haz-map.com/Agents/12966",
      "category": "agents"
    },
    {
      "type": "name_match",
      "text": "uric acid",
      "confidence": 1.0,
      "uuid": "bd67e9b1-899e-4f1c-95f0-d25380f3c966",
      "name": "Uric acid",
      "url": "https://haz-map.com/Agents/18587",
      "category": "agents"
    },
    {
      "type": "name_match",
      "text": "chlorin",
      "confidence": 1.0,
      "uuid": "4a566fec-ec7e-42b0-9f14-ec586335e694",
      "name": "Chlorin",
      "url": "https://haz-map.com/Agents/20422",
      "category": "agents"
    }
  ],
  "all_links": [
    {
      "text": "Search PubMed",
      "url": "https://www.ncbi.nlm.nih.gov/pubmed?term=Octachlorostyrene%20AND%20human%5Bmh%5D%20AND%20%28Occupational%20Diseases%20%5Bmh%5D%20OR%20Occupational%20Exposure%20%5Bmh%5D%29%20%20AND%20%28tox%5Bsb%5D%29&cmd=search"
    },
    {
      "text": "Aluminum Producing",
      "url": "https://haz-map.com/Processes/1"
    },
    {
      "text": "Metal Extraction and Refining",
      "url": "https://haz-map.com/Processes/261"
    }
  ]
}