{
  "metadata": {
    "scraped_from": "https://haz-map.com/Agents/11422",
    "entity_name": "2-Tetradecanone",
    "category": "agents",
    "uuid": "bc89000a-5ddc-45e8-8da6-58bdd1089d08",
    "scraped_at": "2025-07-23T20:58:56.319729"
  },
  "parsed_at": "2025-07-24T01:11:43.727443",
  "title": "2-Tetradecanone",
  "sections": {
    "general": {
      "agent_name": {
        "original_name": "Agent Name",
        "value": "2-Tetradecanone",
        "links": [],
        "cross_references": [
          {
            "type": "name_match",
            "text": "2-tetradecanone",
            "confidence": 1.0,
            "uuid": "bc89000a-5ddc-45e8-8da6-58bdd1089d08",
            "name": "2-Tetradecanone",
            "url": "https://haz-map.com/Agents/11422",
            "category": "agents"
          }
        ]
      },
      "cas_number": {
        "original_name": "CAS Number",
        "value": "2345-27-9",
        "links": [],
        "cross_references": []
      },
      "formula": {
        "original_name": "Formula",
        "value": "C14-H28-O",
        "links": [],
        "cross_references": []
      },
      "major_category": {
        "original_name": "Major Category",
        "value": "Other Classes",
        "links": [],
        "cross_references": []
      },
      "synonyms": {
        "original_name": "Synonyms",
        "value": "Tetradecan-2-one; [ChemIDplus]",
        "links": [],
        "cross_references": []
      },
      "category": {
        "original_name": "Category",
        "value": "Aliphatic Ketones, Other",
        "links": [],
        "cross_references": []
      },
      "description": {
        "original_name": "Description",
        "value": "Melting point = 35.5 deg C; [ChemSampCo MSDS]",
        "links": [],
        "cross_references": []
      },
      "comments": {
        "original_name": "Comments",
        "value": "An irritant; [ChemSampCo MSDS]",
        "links": [],
        "cross_references": []
      },
      "biomedical_references": {
        "original_name": "Biomedical References",
        "value": "Search PubMed",
        "links": [
          {
            "text": "Search PubMed",
            "url": "https://www.ncbi.nlm.nih.gov/pubmed?term=2-Tetradecanone%20AND%20human%5Bmh%5D%20AND%20%28Occupational%20Diseases%20%5Bmh%5D%20OR%20Occupational%20Exposure%20%5Bmh%5D%29%20%20AND%20%28tox%5Bsb%5D%29&cmd=search"
          }
        ],
        "cross_references": []
      }
    },
    "diseases_processes_and_activities_linked_to_this_agent": {
      "other_information": {
        "original_name": "Other Information",
        "value": "No other related information on this agent was found.",
        "links": [],
        "cross_references": []
      }
    }
  },
  "cross_references": [
    {
      "type": "name_match",
      "text": "2-tetradecanone",
      "confidence": 1.0,
      "uuid": "bc89000a-5ddc-45e8-8da6-58bdd1089d08",
      "name": "2-Tetradecanone",
      "url": "https://haz-map.com/Agents/11422",
      "category": "agents"
    }
  ],
  "all_links": [
    {
      "text": "Search PubMed",
      "url": "https://www.ncbi.nlm.nih.gov/pubmed?term=2-Tetradecanone%20AND%20human%5Bmh%5D%20AND%20%28Occupational%20Diseases%20%5Bmh%5D%20OR%20Occupational%20Exposure%20%5Bmh%5D%29%20%20AND%20%28tox%5Bsb%5D%29&cmd=search"
    }
  ]
}