{
  "metadata": {
    "scraped_from": "https://haz-map.com/Agents/14880",
    "entity_name": "Indoleacetic acid",
    "category": "agents",
    "uuid": "bcd9e6b6-47da-42a3-ba07-12858ed8e0e2",
    "scraped_at": "2025-07-23T21:27:01.031596"
  },
  "parsed_at": "2025-07-24T00:51:31.230559",
  "title": "Indoleacetic acid",
  "sections": {
    "general": {
      "agent_name": {
        "original_name": "Agent Name",
        "value": "Indoleacetic acid",
        "links": [],
        "cross_references": [
          {
            "type": "name_match",
            "text": "acetic acid",
            "confidence": 1.0,
            "uuid": "0905c6e4-df84-4895-a92d-658819239bbd",
            "name": "Acetic acid",
            "url": "https://haz-map.com/Agents/207",
            "category": "agents"
          },
          {
            "type": "name_match",
            "text": "indole",
            "confidence": 1.0,
            "uuid": "9c93731a-de8c-47f7-94f9-bfba35edd847",
            "name": "Indole",
            "url": "https://haz-map.com/Agents/5628",
            "category": "agents"
          },
          {
            "type": "name_match",
            "text": "indoleacetic acid",
            "confidence": 1.0,
            "uuid": "bcd9e6b6-47da-42a3-ba07-12858ed8e0e2",
            "name": "Indoleacetic acid",
            "url": "https://haz-map.com/Agents/14880",
            "category": "agents"
          }
        ]
      },
      "cas_number": {
        "original_name": "CAS Number",
        "value": "87-51-4",
        "links": [],
        "cross_references": []
      },
      "formula": {
        "original_name": "Formula",
        "value": "C10-H9-N-O2",
        "links": [],
        "cross_references": []
      },
      "major_category": {
        "original_name": "Major Category",
        "value": "Pesticides",
        "links": [],
        "cross_references": []
      },
      "synonyms": {
        "original_name": "Synonyms",
        "value": "1H-Indole-3-acetic acid (9CI); 3-(Carboxymethyl)indole; 3-IAA; 3-Indoleacetic acid; Acetic acid, indolyl-; Heteroauxin; IAA; Indol-3-ylacetic acid; Indole-3-acetic acid; Kyselina 3-indolyloctova [Czech]; Rhizopin; Rhizopon A; beta-Indoleacetic acid; beta-Indolylacetic acid; omega-Skatole carboxylic acid; [ChemIDplus] 3-Indolylmethylcarboxylic acid; [Merck Index]",
        "links": [],
        "cross_references": [
          {
            "type": "name_match",
            "text": "acetic acid",
            "confidence": 1.0,
            "uuid": "0905c6e4-df84-4895-a92d-658819239bbd",
            "name": "Acetic acid",
            "url": "https://haz-map.com/Agents/207",
            "category": "agents"
          },
          {
            "type": "name_match",
            "text": "indole",
            "confidence": 1.0,
            "uuid": "9c93731a-de8c-47f7-94f9-bfba35edd847",
            "name": "Indole",
            "url": "https://haz-map.com/Agents/5628",
            "category": "agents"
          },
          {
            "type": "name_match",
            "text": "indoleacetic acid",
            "confidence": 1.0,
            "uuid": "bcd9e6b6-47da-42a3-ba07-12858ed8e0e2",
            "name": "Indoleacetic acid",
            "url": "https://haz-map.com/Agents/14880",
            "category": "agents"
          }
        ]
      },
      "category": {
        "original_name": "Category",
        "value": "Plant Growth Regulators",
        "links": [],
        "cross_references": []
      },
      "description": {
        "original_name": "Description",
        "value": "Solid; [Merck Index] Light tan to light pink flaky powder; Odorless; [PhytoTechnology Laboratories MSDS]",
        "links": [],
        "cross_references": [
          {
            "type": "name_match",
            "text": "ht",
            "confidence": 1.0,
            "uuid": "764df367-8d53-4a11-81a2-31ccfe122a8d",
            "name": "HT",
            "url": "https://haz-map.com/Agents/2168",
            "category": "agents"
          }
        ]
      },
      "sourcesuses": {
        "original_name": "Sources/Uses",
        "value": "Used as a plant growth regulator; [Merck Index] Active product registrations in the US; [NPIRS] \"Indole-3-acetic acid (IAA) is the most common, naturally-occurring, plant hormone of the auxin class. It is the best known of the auxins, and has been the subject of extensive studies by plant physiologists.\" [Wikipedia]",
        "links": [],
        "cross_references": [
          {
            "type": "name_match",
            "text": "acetic acid",
            "confidence": 1.0,
            "uuid": "0905c6e4-df84-4895-a92d-658819239bbd",
            "name": "Acetic acid",
            "url": "https://haz-map.com/Agents/207",
            "category": "agents"
          },
          {
            "type": "name_match",
            "text": "indole",
            "confidence": 1.0,
            "uuid": "9c93731a-de8c-47f7-94f9-bfba35edd847",
            "name": "Indole",
            "url": "https://haz-map.com/Agents/5628",
            "category": "agents"
          },
          {
            "type": "name_match",
            "text": "bes",
            "confidence": 1.0,
            "uuid": "3074c0ff-c637-46e9-9a00-5b14f02c2d53",
            "name": "BES",
            "url": "https://haz-map.com/Agents/15755",
            "category": "agents"
          }
        ]
      },
      "comments": {
        "original_name": "Comments",
        "value": "An irritant; [PhytoTechnology Laboratories MSDS] See \"Indole.\" See \"Indole-3-butyric acid.\"",
        "links": [],
        "cross_references": [
          {
            "type": "name_match",
            "text": "butyric acid",
            "confidence": 1.0,
            "uuid": "a59c4184-bd52-40af-8450-80d14bbee018",
            "name": "Butyric acid",
            "url": "https://haz-map.com/Agents/1391",
            "category": "agents"
          },
          {
            "type": "name_match",
            "text": "indole-3-butyric acid",
            "confidence": 1.0,
            "uuid": "ba567255-63d8-45ca-8774-45a88f40958f",
            "name": "Indole-3-butyric acid",
            "url": "https://haz-map.com/Agents/3488",
            "category": "agents"
          },
          {
            "type": "name_match",
            "text": "indole",
            "confidence": 1.0,
            "uuid": "9c93731a-de8c-47f7-94f9-bfba35edd847",
            "name": "Indole",
            "url": "https://haz-map.com/Agents/5628",
            "category": "agents"
          }
        ]
      },
      "biomedical_references": {
        "original_name": "Biomedical References",
        "value": "Search PubMed",
        "links": [
          {
            "text": "Search PubMed",
            "url": "https://www.ncbi.nlm.nih.gov/pubmed?term=Indoleacetic+acid%20AND%20human%5Bmh%5D%20AND%20%28Occupational%20Diseases%20%5Bmh%5D%20OR%20Occupational%20Exposure%20%5Bmh%5D%29%20%20AND%20%28tox%5Bsb%5D%29&cmd=search"
          }
        ],
        "cross_references": []
      }
    },
    "exposure_assessment": {
      "vapor_pressure": {
        "original_name": "Vapor Pressure",
        "value": "5.26E-06 mm Hg",
        "links": [],
        "cross_references": []
      }
    },
    "diseases_processes_and_activities_linked_to_this_agent": {
      "processes": {
        "original_name": "Processes",
        "value": "Industrial Processes with risk of exposure: Farming (Pesticides)",
        "links": [
          {
            "text": "Farming (Pesticides)",
            "url": "https://haz-map.com/Processes/218"
          }
        ],
        "cross_references": [
          {
            "type": "url_match",
            "text": "Farming (Pesticides)",
            "url": "https://haz-map.com/Processes/218",
            "confidence": 1.0,
            "uuid": "cf1e5815-c9bb-4917-82a5-391848170b7e",
            "name": "Farming (Pesticides)",
            "category": "processes"
          }
        ]
      }
    }
  },
  "cross_references": [
    {
      "type": "url_match",
      "text": "Farming (Pesticides)",
      "url": "https://haz-map.com/Processes/218",
      "confidence": 1.0,
      "uuid": "cf1e5815-c9bb-4917-82a5-391848170b7e",
      "name": "Farming (Pesticides)",
      "category": "processes"
    },
    {
      "type": "name_match",
      "text": "acetic acid",
      "confidence": 1.0,
      "uuid": "0905c6e4-df84-4895-a92d-658819239bbd",
      "name": "Acetic acid",
      "url": "https://haz-map.com/Agents/207",
      "category": "agents"
    },
    {
      "type": "name_match",
      "text": "butyric acid",
      "confidence": 1.0,
      "uuid": "a59c4184-bd52-40af-8450-80d14bbee018",
      "name": "Butyric acid",
      "url": "https://haz-map.com/Agents/1391",
      "category": "agents"
    },
    {
      "type": "name_match",
      "text": "ht",
      "confidence": 1.0,
      "uuid": "764df367-8d53-4a11-81a2-31ccfe122a8d",
      "name": "HT",
      "url": "https://haz-map.com/Agents/2168",
      "category": "agents"
    },
    {
      "type": "name_match",
      "text": "indole-3-butyric acid",
      "confidence": 1.0,
      "uuid": "ba567255-63d8-45ca-8774-45a88f40958f",
      "name": "Indole-3-butyric acid",
      "url": "https://haz-map.com/Agents/3488",
      "category": "agents"
    },
    {
      "type": "name_match",
      "text": "indole",
      "confidence": 1.0,
      "uuid": "9c93731a-de8c-47f7-94f9-bfba35edd847",
      "name": "Indole",
      "url": "https://haz-map.com/Agents/5628",
      "category": "agents"
    },
    {
      "type": "name_match",
      "text": "indoleacetic acid",
      "confidence": 1.0,
      "uuid": "bcd9e6b6-47da-42a3-ba07-12858ed8e0e2",
      "name": "Indoleacetic acid",
      "url": "https://haz-map.com/Agents/14880",
      "category": "agents"
    },
    {
      "type": "name_match",
      "text": "bes",
      "confidence": 1.0,
      "uuid": "3074c0ff-c637-46e9-9a00-5b14f02c2d53",
      "name": "BES",
      "url": "https://haz-map.com/Agents/15755",
      "category": "agents"
    }
  ],
  "all_links": [
    {
      "text": "Search PubMed",
      "url": "https://www.ncbi.nlm.nih.gov/pubmed?term=Indoleacetic+acid%20AND%20human%5Bmh%5D%20AND%20%28Occupational%20Diseases%20%5Bmh%5D%20OR%20Occupational%20Exposure%20%5Bmh%5D%29%20%20AND%20%28tox%5Bsb%5D%29&cmd=search"
    },
    {
      "text": "Farming (Pesticides)",
      "url": "https://haz-map.com/Processes/218"
    }
  ]
}