{
  "metadata": {
    "scraped_from": "https://haz-map.com/Agents/8547",
    "entity_name": "Methylene iodide",
    "category": "agents",
    "uuid": "bd448867-7bbb-42e6-9781-239788b514a8",
    "scraped_at": "2025-07-23T20:28:40.145901"
  },
  "parsed_at": "2025-07-24T00:56:37.939229",
  "title": "Methylene iodide",
  "sections": {
    "general": {
      "agent_name": {
        "original_name": "Agent Name",
        "value": "Methylene iodide",
        "links": [],
        "cross_references": [
          {
            "type": "name_match",
            "text": "ethylene",
            "confidence": 1.0,
            "uuid": "958eacc0-5135-4b62-bb93-6df972bf552f",
            "name": "Ethylene",
            "url": "https://haz-map.com/Agents/1076",
            "category": "agents"
          },
          {
            "type": "name_match",
            "text": "methylene iodide",
            "confidence": 1.0,
            "uuid": "bd448867-7bbb-42e6-9781-239788b514a8",
            "name": "Methylene iodide",
            "url": "https://haz-map.com/Agents/8547",
            "category": "agents"
          }
        ]
      },
      "cas_number": {
        "original_name": "CAS Number",
        "value": "75-11-6",
        "links": [],
        "cross_references": []
      },
      "formula": {
        "original_name": "Formula",
        "value": "C-H2-I2",
        "links": [],
        "cross_references": []
      },
      "major_category": {
        "original_name": "Major Category",
        "value": "Other Classes",
        "links": [],
        "cross_references": []
      },
      "synonyms": {
        "original_name": "Synonyms",
        "value": "Diiodomethane; Dijodmethan [Czech]; MI-Gee; Methylene diiodide; Methylenjodid [Czech]; Methane, diiodo; [ChemIDplus]",
        "links": [],
        "cross_references": [
          {
            "type": "name_match",
            "text": "methane",
            "confidence": 1.0,
            "uuid": "5018bf73-24be-4353-8643-c351d5f52186",
            "name": "Methane",
            "url": "https://haz-map.com/Agents/1074",
            "category": "agents"
          },
          {
            "type": "name_match",
            "text": "ethane",
            "confidence": 1.0,
            "uuid": "5162cc8c-dfb9-4060-81ac-38a8cec7f9dd",
            "name": "Ethane",
            "url": "https://haz-map.com/Agents/1075",
            "category": "agents"
          },
          {
            "type": "name_match",
            "text": "ethylene",
            "confidence": 1.0,
            "uuid": "958eacc0-5135-4b62-bb93-6df972bf552f",
            "name": "Ethylene",
            "url": "https://haz-map.com/Agents/1076",
            "category": "agents"
          }
        ]
      },
      "category": {
        "original_name": "Category",
        "value": "Halogenated Aliphatics, Saturated",
        "links": [],
        "cross_references": []
      },
      "description": {
        "original_name": "Description",
        "value": "Highly refractive liquid; Darkens on contact with light, air, and moisture; mp = 6 deg C; [Merck Index] Yellow liquid; [Hawley] Pale light yellow liquid; mp 5-6 deg C; [MSDSonline]",
        "links": [],
        "cross_references": [
          {
            "type": "name_match",
            "text": "ht",
            "confidence": 1.0,
            "uuid": "764df367-8d53-4a11-81a2-31ccfe122a8d",
            "name": "HT",
            "url": "https://haz-map.com/Agents/2168",
            "category": "agents"
          }
        ]
      },
      "sourcesuses": {
        "original_name": "Sources/Uses",
        "value": "Used to make X-ray contrast media; [Merck Index] Used in organic synthesis; [Hawley] Used to determine refractive indices of minerals and to separate minerals based on density; [Ullmann]",
        "links": [],
        "cross_references": [
          {
            "type": "name_match",
            "text": "minerals",
            "confidence": 1.0,
            "uuid": "15f5fd36-6e55-46fa-a29b-16fb6c3ec816",
            "name": "MINERALS",
            "url": "https://haz-map.com/Agents/2202",
            "category": "agents"
          }
        ]
      },
      "comments": {
        "original_name": "Comments",
        "value": "May cause irritation and narcotic effects; [Hawley] Inhalation or skin absorption of high concentrations may cause CNS depression; May cause mild irritation; Repeated exposure may cause liver and kidney injury and CNS disorders; [CHEMINFO] A skin and eye irritant; [eChemPortal: ERMA] An irritant; [MSDSonline]",
        "links": [],
        "cross_references": []
      },
      "biomedical_references": {
        "original_name": "Biomedical References",
        "value": "Search PubMed",
        "links": [
          {
            "text": "Search PubMed",
            "url": "https://www.ncbi.nlm.nih.gov/pubmed?term=Methylene+iodide%20AND%20human%5Bmh%5D%20AND%20%28Occupational%20Diseases%20%5Bmh%5D%20OR%20Occupational%20Exposure%20%5Bmh%5D%29%20%20AND%20%28tox%5Bsb%5D%29&cmd=search"
          }
        ],
        "cross_references": []
      }
    },
    "exposure_assessment": {
      "vapor_pressure": {
        "original_name": "Vapor Pressure",
        "value": "1.2 mm Hg",
        "links": [],
        "cross_references": []
      },
      "explanatory_notes": {
        "original_name": "Explanatory Notes",
        "value": "VP from ChemIDplus;",
        "links": [],
        "cross_references": []
      }
    },
    "adverse_effects": {
      "neurotoxin": {
        "original_name": "Neurotoxin",
        "value": "Acute solvent syndrome",
        "links": [],
        "cross_references": []
      },
      "hepatotoxin": {
        "original_name": "Hepatotoxin",
        "value": "Hepatoxic (a) from occupational exposure (secondary effect) or (b) in animal studies or in humans after ingestion",
        "links": [],
        "cross_references": []
      }
    },
    "diseases_processes_and_activities_linked_to_this_agent": {
      "diseases": {
        "original_name": "Diseases",
        "value": "Occupational diseases associated with exposure to this agent: Solvents, acute toxic effect",
        "links": [
          {
            "text": "Solvents, acute toxic effect",
            "url": "https://haz-map.com/Diseases/326"
          }
        ],
        "cross_references": [
          {
            "type": "url_match",
            "text": "Solvents, acute toxic effect",
            "url": "https://haz-map.com/Diseases/326",
            "confidence": 1.0,
            "uuid": "581e90e3-9d0c-45f0-aa6c-3468c28da129",
            "name": "Solvents, acute toxic effect",
            "category": "diseases"
          }
        ]
      }
    }
  },
  "cross_references": [
    {
      "type": "url_match",
      "text": "Solvents, acute toxic effect",
      "url": "https://haz-map.com/Diseases/326",
      "confidence": 1.0,
      "uuid": "581e90e3-9d0c-45f0-aa6c-3468c28da129",
      "name": "Solvents, acute toxic effect",
      "category": "diseases"
    },
    {
      "type": "name_match",
      "text": "methane",
      "confidence": 1.0,
      "uuid": "5018bf73-24be-4353-8643-c351d5f52186",
      "name": "Methane",
      "url": "https://haz-map.com/Agents/1074",
      "category": "agents"
    },
    {
      "type": "name_match",
      "text": "ethane",
      "confidence": 1.0,
      "uuid": "5162cc8c-dfb9-4060-81ac-38a8cec7f9dd",
      "name": "Ethane",
      "url": "https://haz-map.com/Agents/1075",
      "category": "agents"
    },
    {
      "type": "name_match",
      "text": "ethylene",
      "confidence": 1.0,
      "uuid": "958eacc0-5135-4b62-bb93-6df972bf552f",
      "name": "Ethylene",
      "url": "https://haz-map.com/Agents/1076",
      "category": "agents"
    },
    {
      "type": "name_match",
      "text": "ht",
      "confidence": 1.0,
      "uuid": "764df367-8d53-4a11-81a2-31ccfe122a8d",
      "name": "HT",
      "url": "https://haz-map.com/Agents/2168",
      "category": "agents"
    },
    {
      "type": "name_match",
      "text": "minerals",
      "confidence": 1.0,
      "uuid": "15f5fd36-6e55-46fa-a29b-16fb6c3ec816",
      "name": "MINERALS",
      "url": "https://haz-map.com/Agents/2202",
      "category": "agents"
    },
    {
      "type": "name_match",
      "text": "methylene iodide",
      "confidence": 1.0,
      "uuid": "bd448867-7bbb-42e6-9781-239788b514a8",
      "name": "Methylene iodide",
      "url": "https://haz-map.com/Agents/8547",
      "category": "agents"
    }
  ],
  "all_links": [
    {
      "text": "Search PubMed",
      "url": "https://www.ncbi.nlm.nih.gov/pubmed?term=Methylene+iodide%20AND%20human%5Bmh%5D%20AND%20%28Occupational%20Diseases%20%5Bmh%5D%20OR%20Occupational%20Exposure%20%5Bmh%5D%29%20%20AND%20%28tox%5Bsb%5D%29&cmd=search"
    },
    {
      "text": "Solvents, acute toxic effect",
      "url": "https://haz-map.com/Diseases/326"
    }
  ]
}