{
  "metadata": {
    "scraped_from": "https://haz-map.com/Agents/5108",
    "entity_name": "EPTC",
    "category": "agents",
    "uuid": "bd48a7f6-9ab3-4836-80d8-ccca9ab71491",
    "scraped_at": "2025-07-23T19:49:03.440167"
  },
  "parsed_at": "2025-07-24T00:52:21.345336",
  "title": "EPTC",
  "sections": {
    "general": {
      "agent_name": {
        "original_name": "Agent Name",
        "value": "EPTC",
        "links": [],
        "cross_references": [
          {
            "type": "name_match",
            "text": "eptc",
            "confidence": 1.0,
            "uuid": "bd48a7f6-9ab3-4836-80d8-ccca9ab71491",
            "name": "EPTC",
            "url": "https://haz-map.com/Agents/5108",
            "category": "agents"
          }
        ]
      },
      "cas_number": {
        "original_name": "CAS Number",
        "value": "759-94-4",
        "links": [],
        "cross_references": []
      },
      "formula": {
        "original_name": "Formula",
        "value": "C9-H19-N-O-S",
        "links": [],
        "cross_references": []
      },
      "major_category": {
        "original_name": "Major Category",
        "value": "Pesticides",
        "links": [],
        "cross_references": []
      },
      "synonyms": {
        "original_name": "Synonyms",
        "value": "Alirox; Dipropylcarbamothioic acid S-ethyl ester; Dipropylthiocarbamic acid S-ethyl ester; Eptam; Eptam 6E; EPTC (herbicide); Genep EPTC; N,N-Dipropylthiocarbamic acid S-ethyl ester; Niptan; R 1608; R-1608; S-Aethyl-N,N-dipropylthiolcarbamat [German]; S-Ethyl dipropylthiocarbamate; S-Ethyl N,N-di-n-propylthiocarbamate; S-Ethyl N,N-dipropylthiocarbamate; S-Ethyl-N,N-dipropylthiocarbamate; Stauffer R 1608; Torbin; Witox; Carbamic acid, dipropylthio-, S-ethyl ester; Carbamothioic acid, dipropyl-, S-ethyl ester; Carbamothioic acid, N,N-dipropyl-, S-ethyl ester; Ethyl dipropylthiocarbamate; [ChemIDplus] N,N-Dipropylcarbamothioic acid S-ethyl ester; [Merck Index] UN2992",
        "links": [],
        "cross_references": [
          {
            "type": "name_match",
            "text": "moth",
            "confidence": 1.0,
            "uuid": "14a33a40-8ea5-4ef5-b71a-3731a9d4ba32",
            "name": "Moth",
            "url": "https://haz-map.com/Agents/907",
            "category": "agents"
          },
          {
            "type": "name_match",
            "text": "eptc",
            "confidence": 1.0,
            "uuid": "bd48a7f6-9ab3-4836-80d8-ccca9ab71491",
            "name": "EPTC",
            "url": "https://haz-map.com/Agents/5108",
            "category": "agents"
          }
        ]
      },
      "category": {
        "original_name": "Category",
        "value": "Herbicides, Thiocarbamate",
        "links": [],
        "cross_references": [
          {
            "type": "name_match",
            "text": "herbicides",
            "confidence": 1.0,
            "uuid": "195f29ae-3f15-47c5-836d-0a9791db3fc1",
            "name": "HERBICIDES",
            "url": "https://haz-map.com/Agents/703",
            "category": "agents"
          }
        ]
      },
      "description": {
        "original_name": "Description",
        "value": "Available in liquid or granular forms; [Hawley] Colorless liquid; [ICSC] Technical product is yellow liquid; [HSDB] Colorless to yellow liquid with an aromatic odor; [AccuStandard MSDS]",
        "links": [],
        "cross_references": []
      },
      "sourcesuses": {
        "original_name": "Sources/Uses",
        "value": "Used as selective herbicide for control of many types of weeds in food crops, non-food use sites, and residential and public sites; [HSDB]",
        "links": [],
        "cross_references": []
      },
      "comments": {
        "original_name": "Comments",
        "value": "Can be absorbed through the skin; May cause CNS effects; [ICSC] May cause skin and mucous membrane irritation; [HSDB] Demonstrates neurotoxic effects in rats and dogs consistent with effects of thiocarbamates; Cardiomyopathy also observed; [Reference #1] A skin and strong eye irritant; May cause skin sensitization; [ECHA REACH Registrations] An irritant and cholinesterase inhibitor; Toxic by ingestion; Harmful by inhalation and skin absorption; [AccuStandard MSDS]",
        "links": [],
        "cross_references": [
          {
            "type": "name_match",
            "text": "choline",
            "confidence": 1.0,
            "uuid": "a21a71e9-9d67-4563-9da2-98c4dcb1b766",
            "name": "Choline",
            "url": "https://haz-map.com/Agents/12978",
            "category": "agents"
          }
        ]
      },
      "reference_link_1": {
        "original_name": "Reference Link #1",
        "value": "INCHEM: Thiocarbamate pesticides - a general introduction (EHC 76 - 1988)",
        "links": [
          {
            "text": "INCHEM: Thiocarbamate pesticides - a general introduction (EHC 76 - 1988)",
            "url": "http://www.inchem.org/documents/ehc/ehc/ehc76.htm"
          }
        ],
        "cross_references": []
      },
      "biomedical_references": {
        "original_name": "Biomedical References",
        "value": "Search PubMed",
        "links": [
          {
            "text": "Search PubMed",
            "url": "https://www.ncbi.nlm.nih.gov/pubmed?term=EPTC%20AND%20human%5Bmh%5D%20AND%20%28Occupational%20Diseases%20%5Bmh%5D%20OR%20Occupational%20Exposure%20%5Bmh%5D%29%20%20AND%20%28tox%5Bsb%5D%29&cmd=search"
          }
        ],
        "cross_references": []
      }
    },
    "exposure_assessment": {
      "vapor_pressure": {
        "original_name": "Vapor Pressure",
        "value": "0.024 mm Hg",
        "links": [],
        "cross_references": []
      },
      "lethal_concentration": {
        "original_name": "Lethal Concentration",
        "value": "LCLo (rat) = 200 mg/m3/4hr",
        "links": [],
        "cross_references": []
      },
      "explanatory_notes": {
        "original_name": "Explanatory Notes",
        "value": "The Guide in the Emergency Response Guidebook is for \"Carbamate pesticide, liquid, toxic.\"",
        "links": [],
        "cross_references": []
      },
      "reference_link_2": {
        "original_name": "Reference Link #2",
        "value": "EPA Pesticide Chemical Search",
        "links": [
          {
            "text": "EPA Pesticide Chemical Search",
            "url": "https://iaspub.epa.gov/apex/pesticides/f?p=CHEMICALSEARCH:1:"
          }
        ],
        "cross_references": [
          {
            "type": "name_match",
            "text": "mica",
            "confidence": 1.0,
            "uuid": "433f26f1-c399-4596-b179-ce3843cfd465",
            "name": "Mica",
            "url": "https://haz-map.com/Agents/621",
            "category": "agents"
          }
        ]
      }
    },
    "adverse_effects": {
      "neurotoxin": {
        "original_name": "Neurotoxin",
        "value": "Other CNS neurotoxin",
        "links": [],
        "cross_references": []
      }
    },
    "diseases_processes_and_activities_linked_to_this_agent": {
      "processes": {
        "original_name": "Processes",
        "value": "Industrial Processes with risk of exposure: Farming (Pesticides)",
        "links": [
          {
            "text": "Farming (Pesticides)",
            "url": "https://haz-map.com/Processes/218"
          }
        ],
        "cross_references": [
          {
            "type": "url_match",
            "text": "Farming (Pesticides)",
            "url": "https://haz-map.com/Processes/218",
            "confidence": 1.0,
            "uuid": "cf1e5815-c9bb-4917-82a5-391848170b7e",
            "name": "Farming (Pesticides)",
            "category": "processes"
          }
        ]
      }
    }
  },
  "cross_references": [
    {
      "type": "url_match",
      "text": "Farming (Pesticides)",
      "url": "https://haz-map.com/Processes/218",
      "confidence": 1.0,
      "uuid": "cf1e5815-c9bb-4917-82a5-391848170b7e",
      "name": "Farming (Pesticides)",
      "category": "processes"
    },
    {
      "type": "name_match",
      "text": "mica",
      "confidence": 1.0,
      "uuid": "433f26f1-c399-4596-b179-ce3843cfd465",
      "name": "Mica",
      "url": "https://haz-map.com/Agents/621",
      "category": "agents"
    },
    {
      "type": "name_match",
      "text": "herbicides",
      "confidence": 1.0,
      "uuid": "195f29ae-3f15-47c5-836d-0a9791db3fc1",
      "name": "HERBICIDES",
      "url": "https://haz-map.com/Agents/703",
      "category": "agents"
    },
    {
      "type": "name_match",
      "text": "moth",
      "confidence": 1.0,
      "uuid": "14a33a40-8ea5-4ef5-b71a-3731a9d4ba32",
      "name": "Moth",
      "url": "https://haz-map.com/Agents/907",
      "category": "agents"
    },
    {
      "type": "name_match",
      "text": "eptc",
      "confidence": 1.0,
      "uuid": "bd48a7f6-9ab3-4836-80d8-ccca9ab71491",
      "name": "EPTC",
      "url": "https://haz-map.com/Agents/5108",
      "category": "agents"
    },
    {
      "type": "name_match",
      "text": "choline",
      "confidence": 1.0,
      "uuid": "a21a71e9-9d67-4563-9da2-98c4dcb1b766",
      "name": "Choline",
      "url": "https://haz-map.com/Agents/12978",
      "category": "agents"
    }
  ],
  "all_links": [
    {
      "text": "INCHEM: Thiocarbamate pesticides - a general introduction (EHC 76 - 1988)",
      "url": "http://www.inchem.org/documents/ehc/ehc/ehc76.htm"
    },
    {
      "text": "Search PubMed",
      "url": "https://www.ncbi.nlm.nih.gov/pubmed?term=EPTC%20AND%20human%5Bmh%5D%20AND%20%28Occupational%20Diseases%20%5Bmh%5D%20OR%20Occupational%20Exposure%20%5Bmh%5D%29%20%20AND%20%28tox%5Bsb%5D%29&cmd=search"
    },
    {
      "text": "EPA Pesticide Chemical Search",
      "url": "https://iaspub.epa.gov/apex/pesticides/f?p=CHEMICALSEARCH:1:"
    },
    {
      "text": "Farming (Pesticides)",
      "url": "https://haz-map.com/Processes/218"
    }
  ]
}