{
  "metadata": {
    "scraped_from": "https://haz-map.com/Agents/3646",
    "entity_name": "Ammonium bicarbonate",
    "category": "agents",
    "uuid": "bd579bcb-b068-4708-98e9-1d6ca749c9ff",
    "scraped_at": "2025-07-23T19:31:44.605443"
  },
  "parsed_at": "2025-07-24T01:15:48.323675",
  "title": "Ammonium bicarbonate",
  "sections": {
    "general": {
      "agent_name": {
        "original_name": "Agent Name",
        "value": "Ammonium bicarbonate",
        "links": [],
        "cross_references": [
          {
            "type": "name_match",
            "text": "carbon",
            "confidence": 1.0,
            "uuid": "b53f8815-ee80-40ef-b4aa-3b000e17dab5",
            "name": "Carbon",
            "url": "https://haz-map.com/Agents/1891",
            "category": "agents"
          },
          {
            "type": "name_match",
            "text": "ammonium bicarbonate",
            "confidence": 1.0,
            "uuid": "bd579bcb-b068-4708-98e9-1d6ca749c9ff",
            "name": "Ammonium bicarbonate",
            "url": "https://haz-map.com/Agents/3646",
            "category": "agents"
          }
        ]
      },
      "cas_number": {
        "original_name": "CAS Number",
        "value": "1066-33-7",
        "links": [],
        "cross_references": []
      },
      "formula": {
        "original_name": "Formula",
        "value": "C-H2-O3.H3-N",
        "links": [],
        "cross_references": []
      },
      "major_category": {
        "original_name": "Major Category",
        "value": "Nitrogen Compounds",
        "links": [],
        "cross_references": [
          {
            "type": "name_match",
            "text": "nitrogen",
            "confidence": 1.0,
            "uuid": "db5e90a9-06d2-45b9-8b81-f345a89b0bc0",
            "name": "Nitrogen",
            "url": "https://haz-map.com/Agents/1072",
            "category": "agents"
          }
        ]
      },
      "synonyms": {
        "original_name": "Synonyms",
        "value": "Acid ammonium carbonate; Ammonium acid carbonate; Ammonium hydrogen carbonate; Ammonium hydrogencarbonat; Carbonic acid, monoammonium salt; Monoammonium carbonate; [ChemIDplus]",
        "links": [],
        "cross_references": [
          {
            "type": "name_match",
            "text": "hydrogen",
            "confidence": 1.0,
            "uuid": "e2d9645f-5559-4d88-b820-fc4710c154f2",
            "name": "Hydrogen",
            "url": "https://haz-map.com/Agents/1070",
            "category": "agents"
          },
          {
            "type": "name_match",
            "text": "carbon",
            "confidence": 1.0,
            "uuid": "b53f8815-ee80-40ef-b4aa-3b000e17dab5",
            "name": "Carbon",
            "url": "https://haz-map.com/Agents/1891",
            "category": "agents"
          },
          {
            "type": "name_match",
            "text": "ammonium carbonate",
            "confidence": 1.0,
            "uuid": "c20164a3-472c-4c51-ab8b-14e0a62803f4",
            "name": "Ammonium carbonate",
            "url": "https://haz-map.com/Agents/2033",
            "category": "agents"
          },
          {
            "type": "name_match",
            "text": "carbonic acid",
            "confidence": 1.0,
            "uuid": "3ab00515-332f-4177-a200-79dd593298a4",
            "name": "Carbonic acid",
            "url": "https://haz-map.com/Agents/12760",
            "category": "agents"
          }
        ]
      },
      "category": {
        "original_name": "Category",
        "value": "Ammonium Compounds",
        "links": [],
        "cross_references": []
      },
      "description": {
        "original_name": "Description",
        "value": "Colorless or white solid with a faint odor of ammonia; [Merck Index] White crystalline solid; [MSDSonline]",
        "links": [],
        "cross_references": [
          {
            "type": "name_match",
            "text": "ammonia",
            "confidence": 1.0,
            "uuid": "4a9ab845-a2cc-47e0-ab5c-e53693380800",
            "name": "Ammonia",
            "url": "https://haz-map.com/Agents/291",
            "category": "agents"
          },
          {
            "type": "fuzzy_match",
            "text": "crystalline",
            "matched_name": "Silica, crystalline",
            "confidence": 0.7061403508771931,
            "uuid": "f920e8a2-46df-41b7-af8d-0368a777251e",
            "category": "agents",
            "url": "https://haz-map.com/Agents/427"
          }
        ]
      },
      "sourcesuses": {
        "original_name": "Sources/Uses",
        "value": "Used in baking powder, cooling baths, fire extinguishers, scale and gypsum removing agents, cold wave solutions, fertilizers, and pharmaceuticals (antacids, stimulants, and expectorants); Also used in chrome leather tanning and as a blowing agent for foam rubber, a leavening agent for baked goods, a defatting agent for textiles, a compost heap additive, and in manufacturing (porous plastics, ceramics, ammonium salts, dyes, and pigments); [HSDB]",
        "links": [],
        "cross_references": [
          {
            "type": "name_match",
            "text": "gypsum",
            "confidence": 1.0,
            "uuid": "aea1e15c-63de-4527-ac3d-b2b137c24901",
            "name": "Gypsum",
            "url": "https://haz-map.com/Agents/505",
            "category": "agents"
          },
          {
            "type": "name_match",
            "text": "pharmaceuticals",
            "confidence": 1.0,
            "uuid": "713c3c30-b67e-4a2f-a90f-b32f8a306332",
            "name": "PHARMACEUTICALS",
            "url": "https://haz-map.com/Agents/1000",
            "category": "agents"
          }
        ]
      },
      "comments": {
        "original_name": "Comments",
        "value": "A skin, eye, and respiratory tract irritant; Emergency treatment: \"Ammonia\"; [HSDB] Decomposes on warming above 35 deg C producing ammonia fumes; An eye and respiratory tract irritant; [CAMEO] May cause irritation; [MSDSonline] See \"Ammonia.\"",
        "links": [],
        "cross_references": [
          {
            "type": "name_match",
            "text": "ammonia",
            "confidence": 1.0,
            "uuid": "4a9ab845-a2cc-47e0-ab5c-e53693380800",
            "name": "Ammonia",
            "url": "https://haz-map.com/Agents/291",
            "category": "agents"
          }
        ]
      },
      "biomedical_references": {
        "original_name": "Biomedical References",
        "value": "Search PubMed",
        "links": [
          {
            "text": "Search PubMed",
            "url": "https://www.ncbi.nlm.nih.gov/pubmed?term=Ammonium+bicarbonate%20AND%20human%5Bmh%5D%20AND%20%28Occupational%20Diseases%20%5Bmh%5D%20OR%20Occupational%20Exposure%20%5Bmh%5D%29%20%20AND%20%28tox%5Bsb%5D%29&cmd=search"
          }
        ],
        "cross_references": []
      }
    },
    "exposure_assessment": {
      "vapor_pressure": {
        "original_name": "Vapor Pressure",
        "value": "58.9 mm Hg",
        "links": [],
        "cross_references": []
      }
    },
    "diseases_processes_and_activities_linked_to_this_agent": {
      "processes": {
        "original_name": "Processes",
        "value": "Industrial Processes with risk of exposure: Dressing Hair Leather Tanning and Processing Textiles (Fiber & Fabric Manufacturing)",
        "links": [
          {
            "text": "Dressing Hair",
            "url": "https://haz-map.com/Processes/258"
          },
          {
            "text": "Leather Tanning and Processing",
            "url": "https://haz-map.com/Processes/230"
          },
          {
            "text": "Textiles (Fiber & Fabric Manufacturing)",
            "url": "https://haz-map.com/Processes/135"
          }
        ],
        "cross_references": [
          {
            "type": "url_match",
            "text": "Textiles (Fiber & Fabric Manufacturing)",
            "url": "https://haz-map.com/Processes/135",
            "confidence": 1.0,
            "uuid": "43ebdcdb-bb09-4402-87b6-ae8cf169dddd",
            "name": "Textiles (Fiber & Fabric Manufacturing)",
            "category": "processes"
          }
        ]
      },
      "activities": {
        "original_name": "Activities",
        "value": "Activities with risk of exposure: Ceramics making Enameling",
        "links": [
          {
            "text": "Ceramics making",
            "url": "https://haz-map.com/Activities/3"
          },
          {
            "text": "Enameling",
            "url": "https://haz-map.com/Activities/4"
          }
        ],
        "cross_references": [
          {
            "type": "url_match",
            "text": "Ceramics making",
            "url": "https://haz-map.com/Activities/3",
            "confidence": 1.0,
            "uuid": "0b974fda-5600-4a2e-846b-07d43554a3dc",
            "name": "Ceramics making",
            "category": "activities"
          },
          {
            "type": "url_match",
            "text": "Enameling",
            "url": "https://haz-map.com/Activities/4",
            "confidence": 1.0,
            "uuid": "01df2fe2-4525-4f6b-9ff0-1505e1e58616",
            "name": "Enameling",
            "category": "activities"
          }
        ]
      }
    }
  },
  "cross_references": [
    {
      "type": "url_match",
      "text": "Textiles (Fiber & Fabric Manufacturing)",
      "url": "https://haz-map.com/Processes/135",
      "confidence": 1.0,
      "uuid": "43ebdcdb-bb09-4402-87b6-ae8cf169dddd",
      "name": "Textiles (Fiber & Fabric Manufacturing)",
      "category": "processes"
    },
    {
      "type": "url_match",
      "text": "Ceramics making",
      "url": "https://haz-map.com/Activities/3",
      "confidence": 1.0,
      "uuid": "0b974fda-5600-4a2e-846b-07d43554a3dc",
      "name": "Ceramics making",
      "category": "activities"
    },
    {
      "type": "url_match",
      "text": "Enameling",
      "url": "https://haz-map.com/Activities/4",
      "confidence": 1.0,
      "uuid": "01df2fe2-4525-4f6b-9ff0-1505e1e58616",
      "name": "Enameling",
      "category": "activities"
    },
    {
      "type": "name_match",
      "text": "ammonia",
      "confidence": 1.0,
      "uuid": "4a9ab845-a2cc-47e0-ab5c-e53693380800",
      "name": "Ammonia",
      "url": "https://haz-map.com/Agents/291",
      "category": "agents"
    },
    {
      "type": "name_match",
      "text": "gypsum",
      "confidence": 1.0,
      "uuid": "aea1e15c-63de-4527-ac3d-b2b137c24901",
      "name": "Gypsum",
      "url": "https://haz-map.com/Agents/505",
      "category": "agents"
    },
    {
      "type": "name_match",
      "text": "pharmaceuticals",
      "confidence": 1.0,
      "uuid": "713c3c30-b67e-4a2f-a90f-b32f8a306332",
      "name": "PHARMACEUTICALS",
      "url": "https://haz-map.com/Agents/1000",
      "category": "agents"
    },
    {
      "type": "name_match",
      "text": "hydrogen",
      "confidence": 1.0,
      "uuid": "e2d9645f-5559-4d88-b820-fc4710c154f2",
      "name": "Hydrogen",
      "url": "https://haz-map.com/Agents/1070",
      "category": "agents"
    },
    {
      "type": "name_match",
      "text": "nitrogen",
      "confidence": 1.0,
      "uuid": "db5e90a9-06d2-45b9-8b81-f345a89b0bc0",
      "name": "Nitrogen",
      "url": "https://haz-map.com/Agents/1072",
      "category": "agents"
    },
    {
      "type": "name_match",
      "text": "carbon",
      "confidence": 1.0,
      "uuid": "b53f8815-ee80-40ef-b4aa-3b000e17dab5",
      "name": "Carbon",
      "url": "https://haz-map.com/Agents/1891",
      "category": "agents"
    },
    {
      "type": "name_match",
      "text": "ammonium carbonate",
      "confidence": 1.0,
      "uuid": "c20164a3-472c-4c51-ab8b-14e0a62803f4",
      "name": "Ammonium carbonate",
      "url": "https://haz-map.com/Agents/2033",
      "category": "agents"
    },
    {
      "type": "name_match",
      "text": "ammonium bicarbonate",
      "confidence": 1.0,
      "uuid": "bd579bcb-b068-4708-98e9-1d6ca749c9ff",
      "name": "Ammonium bicarbonate",
      "url": "https://haz-map.com/Agents/3646",
      "category": "agents"
    },
    {
      "type": "name_match",
      "text": "carbonic acid",
      "confidence": 1.0,
      "uuid": "3ab00515-332f-4177-a200-79dd593298a4",
      "name": "Carbonic acid",
      "url": "https://haz-map.com/Agents/12760",
      "category": "agents"
    },
    {
      "type": "fuzzy_match",
      "text": "crystalline",
      "matched_name": "Silica, crystalline",
      "confidence": 0.7061403508771931,
      "uuid": "f920e8a2-46df-41b7-af8d-0368a777251e",
      "category": "agents",
      "url": "https://haz-map.com/Agents/427"
    }
  ],
  "all_links": [
    {
      "text": "Search PubMed",
      "url": "https://www.ncbi.nlm.nih.gov/pubmed?term=Ammonium+bicarbonate%20AND%20human%5Bmh%5D%20AND%20%28Occupational%20Diseases%20%5Bmh%5D%20OR%20Occupational%20Exposure%20%5Bmh%5D%29%20%20AND%20%28tox%5Bsb%5D%29&cmd=search"
    },
    {
      "text": "Dressing Hair",
      "url": "https://haz-map.com/Processes/258"
    },
    {
      "text": "Leather Tanning and Processing",
      "url": "https://haz-map.com/Processes/230"
    },
    {
      "text": "Textiles (Fiber & Fabric Manufacturing)",
      "url": "https://haz-map.com/Processes/135"
    },
    {
      "text": "Ceramics making",
      "url": "https://haz-map.com/Activities/3"
    },
    {
      "text": "Enameling",
      "url": "https://haz-map.com/Activities/4"
    }
  ]
}