{
  "metadata": {
    "scraped_from": "https://haz-map.com/Agents/1912",
    "entity_name": "Phenyl arsine oxide",
    "category": "agents",
    "uuid": "bd638361-9196-4412-8a77-584e63e71b3e",
    "scraped_at": "2025-07-23T19:06:35.271889"
  },
  "parsed_at": "2025-07-24T01:13:20.574309",
  "title": "Phenyl arsine oxide",
  "sections": {
    "general": {
      "agent_name": {
        "original_name": "Agent Name",
        "value": "Phenyl arsine oxide",
        "links": [],
        "cross_references": [
          {
            "type": "name_match",
            "text": "arsine",
            "confidence": 1.0,
            "uuid": "9cbc23fa-8b7b-4fc4-b893-37c76e241fda",
            "name": "Arsine",
            "url": "https://haz-map.com/Agents/80",
            "category": "agents"
          },
          {
            "type": "name_match",
            "text": "phenyl arsine oxide",
            "confidence": 1.0,
            "uuid": "bd638361-9196-4412-8a77-584e63e71b3e",
            "name": "Phenyl arsine oxide",
            "url": "https://haz-map.com/Agents/1912",
            "category": "agents"
          }
        ]
      },
      "alternative_name": {
        "original_name": "Alternative Name",
        "value": "Oxophenylarsine",
        "links": [],
        "cross_references": [
          {
            "type": "name_match",
            "text": "arsine",
            "confidence": 1.0,
            "uuid": "9cbc23fa-8b7b-4fc4-b893-37c76e241fda",
            "name": "Arsine",
            "url": "https://haz-map.com/Agents/80",
            "category": "agents"
          }
        ]
      },
      "cas_number": {
        "original_name": "CAS Number",
        "value": "637-03-6",
        "links": [],
        "cross_references": []
      },
      "formula": {
        "original_name": "Formula",
        "value": "C6-H5-As-O",
        "links": [],
        "cross_references": []
      },
      "major_category": {
        "original_name": "Major Category",
        "value": "Metals",
        "links": [],
        "cross_references": []
      },
      "synonyms": {
        "original_name": "Synonyms",
        "value": "Arsenosobenzene; Arzene; Benzene, arsenoso-; Fenylarsinoxid [Czech]; Oxophenylarsine; Phenyl arsine oxide; Phenylarsenoxide; [ChemIDplus] UN3465 [MSDSonline]",
        "links": [],
        "cross_references": [
          {
            "type": "name_match",
            "text": "benzene",
            "confidence": 1.0,
            "uuid": "b05124de-5f34-4c14-8f04-ccb20c3780d9",
            "name": "Benzene",
            "url": "https://haz-map.com/Agents/5",
            "category": "agents"
          },
          {
            "type": "name_match",
            "text": "arsine",
            "confidence": 1.0,
            "uuid": "9cbc23fa-8b7b-4fc4-b893-37c76e241fda",
            "name": "Arsine",
            "url": "https://haz-map.com/Agents/80",
            "category": "agents"
          },
          {
            "type": "name_match",
            "text": "phenyl arsine oxide",
            "confidence": 1.0,
            "uuid": "bd638361-9196-4412-8a77-584e63e71b3e",
            "name": "Phenyl arsine oxide",
            "url": "https://haz-map.com/Agents/1912",
            "category": "agents"
          }
        ]
      },
      "category": {
        "original_name": "Category",
        "value": "Arsenic Compounds, Organic",
        "links": [],
        "cross_references": [
          {
            "type": "name_match",
            "text": "arsenic",
            "confidence": 1.0,
            "uuid": "2bf78711-4881-4b55-9b7c-df80529b3991",
            "name": "Arsenic",
            "url": "https://haz-map.com/Agents/1147",
            "category": "agents"
          }
        ]
      },
      "description": {
        "original_name": "Description",
        "value": "Crystals with a melting point of 144-146 degrees C; [Merck Index]",
        "links": [],
        "cross_references": []
      },
      "sourcesuses": {
        "original_name": "Sources/Uses",
        "value": "\"Inhibits protein-tyrosine-phosphatase.\" [ChemIDplus] Used in veterinarian medicine as a poultry coccidiostat; [6949, Merck Index]",
        "links": [],
        "cross_references": [
          {
            "type": "name_match",
            "text": "tyrosine",
            "confidence": 1.0,
            "uuid": "f9f78e9e-985b-45af-8557-02c83fa04d59",
            "name": "Tyrosine",
            "url": "https://haz-map.com/Agents/18489",
            "category": "agents"
          }
        ]
      },
      "comments": {
        "original_name": "Comments",
        "value": "Acute or chronic arsenic poisoning may result from ingestion or inhalation of a sufficient dose; [MSDSonline] Not found in any pesticide products; [NPIRS] \"Almost nothing is known regarding health effects of organic arsenic compounds in humans. Studies in animals show that some simple organic arsenic compounds are less toxic than inorganic forms. Ingestion of methyl and dimethyl compounds can cause diarrhea and damage to the kidneys.\" [ATSDR ToxProfiles]",
        "links": [],
        "cross_references": [
          {
            "type": "name_match",
            "text": "diarrhea",
            "confidence": 1.0,
            "uuid": "001ae7b5-5f3c-42c2-bc33-81e7581abd53",
            "name": "diarrhea",
            "url": "https://haz-map.com/Findings/15",
            "category": "findings"
          },
          {
            "type": "name_match",
            "text": "arsenic",
            "confidence": 1.0,
            "uuid": "2bf78711-4881-4b55-9b7c-df80529b3991",
            "name": "Arsenic",
            "url": "https://haz-map.com/Agents/1147",
            "category": "agents"
          }
        ]
      },
      "biomedical_references": {
        "original_name": "Biomedical References",
        "value": "Search PubMed",
        "links": [
          {
            "text": "Search PubMed",
            "url": "https://www.ncbi.nlm.nih.gov/pubmed?term=Phenyl+arsine+oxide%20AND%20human%5Bmh%5D%20AND%20%28Occupational%20Diseases%20%5Bmh%5D%20OR%20Occupational%20Exposure%20%5Bmh%5D%29%20%20AND%20%28tox%5Bsb%5D%29&cmd=search"
          }
        ],
        "cross_references": []
      }
    },
    "exposure_assessment": {
      "bioaccumulates": {
        "original_name": "Bioaccumulates",
        "value": "Yes",
        "links": [],
        "cross_references": []
      },
      "pel_osha": {
        "original_name": "PEL (OSHA)",
        "value": "0.5 mg/m3, as As",
        "links": [],
        "cross_references": []
      },
      "nfpa": {
        "original_name": "NFPA",
        "value": "must be preheated",
        "links": [],
        "cross_references": []
      }
    },
    "diseases_processes_and_activities_linked_to_this_agent": {
      "diseases": {
        "original_name": "Diseases",
        "value": "Occupational diseases associated with exposure to this agent: Arsenic, chronic toxic effect",
        "links": [
          {
            "text": "Arsenic, chronic toxic effect",
            "url": "https://haz-map.com/Diseases/36"
          }
        ],
        "cross_references": [
          {
            "type": "url_match",
            "text": "Arsenic, chronic toxic effect",
            "url": "https://haz-map.com/Diseases/36",
            "confidence": 1.0,
            "uuid": "af797cc4-dd4f-43a6-af2e-d3a8f9d72cd3",
            "name": "Arsenic, chronic toxic effect",
            "category": "diseases"
          },
          {
            "type": "name_match",
            "text": "arsenic",
            "confidence": 1.0,
            "uuid": "2bf78711-4881-4b55-9b7c-df80529b3991",
            "name": "Arsenic",
            "url": "https://haz-map.com/Agents/1147",
            "category": "agents"
          },
          {
            "type": "fuzzy_match",
            "text": "chronic toxic effect",
            "matched_name": "Chromium, chronic toxic effect",
            "confidence": 0.7261904761904762,
            "uuid": "cb808753-5a2c-485a-878c-f5b5371ff3e6",
            "category": "diseases",
            "url": "https://haz-map.com/Diseases/17"
          }
        ]
      }
    }
  },
  "cross_references": [
    {
      "type": "url_match",
      "text": "Arsenic, chronic toxic effect",
      "url": "https://haz-map.com/Diseases/36",
      "confidence": 1.0,
      "uuid": "af797cc4-dd4f-43a6-af2e-d3a8f9d72cd3",
      "name": "Arsenic, chronic toxic effect",
      "category": "diseases"
    },
    {
      "type": "name_match",
      "text": "diarrhea",
      "confidence": 1.0,
      "uuid": "001ae7b5-5f3c-42c2-bc33-81e7581abd53",
      "name": "diarrhea",
      "url": "https://haz-map.com/Findings/15",
      "category": "findings"
    },
    {
      "type": "name_match",
      "text": "benzene",
      "confidence": 1.0,
      "uuid": "b05124de-5f34-4c14-8f04-ccb20c3780d9",
      "name": "Benzene",
      "url": "https://haz-map.com/Agents/5",
      "category": "agents"
    },
    {
      "type": "name_match",
      "text": "arsine",
      "confidence": 1.0,
      "uuid": "9cbc23fa-8b7b-4fc4-b893-37c76e241fda",
      "name": "Arsine",
      "url": "https://haz-map.com/Agents/80",
      "category": "agents"
    },
    {
      "type": "name_match",
      "text": "arsenic",
      "confidence": 1.0,
      "uuid": "2bf78711-4881-4b55-9b7c-df80529b3991",
      "name": "Arsenic",
      "url": "https://haz-map.com/Agents/1147",
      "category": "agents"
    },
    {
      "type": "name_match",
      "text": "phenyl arsine oxide",
      "confidence": 1.0,
      "uuid": "bd638361-9196-4412-8a77-584e63e71b3e",
      "name": "Phenyl arsine oxide",
      "url": "https://haz-map.com/Agents/1912",
      "category": "agents"
    },
    {
      "type": "name_match",
      "text": "tyrosine",
      "confidence": 1.0,
      "uuid": "f9f78e9e-985b-45af-8557-02c83fa04d59",
      "name": "Tyrosine",
      "url": "https://haz-map.com/Agents/18489",
      "category": "agents"
    },
    {
      "type": "fuzzy_match",
      "text": "chronic toxic effect",
      "matched_name": "Chromium, chronic toxic effect",
      "confidence": 0.7261904761904762,
      "uuid": "cb808753-5a2c-485a-878c-f5b5371ff3e6",
      "category": "diseases",
      "url": "https://haz-map.com/Diseases/17"
    }
  ],
  "all_links": [
    {
      "text": "Search PubMed",
      "url": "https://www.ncbi.nlm.nih.gov/pubmed?term=Phenyl+arsine+oxide%20AND%20human%5Bmh%5D%20AND%20%28Occupational%20Diseases%20%5Bmh%5D%20OR%20Occupational%20Exposure%20%5Bmh%5D%29%20%20AND%20%28tox%5Bsb%5D%29&cmd=search"
    },
    {
      "text": "Arsenic, chronic toxic effect",
      "url": "https://haz-map.com/Diseases/36"
    }
  ]
}