{
  "metadata": {
    "scraped_from": "https://haz-map.com/Agents/18587",
    "entity_name": "Uric acid",
    "category": "agents",
    "uuid": "bd67e9b1-899e-4f1c-95f0-d25380f3c966",
    "scraped_at": "2025-07-23T21:56:34.614372"
  },
  "parsed_at": "2025-07-24T01:05:37.707813",
  "title": "Uric acid",
  "sections": {
    "general": {
      "agent_name": {
        "original_name": "Agent Name",
        "value": "Uric acid",
        "links": [],
        "cross_references": [
          {
            "type": "name_match",
            "text": "uric acid",
            "confidence": 1.0,
            "uuid": "bd67e9b1-899e-4f1c-95f0-d25380f3c966",
            "name": "Uric acid",
            "url": "https://haz-map.com/Agents/18587",
            "category": "agents"
          }
        ]
      },
      "cas_number": {
        "original_name": "CAS Number",
        "value": "69-93-2",
        "links": [],
        "cross_references": []
      },
      "formula": {
        "original_name": "Formula",
        "value": "C5-H4-N4-O3",
        "links": [],
        "cross_references": []
      },
      "major_category": {
        "original_name": "Major Category",
        "value": "Nitrogen Compounds",
        "links": [],
        "cross_references": [
          {
            "type": "name_match",
            "text": "nitrogen",
            "confidence": 1.0,
            "uuid": "db5e90a9-06d2-45b9-8b81-f345a89b0bc0",
            "name": "Nitrogen",
            "url": "https://haz-map.com/Agents/1072",
            "category": "agents"
          }
        ]
      },
      "synonyms": {
        "original_name": "Synonyms",
        "value": "1H-Purine-2,6,8(3H)-trione, 7,9-dihydro-; 1H-Purine-2,6,8-triol; 2,6,8-Trihydroxypurine; 2,6,8-Trioxopurine; 2,6,8-Trioxypurine; 7,9-Dihydro-1H-purine-2,6,8(3H)-trione; Lithic acid; Purine-2,6,8(1H,3H,9H)-trione; [ChemIDplus] 8-Hydroxyxanthine; Purine-2,6,8-triol; [Merck Index]",
        "links": [],
        "cross_references": [
          {
            "type": "name_match",
            "text": "xanthine",
            "confidence": 1.0,
            "uuid": "6440504f-a48b-4564-b510-e9733c09428b",
            "name": "Xanthine",
            "url": "https://haz-map.com/Agents/18695",
            "category": "agents"
          }
        ]
      },
      "category": {
        "original_name": "Category",
        "value": "Purines",
        "links": [],
        "cross_references": []
      },
      "description": {
        "original_name": "Description",
        "value": "White odorless solid; [Merck Index] Beige powder; [Sigma-Aldrich MSDS]",
        "links": [],
        "cross_references": []
      },
      "sourcesuses": {
        "original_name": "Sources/Uses",
        "value": "Found in the urine of all carnivores; [Merck Index] Permitted for use as an inert ingredient in non-food pesticide products; [EPA]",
        "links": [],
        "cross_references": []
      },
      "comments": {
        "original_name": "Comments",
        "value": "May cause irritation; Reproductive effects observed in rats; [Sigma-Aldrich MSDS]",
        "links": [],
        "cross_references": []
      },
      "biomedical_references": {
        "original_name": "Biomedical References",
        "value": "Search PubMed",
        "links": [
          {
            "text": "Search PubMed",
            "url": "https://www.ncbi.nlm.nih.gov/pubmed?term=Uric+acid%20AND%20human%5Bmh%5D%20AND%20%28Occupational%20Diseases%20%5Bmh%5D%20OR%20Occupational%20Exposure%20%5Bmh%5D%29%20%20AND%20%28tox%5Bsb%5D%29&cmd=search"
          }
        ],
        "cross_references": []
      }
    },
    "exposure_assessment": {
      "vapor_pressure": {
        "original_name": "Vapor Pressure",
        "value": "7.89E-10 mm Hg",
        "links": [],
        "cross_references": []
      }
    },
    "diseases_processes_and_activities_linked_to_this_agent": {
      "other_information": {
        "original_name": "Other Information",
        "value": "No other related information on this agent was found.",
        "links": [],
        "cross_references": []
      }
    }
  },
  "cross_references": [
    {
      "type": "name_match",
      "text": "nitrogen",
      "confidence": 1.0,
      "uuid": "db5e90a9-06d2-45b9-8b81-f345a89b0bc0",
      "name": "Nitrogen",
      "url": "https://haz-map.com/Agents/1072",
      "category": "agents"
    },
    {
      "type": "name_match",
      "text": "uric acid",
      "confidence": 1.0,
      "uuid": "bd67e9b1-899e-4f1c-95f0-d25380f3c966",
      "name": "Uric acid",
      "url": "https://haz-map.com/Agents/18587",
      "category": "agents"
    },
    {
      "type": "name_match",
      "text": "xanthine",
      "confidence": 1.0,
      "uuid": "6440504f-a48b-4564-b510-e9733c09428b",
      "name": "Xanthine",
      "url": "https://haz-map.com/Agents/18695",
      "category": "agents"
    }
  ],
  "all_links": [
    {
      "text": "Search PubMed",
      "url": "https://www.ncbi.nlm.nih.gov/pubmed?term=Uric+acid%20AND%20human%5Bmh%5D%20AND%20%28Occupational%20Diseases%20%5Bmh%5D%20OR%20Occupational%20Exposure%20%5Bmh%5D%29%20%20AND%20%28tox%5Bsb%5D%29&cmd=search"
    }
  ]
}