{
  "metadata": {
    "scraped_from": "https://haz-map.com/Agents/10478",
    "entity_name": "2,2,4-Trimethyl-1-pentanol",
    "category": "agents",
    "uuid": "bd8a4107-3216-4c3d-8688-e38b9615bb12",
    "scraped_at": "2025-07-23T20:48:02.819120"
  },
  "parsed_at": "2025-07-24T00:54:42.406752",
  "title": "2,2,4-Trimethyl-1-pentanol",
  "sections": {
    "general": {
      "agent_name": {
        "original_name": "Agent Name",
        "value": "2,2,4-Trimethyl-1-pentanol",
        "links": [],
        "cross_references": [
          {
            "type": "name_match",
            "text": "1-pentanol",
            "confidence": 1.0,
            "uuid": "74c9beda-4812-46af-930c-b4b8c6b2cee3",
            "name": "1-Pentanol",
            "url": "https://haz-map.com/Agents/3547",
            "category": "agents"
          },
          {
            "type": "name_match",
            "text": "2,2,4-trimethyl-1-pentanol",
            "confidence": 1.0,
            "uuid": "bd8a4107-3216-4c3d-8688-e38b9615bb12",
            "name": "2,2,4-Trimethyl-1-pentanol",
            "url": "https://haz-map.com/Agents/10478",
            "category": "agents"
          }
        ]
      },
      "cas_number": {
        "original_name": "CAS Number",
        "value": "123-44-4",
        "links": [],
        "cross_references": []
      },
      "formula": {
        "original_name": "Formula",
        "value": "C8-H18-O",
        "links": [],
        "cross_references": []
      },
      "major_category": {
        "original_name": "Major Category",
        "value": "Solvents",
        "links": [],
        "cross_references": []
      },
      "synonyms": {
        "original_name": "Synonyms",
        "value": "2,2,4-Trimethylpentanol; 1-Pentanol, 2,2,4-trimethyl-; 2,2,4-Trimethylpentan-1-ol; [ChemIDplus]",
        "links": [],
        "cross_references": [
          {
            "type": "name_match",
            "text": "1-pentanol",
            "confidence": 1.0,
            "uuid": "74c9beda-4812-46af-930c-b4b8c6b2cee3",
            "name": "1-Pentanol",
            "url": "https://haz-map.com/Agents/3547",
            "category": "agents"
          }
        ]
      },
      "category": {
        "original_name": "Category",
        "value": "Alcohols (<C12)",
        "links": [],
        "cross_references": []
      },
      "description": {
        "original_name": "Description",
        "value": "Liquid; [Aldrich MSDS]",
        "links": [],
        "cross_references": []
      },
      "comments": {
        "original_name": "Comments",
        "value": "A moderate skin and eye irritant; Causes somnolence in dermal lethal-dose studies of rabbits; Causes ptosis, somnolence, and ataxia in oral lethal-dose studies of rats; [RTECS] An irritant; May cause allergic reactions in sensitive individuals; Harmful by ingestion; [Aldrich MSDS] See \"1-Pentanol.\"",
        "links": [],
        "cross_references": [
          {
            "type": "name_match",
            "text": "1-pentanol",
            "confidence": 1.0,
            "uuid": "74c9beda-4812-46af-930c-b4b8c6b2cee3",
            "name": "1-Pentanol",
            "url": "https://haz-map.com/Agents/3547",
            "category": "agents"
          }
        ]
      },
      "biomedical_references": {
        "original_name": "Biomedical References",
        "value": "Search PubMed",
        "links": [
          {
            "text": "Search PubMed",
            "url": "https://www.ncbi.nlm.nih.gov/pubmed?term=2%2c2%2c4-Trimethyl-1-pentanol%20AND%20human%5Bmh%5D%20AND%20%28Occupational%20Diseases%20%5Bmh%5D%20OR%20Occupational%20Exposure%20%5Bmh%5D%29%20%20AND%20%28tox%5Bsb%5D%29&cmd=search"
          }
        ],
        "cross_references": []
      }
    },
    "exposure_assessment": {
      "vapor_pressure": {
        "original_name": "Vapor Pressure",
        "value": "0.496 mm Hg",
        "links": [],
        "cross_references": []
      },
      "explanatory_notes": {
        "original_name": "Explanatory Notes",
        "value": "VP from ChemIDplus;",
        "links": [],
        "cross_references": []
      }
    },
    "adverse_effects": {
      "neurotoxin": {
        "original_name": "Neurotoxin",
        "value": "Acute solvent syndrome",
        "links": [],
        "cross_references": []
      }
    },
    "diseases_processes_and_activities_linked_to_this_agent": {
      "diseases": {
        "original_name": "Diseases",
        "value": "Occupational diseases associated with exposure to this agent: Solvents, acute toxic effect",
        "links": [
          {
            "text": "Solvents, acute toxic effect",
            "url": "https://haz-map.com/Diseases/326"
          }
        ],
        "cross_references": [
          {
            "type": "url_match",
            "text": "Solvents, acute toxic effect",
            "url": "https://haz-map.com/Diseases/326",
            "confidence": 1.0,
            "uuid": "581e90e3-9d0c-45f0-aa6c-3468c28da129",
            "name": "Solvents, acute toxic effect",
            "category": "diseases"
          }
        ]
      }
    }
  },
  "cross_references": [
    {
      "type": "url_match",
      "text": "Solvents, acute toxic effect",
      "url": "https://haz-map.com/Diseases/326",
      "confidence": 1.0,
      "uuid": "581e90e3-9d0c-45f0-aa6c-3468c28da129",
      "name": "Solvents, acute toxic effect",
      "category": "diseases"
    },
    {
      "type": "name_match",
      "text": "1-pentanol",
      "confidence": 1.0,
      "uuid": "74c9beda-4812-46af-930c-b4b8c6b2cee3",
      "name": "1-Pentanol",
      "url": "https://haz-map.com/Agents/3547",
      "category": "agents"
    },
    {
      "type": "name_match",
      "text": "2,2,4-trimethyl-1-pentanol",
      "confidence": 1.0,
      "uuid": "bd8a4107-3216-4c3d-8688-e38b9615bb12",
      "name": "2,2,4-Trimethyl-1-pentanol",
      "url": "https://haz-map.com/Agents/10478",
      "category": "agents"
    }
  ],
  "all_links": [
    {
      "text": "Search PubMed",
      "url": "https://www.ncbi.nlm.nih.gov/pubmed?term=2%2c2%2c4-Trimethyl-1-pentanol%20AND%20human%5Bmh%5D%20AND%20%28Occupational%20Diseases%20%5Bmh%5D%20OR%20Occupational%20Exposure%20%5Bmh%5D%29%20%20AND%20%28tox%5Bsb%5D%29&cmd=search"
    },
    {
      "text": "Solvents, acute toxic effect",
      "url": "https://haz-map.com/Diseases/326"
    }
  ]
}