{
  "metadata": {
    "scraped_from": "https://haz-map.com/Agents/11284",
    "entity_name": "5-Nitroindazole",
    "category": "agents",
    "uuid": "bdad84ca-c055-440f-b43e-08247caa6c3f",
    "scraped_at": "2025-07-23T20:57:44.333249"
  },
  "parsed_at": "2025-07-24T00:56:06.868934",
  "title": "5-Nitroindazole",
  "sections": {
    "general": {
      "agent_name": {
        "original_name": "Agent Name",
        "value": "5-Nitroindazole",
        "links": [],
        "cross_references": [
          {
            "type": "name_match",
            "text": "5-nitroindazole",
            "confidence": 1.0,
            "uuid": "bdad84ca-c055-440f-b43e-08247caa6c3f",
            "name": "5-Nitroindazole",
            "url": "https://haz-map.com/Agents/11284",
            "category": "agents"
          }
        ]
      },
      "cas_number": {
        "original_name": "CAS Number",
        "value": "5401-94-5",
        "links": [],
        "cross_references": []
      },
      "formula": {
        "original_name": "Formula",
        "value": "C7-H5-N3-O2",
        "links": [],
        "cross_references": []
      },
      "major_category": {
        "original_name": "Major Category",
        "value": "Nitrogen Compounds",
        "links": [],
        "cross_references": [
          {
            "type": "name_match",
            "text": "nitrogen",
            "confidence": 1.0,
            "uuid": "db5e90a9-06d2-45b9-8b81-f345a89b0bc0",
            "name": "Nitrogen",
            "url": "https://haz-map.com/Agents/1072",
            "category": "agents"
          }
        ]
      },
      "synonyms": {
        "original_name": "Synonyms",
        "value": "5-Nitro-1H-indazole; 1H-Indazole, 5-nitro-; [ChemIDplus] Nitroindazole, 5-; Nitro-1H-indazole, 5-; [REPROTOX]",
        "links": [],
        "cross_references": [
          {
            "type": "name_match",
            "text": "1h-indazole",
            "confidence": 1.0,
            "uuid": "fb2122ca-32ab-4e0d-a3be-d91cd7fe0f8f",
            "name": "1H-Indazole",
            "url": "https://haz-map.com/Agents/10188",
            "category": "agents"
          }
        ]
      },
      "category": {
        "original_name": "Category",
        "value": "Other Nitrogen Rings",
        "links": [],
        "cross_references": [
          {
            "type": "name_match",
            "text": "nitrogen",
            "confidence": 1.0,
            "uuid": "db5e90a9-06d2-45b9-8b81-f345a89b0bc0",
            "name": "Nitrogen",
            "url": "https://haz-map.com/Agents/1072",
            "category": "agents"
          }
        ]
      },
      "description": {
        "original_name": "Description",
        "value": "Yellow odorless powder; [Eastman Kodak MSDS]",
        "links": [],
        "cross_references": []
      },
      "sourcesuses": {
        "original_name": "Sources/Uses",
        "value": "Possesses antifungal activity; [REPROTOX]",
        "links": [],
        "cross_references": []
      },
      "comments": {
        "original_name": "Comments",
        "value": "May cause transient irritation; NOAEL for 12-day oral study of rats = 81 mg/kg/day; [Eastman Kodak MSDS]",
        "links": [],
        "cross_references": []
      },
      "biomedical_references": {
        "original_name": "Biomedical References",
        "value": "Search PubMed",
        "links": [
          {
            "text": "Search PubMed",
            "url": "https://www.ncbi.nlm.nih.gov/pubmed?term=5-Nitroindazole%20AND%20human%5Bmh%5D%20AND%20%28Occupational%20Diseases%20%5Bmh%5D%20OR%20Occupational%20Exposure%20%5Bmh%5D%29%20%20AND%20%28tox%5Bsb%5D%29&cmd=search"
          }
        ],
        "cross_references": []
      }
    },
    "exposure_assessment": {
      "vapor_pressure": {
        "original_name": "Vapor Pressure",
        "value": "1.28E-05 mm Hg",
        "links": [],
        "cross_references": []
      }
    },
    "diseases_processes_and_activities_linked_to_this_agent": {
      "other_information": {
        "original_name": "Other Information",
        "value": "No other related information on this agent was found.",
        "links": [],
        "cross_references": []
      }
    }
  },
  "cross_references": [
    {
      "type": "name_match",
      "text": "nitrogen",
      "confidence": 1.0,
      "uuid": "db5e90a9-06d2-45b9-8b81-f345a89b0bc0",
      "name": "Nitrogen",
      "url": "https://haz-map.com/Agents/1072",
      "category": "agents"
    },
    {
      "type": "name_match",
      "text": "1h-indazole",
      "confidence": 1.0,
      "uuid": "fb2122ca-32ab-4e0d-a3be-d91cd7fe0f8f",
      "name": "1H-Indazole",
      "url": "https://haz-map.com/Agents/10188",
      "category": "agents"
    },
    {
      "type": "name_match",
      "text": "5-nitroindazole",
      "confidence": 1.0,
      "uuid": "bdad84ca-c055-440f-b43e-08247caa6c3f",
      "name": "5-Nitroindazole",
      "url": "https://haz-map.com/Agents/11284",
      "category": "agents"
    }
  ],
  "all_links": [
    {
      "text": "Search PubMed",
      "url": "https://www.ncbi.nlm.nih.gov/pubmed?term=5-Nitroindazole%20AND%20human%5Bmh%5D%20AND%20%28Occupational%20Diseases%20%5Bmh%5D%20OR%20Occupational%20Exposure%20%5Bmh%5D%29%20%20AND%20%28tox%5Bsb%5D%29&cmd=search"
    }
  ]
}