{
  "metadata": {
    "scraped_from": "https://haz-map.com/Agents/20642",
    "entity_name": "Diethoxydiphenylsilane",
    "category": "agents",
    "uuid": "bdcb96a4-d5eb-4524-8fc9-0325050f54b4",
    "scraped_at": "2025-07-23T22:29:07.567693"
  },
  "parsed_at": "2025-07-24T01:13:10.485556",
  "title": "Diethoxydiphenylsilane",
  "sections": {
    "general": {
      "agent_name": {
        "original_name": "Agent Name",
        "value": "Diethoxydiphenylsilane",
        "links": [],
        "cross_references": [
          {
            "type": "name_match",
            "text": "diphenylsilane",
            "confidence": 1.0,
            "uuid": "23167ed2-ef46-4c1a-adce-94f21c693bf6",
            "name": "Diphenylsilane",
            "url": "https://haz-map.com/Agents/13263",
            "category": "agents"
          },
          {
            "type": "name_match",
            "text": "diethoxydiphenylsilane",
            "confidence": 1.0,
            "uuid": "bdcb96a4-d5eb-4524-8fc9-0325050f54b4",
            "name": "Diethoxydiphenylsilane",
            "url": "https://haz-map.com/Agents/20642",
            "category": "agents"
          }
        ]
      },
      "cas_number": {
        "original_name": "CAS Number",
        "value": "2553-19-7",
        "links": [],
        "cross_references": []
      },
      "formula": {
        "original_name": "Formula",
        "value": "C16-H20-O2-Si",
        "links": [],
        "cross_references": []
      },
      "major_category": {
        "original_name": "Major Category",
        "value": "Metals",
        "links": [],
        "cross_references": []
      },
      "synonyms": {
        "original_name": "Synonyms",
        "value": "Diphenyldiethoxysilane; Benzene, 1,1'-(diethoxysilylene)bis-; Silane, diethoxydiphenyl-; [ChemIDplus]",
        "links": [],
        "cross_references": [
          {
            "type": "name_match",
            "text": "benzene",
            "confidence": 1.0,
            "uuid": "b05124de-5f34-4c14-8f04-ccb20c3780d9",
            "name": "Benzene",
            "url": "https://haz-map.com/Agents/5",
            "category": "agents"
          }
        ]
      },
      "category": {
        "original_name": "Category",
        "value": "Metalloid Compounds (Silicon)",
        "links": [],
        "cross_references": [
          {
            "type": "name_match",
            "text": "silicon",
            "confidence": 1.0,
            "uuid": "443f4405-7a1f-47db-bf43-809557f77483",
            "name": "Silicon",
            "url": "https://haz-map.com/Agents/623",
            "category": "agents"
          }
        ]
      },
      "description": {
        "original_name": "Description",
        "value": "Liquid; [Alfa Aesar MSDS]",
        "links": [],
        "cross_references": []
      },
      "comments": {
        "original_name": "Comments",
        "value": "A skin and strong eye irritant; [Alfa Aesar MSDS] See \"Silane, (4-aminobutyl)diethoxymethyl-.\"",
        "links": [],
        "cross_references": [
          {
            "type": "name_match",
            "text": "silane, (4-aminobutyl)diethoxymethyl-",
            "confidence": 1.0,
            "uuid": "49790ed4-e1a0-4745-a9a2-7eea776f5acd",
            "name": "Silane, (4-aminobutyl)diethoxymethyl-",
            "url": "https://haz-map.com/Agents/7032",
            "category": "agents"
          }
        ]
      },
      "biomedical_references": {
        "original_name": "Biomedical References",
        "value": "Search PubMed",
        "links": [
          {
            "text": "Search PubMed",
            "url": "https://www.ncbi.nlm.nih.gov/pubmed?term=Diethoxydiphenylsilane%20AND%20human%5Bmh%5D%20AND%20%28Occupational%20Diseases%20%5Bmh%5D%20OR%20Occupational%20Exposure%20%5Bmh%5D%29%20%20AND%20%28tox%5Bsb%5D%29&cmd=search"
          }
        ],
        "cross_references": []
      }
    },
    "exposure_assessment": {
      "vapor_pressure": {
        "original_name": "Vapor Pressure",
        "value": "4.72E-05 mm Hg",
        "links": [],
        "cross_references": []
      }
    },
    "diseases_processes_and_activities_linked_to_this_agent": {
      "other_information": {
        "original_name": "Other Information",
        "value": "No other related information on this agent was found.",
        "links": [],
        "cross_references": []
      }
    }
  },
  "cross_references": [
    {
      "type": "name_match",
      "text": "benzene",
      "confidence": 1.0,
      "uuid": "b05124de-5f34-4c14-8f04-ccb20c3780d9",
      "name": "Benzene",
      "url": "https://haz-map.com/Agents/5",
      "category": "agents"
    },
    {
      "type": "name_match",
      "text": "silicon",
      "confidence": 1.0,
      "uuid": "443f4405-7a1f-47db-bf43-809557f77483",
      "name": "Silicon",
      "url": "https://haz-map.com/Agents/623",
      "category": "agents"
    },
    {
      "type": "name_match",
      "text": "silane, (4-aminobutyl)diethoxymethyl-",
      "confidence": 1.0,
      "uuid": "49790ed4-e1a0-4745-a9a2-7eea776f5acd",
      "name": "Silane, (4-aminobutyl)diethoxymethyl-",
      "url": "https://haz-map.com/Agents/7032",
      "category": "agents"
    },
    {
      "type": "name_match",
      "text": "diphenylsilane",
      "confidence": 1.0,
      "uuid": "23167ed2-ef46-4c1a-adce-94f21c693bf6",
      "name": "Diphenylsilane",
      "url": "https://haz-map.com/Agents/13263",
      "category": "agents"
    },
    {
      "type": "name_match",
      "text": "diethoxydiphenylsilane",
      "confidence": 1.0,
      "uuid": "bdcb96a4-d5eb-4524-8fc9-0325050f54b4",
      "name": "Diethoxydiphenylsilane",
      "url": "https://haz-map.com/Agents/20642",
      "category": "agents"
    }
  ],
  "all_links": [
    {
      "text": "Search PubMed",
      "url": "https://www.ncbi.nlm.nih.gov/pubmed?term=Diethoxydiphenylsilane%20AND%20human%5Bmh%5D%20AND%20%28Occupational%20Diseases%20%5Bmh%5D%20OR%20Occupational%20Exposure%20%5Bmh%5D%29%20%20AND%20%28tox%5Bsb%5D%29&cmd=search"
    }
  ]
}