{
  "metadata": {
    "scraped_from": "https://haz-map.com/Agents/11337",
    "entity_name": "Thioxanthone",
    "category": "agents",
    "uuid": "be4af7a8-2b4b-417a-a127-1a2589f4d057",
    "scraped_at": "2025-07-23T20:58:24.261356"
  },
  "parsed_at": "2025-07-24T01:12:10.213584",
  "title": "Thioxanthone",
  "sections": {
    "general": {
      "agent_name": {
        "original_name": "Agent Name",
        "value": "Thioxanthone",
        "links": [],
        "cross_references": [
          {
            "type": "name_match",
            "text": "thioxanthone",
            "confidence": 1.0,
            "uuid": "be4af7a8-2b4b-417a-a127-1a2589f4d057",
            "name": "Thioxanthone",
            "url": "https://haz-map.com/Agents/11337",
            "category": "agents"
          }
        ]
      },
      "cas_number": {
        "original_name": "CAS Number",
        "value": "492-22-8",
        "links": [],
        "cross_references": []
      },
      "formula": {
        "original_name": "Formula",
        "value": "C13-H8-O-S",
        "links": [],
        "cross_references": []
      },
      "major_category": {
        "original_name": "Major Category",
        "value": "Other Classes",
        "links": [],
        "cross_references": []
      },
      "synonyms": {
        "original_name": "Synonyms",
        "value": "10-Thioxanthone; 9-Thioxanthone; 9H-Thioxanthene, 9-oxo-; Thiaxanthenone; Thiaxanthon; Thioxanthene, 9-oxo-; Thioxanthene-9-one; Thioxanthenone; Thioxanthone; 9H-Thioxanthen-9-one; Thioxanthen-9-one; [ChemIDplus] 9-Oxothioxanthene; [Merck Index]",
        "links": [],
        "cross_references": [
          {
            "type": "name_match",
            "text": "thioxanthone",
            "confidence": 1.0,
            "uuid": "be4af7a8-2b4b-417a-a127-1a2589f4d057",
            "name": "Thioxanthone",
            "url": "https://haz-map.com/Agents/11337",
            "category": "agents"
          },
          {
            "type": "name_match",
            "text": "xanthene",
            "confidence": 1.0,
            "uuid": "35deaaf9-5d82-459b-9ab4-655bfc7929e0",
            "name": "Xanthene",
            "url": "https://haz-map.com/Agents/18694",
            "category": "agents"
          }
        ]
      },
      "category": {
        "original_name": "Category",
        "value": "Other Aromatic Compounds",
        "links": [],
        "cross_references": []
      },
      "description": {
        "original_name": "Description",
        "value": "Yellow solid; [Merck Index] Light yellow crystalline solid; [Sigma-Aldrich MSDS]",
        "links": [],
        "cross_references": [
          {
            "type": "name_match",
            "text": "ht",
            "confidence": 1.0,
            "uuid": "764df367-8d53-4a11-81a2-31ccfe122a8d",
            "name": "HT",
            "url": "https://haz-map.com/Agents/2168",
            "category": "agents"
          },
          {
            "type": "fuzzy_match",
            "text": "crystalline",
            "matched_name": "Silica, crystalline",
            "confidence": 0.7061403508771931,
            "uuid": "f920e8a2-46df-41b7-af8d-0368a777251e",
            "category": "agents",
            "url": "https://haz-map.com/Agents/427"
          }
        ]
      },
      "comments": {
        "original_name": "Comments",
        "value": "May cause irritation; [Sigma-Aldrich MSDS]",
        "links": [],
        "cross_references": []
      },
      "biomedical_references": {
        "original_name": "Biomedical References",
        "value": "Search PubMed",
        "links": [
          {
            "text": "Search PubMed",
            "url": "https://www.ncbi.nlm.nih.gov/pubmed?term=Thioxanthone%20AND%20human%5Bmh%5D%20AND%20%28Occupational%20Diseases%20%5Bmh%5D%20OR%20Occupational%20Exposure%20%5Bmh%5D%29%20%20AND%20%28tox%5Bsb%5D%29&cmd=search"
          }
        ],
        "cross_references": []
      }
    },
    "exposure_assessment": {
      "vapor_pressure": {
        "original_name": "Vapor Pressure",
        "value": "1.35E-05 mm Hg",
        "links": [],
        "cross_references": []
      }
    },
    "diseases_processes_and_activities_linked_to_this_agent": {
      "other_information": {
        "original_name": "Other Information",
        "value": "No other related information on this agent was found.",
        "links": [],
        "cross_references": []
      }
    }
  },
  "cross_references": [
    {
      "type": "name_match",
      "text": "ht",
      "confidence": 1.0,
      "uuid": "764df367-8d53-4a11-81a2-31ccfe122a8d",
      "name": "HT",
      "url": "https://haz-map.com/Agents/2168",
      "category": "agents"
    },
    {
      "type": "name_match",
      "text": "thioxanthone",
      "confidence": 1.0,
      "uuid": "be4af7a8-2b4b-417a-a127-1a2589f4d057",
      "name": "Thioxanthone",
      "url": "https://haz-map.com/Agents/11337",
      "category": "agents"
    },
    {
      "type": "name_match",
      "text": "xanthene",
      "confidence": 1.0,
      "uuid": "35deaaf9-5d82-459b-9ab4-655bfc7929e0",
      "name": "Xanthene",
      "url": "https://haz-map.com/Agents/18694",
      "category": "agents"
    },
    {
      "type": "fuzzy_match",
      "text": "crystalline",
      "matched_name": "Silica, crystalline",
      "confidence": 0.7061403508771931,
      "uuid": "f920e8a2-46df-41b7-af8d-0368a777251e",
      "category": "agents",
      "url": "https://haz-map.com/Agents/427"
    }
  ],
  "all_links": [
    {
      "text": "Search PubMed",
      "url": "https://www.ncbi.nlm.nih.gov/pubmed?term=Thioxanthone%20AND%20human%5Bmh%5D%20AND%20%28Occupational%20Diseases%20%5Bmh%5D%20OR%20Occupational%20Exposure%20%5Bmh%5D%29%20%20AND%20%28tox%5Bsb%5D%29&cmd=search"
    }
  ]
}