{
  "metadata": {
    "scraped_from": "https://haz-map.com/Agents/638",
    "entity_name": "Sulfur pentafluoride",
    "category": "agents",
    "uuid": "be657c23-1e3c-4286-99f6-46ed87c67951",
    "scraped_at": "2025-07-23T18:46:01.022878"
  },
  "parsed_at": "2025-07-24T01:04:32.701060",
  "title": "Sulfur pentafluoride",
  "sections": {
    "general": {
      "agent_name": {
        "original_name": "Agent Name",
        "value": "Sulfur pentafluoride",
        "links": [],
        "cross_references": [
          {
            "type": "name_match",
            "text": "sulfur pentafluoride",
            "confidence": 1.0,
            "uuid": "be657c23-1e3c-4286-99f6-46ed87c67951",
            "name": "Sulfur pentafluoride",
            "url": "https://haz-map.com/Agents/638",
            "category": "agents"
          },
          {
            "type": "name_match",
            "text": "sulfur",
            "confidence": 1.0,
            "uuid": "5aabdef6-71c8-44c8-b762-feaabff50696",
            "name": "Sulfur",
            "url": "https://haz-map.com/Agents/1942",
            "category": "agents"
          }
        ]
      },
      "cas_number": {
        "original_name": "CAS Number",
        "value": "5714-22-7",
        "links": [],
        "cross_references": []
      },
      "formula": {
        "original_name": "Formula",
        "value": "F10-S2",
        "links": [],
        "cross_references": []
      },
      "major_category": {
        "original_name": "Major Category",
        "value": "Toxic Gases & Vapors",
        "links": [],
        "cross_references": []
      },
      "synonyms": {
        "original_name": "Synonyms",
        "value": "Disulfur decafluoride; TL 70; Disulphur decafluoride; Sulfur decafluoride; Sulfur fluoride; [ChemIDplus]",
        "links": [],
        "cross_references": [
          {
            "type": "name_match",
            "text": "sulfur",
            "confidence": 1.0,
            "uuid": "5aabdef6-71c8-44c8-b762-feaabff50696",
            "name": "Sulfur",
            "url": "https://haz-map.com/Agents/1942",
            "category": "agents"
          }
        ]
      },
      "category": {
        "original_name": "Category",
        "value": "Oxidizers",
        "links": [],
        "cross_references": []
      },
      "description": {
        "original_name": "Description",
        "value": "Colorless liquid or gas (above 84 degrees F) with an odor like sulfur dioxide; [NIOSH]",
        "links": [],
        "cross_references": [
          {
            "type": "name_match",
            "text": "sulfur dioxide",
            "confidence": 1.0,
            "uuid": "3031f31f-d136-471b-8f63-78d8e6db3ffd",
            "name": "Sulfur dioxide",
            "url": "https://haz-map.com/Agents/25",
            "category": "agents"
          },
          {
            "type": "name_match",
            "text": "sulfur",
            "confidence": 1.0,
            "uuid": "5aabdef6-71c8-44c8-b762-feaabff50696",
            "name": "Sulfur",
            "url": "https://haz-map.com/Agents/1942",
            "category": "agents"
          }
        ]
      },
      "sourcesuses": {
        "original_name": "Sources/Uses",
        "value": "Not manufactured commercially, but a by-product of sulfur hexafluoride synthesis; May be released when sulfur hexafluoride decomposes in electrical power system accidents exposing substation operators, substation equipment maintenance workers, and others; [ACGIH]",
        "links": [],
        "cross_references": [
          {
            "type": "name_match",
            "text": "sulfur hexafluoride",
            "confidence": 1.0,
            "uuid": "745a9885-0df7-44da-aeec-29b1246bd169",
            "name": "Sulfur hexafluoride",
            "url": "https://haz-map.com/Agents/634",
            "category": "agents"
          },
          {
            "type": "name_match",
            "text": "sulfur",
            "confidence": 1.0,
            "uuid": "5aabdef6-71c8-44c8-b762-feaabff50696",
            "name": "Sulfur",
            "url": "https://haz-map.com/Agents/1942",
            "category": "agents"
          }
        ]
      },
      "comments": {
        "original_name": "Comments",
        "value": "A by-product of sulfur hexafluoride synthesis, it has been shown to be a severe pulmonary irritant in animal studies. A potent cause of pulmonary edema that has no warning properties (no respiratory or skin irritation and no lacrimation; [ACGIH] A skin, eye, and respiratory tract irritant; [CAMEO]",
        "links": [],
        "cross_references": [
          {
            "type": "name_match",
            "text": "pulmonary edema",
            "confidence": 1.0,
            "uuid": "ee39114e-c922-40fd-9588-a532de404962",
            "name": "pulmonary edema",
            "url": "https://haz-map.com/Findings/186",
            "category": "findings"
          },
          {
            "type": "name_match",
            "text": "lacrimation",
            "confidence": 1.0,
            "uuid": "392ff8e7-90fa-4d6d-8f67-3e49d053ffac",
            "name": "lacrimation",
            "url": "https://haz-map.com/Findings/199",
            "category": "findings"
          },
          {
            "type": "name_match",
            "text": "sulfur hexafluoride",
            "confidence": 1.0,
            "uuid": "745a9885-0df7-44da-aeec-29b1246bd169",
            "name": "Sulfur hexafluoride",
            "url": "https://haz-map.com/Agents/634",
            "category": "agents"
          },
          {
            "type": "name_match",
            "text": "sulfur",
            "confidence": 1.0,
            "uuid": "5aabdef6-71c8-44c8-b762-feaabff50696",
            "name": "Sulfur",
            "url": "https://haz-map.com/Agents/1942",
            "category": "agents"
          }
        ]
      },
      "biomedical_references": {
        "original_name": "Biomedical References",
        "value": "Search PubMed",
        "links": [
          {
            "text": "Search PubMed",
            "url": "https://www.ncbi.nlm.nih.gov/pubmed?term=Sulfur+pentafluoride%20AND%20human%5Bmh%5D%20AND%20%28Occupational%20Diseases%20%5Bmh%5D%20OR%20Occupational%20Exposure%20%5Bmh%5D%29%20%20AND%20%28tox%5Bsb%5D%29&cmd=search"
          }
        ],
        "cross_references": []
      }
    },
    "exposure_assessment": {
      "skin_designation_acgih": {
        "original_name": "Skin Designation (ACGIH)",
        "value": "Insufficient data",
        "links": [],
        "cross_references": []
      },
      "ceiling_acgih": {
        "original_name": "Ceiling (ACGIH)",
        "value": "0.001 ppm",
        "links": [],
        "cross_references": []
      },
      "pel_osha": {
        "original_name": "PEL (OSHA)",
        "value": "0.025 ppm",
        "links": [],
        "cross_references": []
      },
      "idlh_niosh": {
        "original_name": "IDLH (NIOSH)",
        "value": "1 ppm",
        "links": [],
        "cross_references": []
      },
      "excerpts_from_documentation_for_idlhs": {
        "original_name": "Excerpts from Documentation for IDLHs",
        "value": "Other animal data: It has been reported that exposure for 1 hour at 10 ppm caused multiple diffuse hemorrhagic lesions in the lungs of rats, one hour at 1 ppm caused severe congestion of the lungs, and 1 hour at 0.1 ppm had no effect [Greenberg and Lester 1950]. \\ Human data: None relevant for use in determining the revised IDLH.",
        "links": [],
        "cross_references": [
          {
            "type": "name_match",
            "text": "mining",
            "confidence": 1.0,
            "uuid": "aaa4a4af-567a-4a01-83bc-ccad9fc73d04",
            "name": "Mining",
            "url": "https://haz-map.com/Processes/219",
            "category": "processes"
          }
        ]
      },
      "vapor_pressure": {
        "original_name": "Vapor Pressure",
        "value": "561 mm Hg",
        "links": [],
        "cross_references": []
      },
      "lethal_concentration": {
        "original_name": "Lethal Concentration",
        "value": "LCLo (mice) = 45,000 mg/m3/10M",
        "links": [],
        "cross_references": []
      }
    },
    "adverse_effects": {
      "toxic_pneumonitis": {
        "original_name": "Toxic Pneumonitis",
        "value": "Yes",
        "links": [],
        "cross_references": []
      }
    },
    "diseases_processes_and_activities_linked_to_this_agent": {
      "diseases": {
        "original_name": "Diseases",
        "value": "Occupational diseases associated with exposure to this agent: Pneumonitis, toxic",
        "links": [
          {
            "text": "Pneumonitis, toxic",
            "url": "https://haz-map.com/Diseases/306"
          }
        ],
        "cross_references": [
          {
            "type": "url_match",
            "text": "Pneumonitis, toxic",
            "url": "https://haz-map.com/Diseases/306",
            "confidence": 1.0,
            "uuid": "cd799281-0284-450d-bb82-ed6b675616ac",
            "name": "Pneumonitis, toxic",
            "category": "diseases"
          }
        ]
      }
    }
  },
  "cross_references": [
    {
      "type": "url_match",
      "text": "Pneumonitis, toxic",
      "url": "https://haz-map.com/Diseases/306",
      "confidence": 1.0,
      "uuid": "cd799281-0284-450d-bb82-ed6b675616ac",
      "name": "Pneumonitis, toxic",
      "category": "diseases"
    },
    {
      "type": "name_match",
      "text": "mining",
      "confidence": 1.0,
      "uuid": "aaa4a4af-567a-4a01-83bc-ccad9fc73d04",
      "name": "Mining",
      "url": "https://haz-map.com/Processes/219",
      "category": "processes"
    },
    {
      "type": "name_match",
      "text": "pulmonary edema",
      "confidence": 1.0,
      "uuid": "ee39114e-c922-40fd-9588-a532de404962",
      "name": "pulmonary edema",
      "url": "https://haz-map.com/Findings/186",
      "category": "findings"
    },
    {
      "type": "name_match",
      "text": "lacrimation",
      "confidence": 1.0,
      "uuid": "392ff8e7-90fa-4d6d-8f67-3e49d053ffac",
      "name": "lacrimation",
      "url": "https://haz-map.com/Findings/199",
      "category": "findings"
    },
    {
      "type": "name_match",
      "text": "sulfur dioxide",
      "confidence": 1.0,
      "uuid": "3031f31f-d136-471b-8f63-78d8e6db3ffd",
      "name": "Sulfur dioxide",
      "url": "https://haz-map.com/Agents/25",
      "category": "agents"
    },
    {
      "type": "name_match",
      "text": "sulfur hexafluoride",
      "confidence": 1.0,
      "uuid": "745a9885-0df7-44da-aeec-29b1246bd169",
      "name": "Sulfur hexafluoride",
      "url": "https://haz-map.com/Agents/634",
      "category": "agents"
    },
    {
      "type": "name_match",
      "text": "sulfur pentafluoride",
      "confidence": 1.0,
      "uuid": "be657c23-1e3c-4286-99f6-46ed87c67951",
      "name": "Sulfur pentafluoride",
      "url": "https://haz-map.com/Agents/638",
      "category": "agents"
    },
    {
      "type": "name_match",
      "text": "sulfur",
      "confidence": 1.0,
      "uuid": "5aabdef6-71c8-44c8-b762-feaabff50696",
      "name": "Sulfur",
      "url": "https://haz-map.com/Agents/1942",
      "category": "agents"
    }
  ],
  "all_links": [
    {
      "text": "Search PubMed",
      "url": "https://www.ncbi.nlm.nih.gov/pubmed?term=Sulfur+pentafluoride%20AND%20human%5Bmh%5D%20AND%20%28Occupational%20Diseases%20%5Bmh%5D%20OR%20Occupational%20Exposure%20%5Bmh%5D%29%20%20AND%20%28tox%5Bsb%5D%29&cmd=search"
    },
    {
      "text": "Pneumonitis, toxic",
      "url": "https://haz-map.com/Diseases/306"
    }
  ]
}