{
  "metadata": {
    "scraped_from": "https://haz-map.com/Agents/5576",
    "entity_name": "Hydroquinone dimethyl ether",
    "category": "agents",
    "uuid": "bed740c5-e34d-48c0-829c-b332d70ad3f5",
    "scraped_at": "2025-07-23T19:53:53.162929"
  },
  "parsed_at": "2025-07-24T00:59:58.378972",
  "title": "Hydroquinone dimethyl ether",
  "sections": {
    "general": {
      "agent_name": {
        "original_name": "Agent Name",
        "value": "Hydroquinone dimethyl ether",
        "links": [],
        "cross_references": [
          {
            "type": "name_match",
            "text": "quinone",
            "confidence": 1.0,
            "uuid": "d01e66c3-ad06-4707-8d42-3c6655001c1a",
            "name": "Quinone",
            "url": "https://haz-map.com/Agents/303",
            "category": "agents"
          },
          {
            "type": "name_match",
            "text": "ethyl ether",
            "confidence": 1.0,
            "uuid": "c95edddc-9ad3-44f8-bafa-78e0bd19db3a",
            "name": "Ethyl ether",
            "url": "https://haz-map.com/Agents/455",
            "category": "agents"
          },
          {
            "type": "name_match",
            "text": "hydroquinone",
            "confidence": 1.0,
            "uuid": "814158df-432a-4bfa-b22a-481088e15397",
            "name": "Hydroquinone",
            "url": "https://haz-map.com/Agents/518",
            "category": "agents"
          },
          {
            "type": "name_match",
            "text": "dimethyl ether",
            "confidence": 1.0,
            "uuid": "a12a0b82-a115-4243-98a7-3e9a2c4700ed",
            "name": "Dimethyl ether",
            "url": "https://haz-map.com/Agents/1483",
            "category": "agents"
          },
          {
            "type": "name_match",
            "text": "hydroquinone dimethyl ether",
            "confidence": 1.0,
            "uuid": "bed740c5-e34d-48c0-829c-b332d70ad3f5",
            "name": "Hydroquinone dimethyl ether",
            "url": "https://haz-map.com/Agents/5576",
            "category": "agents"
          }
        ]
      },
      "cas_number": {
        "original_name": "CAS Number",
        "value": "150-78-7",
        "links": [],
        "cross_references": []
      },
      "formula": {
        "original_name": "Formula",
        "value": "C8-H10-O2",
        "links": [],
        "cross_references": []
      },
      "major_category": {
        "original_name": "Major Category",
        "value": "Other Classes",
        "links": [],
        "cross_references": []
      },
      "synonyms": {
        "original_name": "Synonyms",
        "value": "1,4-Dimethoxybenzene; 1,4-Dimethoxybenzol; Anisole, p-methoxy-; Benzene, 1,4-dimethoxy-; Benzene, p-dimethoxy-; DMB; Dimethyl ether hydroquinone; Dimethyl hydroquinone; Dimethylether hydrochinonu [Czech]; Dimethylhydroquinone ether; Hydroquinone, dimethyl ether; Methyl p-methoxyphenyl ether; Quinol dimethyl ether; p-Dimethoxybenzene; p-Methoxyanisole; [ChemIDplus]",
        "links": [],
        "cross_references": [
          {
            "type": "name_match",
            "text": "benzene",
            "confidence": 1.0,
            "uuid": "b05124de-5f34-4c14-8f04-ccb20c3780d9",
            "name": "Benzene",
            "url": "https://haz-map.com/Agents/5",
            "category": "agents"
          },
          {
            "type": "name_match",
            "text": "quinone",
            "confidence": 1.0,
            "uuid": "d01e66c3-ad06-4707-8d42-3c6655001c1a",
            "name": "Quinone",
            "url": "https://haz-map.com/Agents/303",
            "category": "agents"
          },
          {
            "type": "name_match",
            "text": "ethyl ether",
            "confidence": 1.0,
            "uuid": "c95edddc-9ad3-44f8-bafa-78e0bd19db3a",
            "name": "Ethyl ether",
            "url": "https://haz-map.com/Agents/455",
            "category": "agents"
          },
          {
            "type": "name_match",
            "text": "hydroquinone",
            "confidence": 1.0,
            "uuid": "814158df-432a-4bfa-b22a-481088e15397",
            "name": "Hydroquinone",
            "url": "https://haz-map.com/Agents/518",
            "category": "agents"
          },
          {
            "type": "name_match",
            "text": "phenyl ether",
            "confidence": 1.0,
            "uuid": "063d5590-1868-48d4-a62d-7f1f2e8cf6d4",
            "name": "Phenyl ether",
            "url": "https://haz-map.com/Agents/591",
            "category": "agents"
          },
          {
            "type": "name_match",
            "text": "dimethyl ether",
            "confidence": 1.0,
            "uuid": "a12a0b82-a115-4243-98a7-3e9a2c4700ed",
            "name": "Dimethyl ether",
            "url": "https://haz-map.com/Agents/1483",
            "category": "agents"
          },
          {
            "type": "name_match",
            "text": "anisole",
            "confidence": 1.0,
            "uuid": "f122d940-2dba-441c-9dbf-c185355d4cb0",
            "name": "Anisole",
            "url": "https://haz-map.com/Agents/3708",
            "category": "agents"
          }
        ]
      },
      "category": {
        "original_name": "Category",
        "value": "Ethers, Other",
        "links": [],
        "cross_references": []
      },
      "description": {
        "original_name": "Description",
        "value": "White solid with an odor of sweet clover; [Hawley] Colorless solid; [CAMEO] White crystalline chips; [MSDSonline]",
        "links": [],
        "cross_references": [
          {
            "type": "fuzzy_match",
            "text": "crystalline",
            "matched_name": "Silica, crystalline",
            "confidence": 0.7061403508771931,
            "uuid": "f920e8a2-46df-41b7-af8d-0368a777251e",
            "category": "agents",
            "url": "https://haz-map.com/Agents/427"
          }
        ]
      },
      "sourcesuses": {
        "original_name": "Sources/Uses",
        "value": "Used as a weathering agent in paints and plastics, a fixative in perfumes, and a flavoring additive; Also used in dyes, as a resin intermediate, and in cosmetics and suntan creams; [Hawley]",
        "links": [],
        "cross_references": []
      },
      "comments": {
        "original_name": "Comments",
        "value": "Moderate skin irritant; Acts as general anesthetic in lethal-dose feeding studies of rats; [RTECS] Safe as a flavoring agent in food; [JECFA] Emergency treatment: see \"Hydroquinone\" and \"Quinone.\" [HSDB] No listed effects of short-term or long-term exposure; \"Insufficient data are available on the effect of this substance on human health, therefore utmost care must be taken.\" [ICSC] An irritant; [MSDSonline]",
        "links": [],
        "cross_references": [
          {
            "type": "name_match",
            "text": "quinone",
            "confidence": 1.0,
            "uuid": "d01e66c3-ad06-4707-8d42-3c6655001c1a",
            "name": "Quinone",
            "url": "https://haz-map.com/Agents/303",
            "category": "agents"
          },
          {
            "type": "name_match",
            "text": "hydroquinone",
            "confidence": 1.0,
            "uuid": "814158df-432a-4bfa-b22a-481088e15397",
            "name": "Hydroquinone",
            "url": "https://haz-map.com/Agents/518",
            "category": "agents"
          }
        ]
      },
      "biomedical_references": {
        "original_name": "Biomedical References",
        "value": "Search PubMed",
        "links": [
          {
            "text": "Search PubMed",
            "url": "https://www.ncbi.nlm.nih.gov/pubmed?term=Hydroquinone+dimethyl+ether%20AND%20human%5Bmh%5D%20AND%20%28Occupational%20Diseases%20%5Bmh%5D%20OR%20Occupational%20Exposure%20%5Bmh%5D%29%20%20AND%20%28tox%5Bsb%5D%29&cmd=search"
          }
        ],
        "cross_references": []
      }
    },
    "exposure_assessment": {
      "vapor_pressure": {
        "original_name": "Vapor Pressure",
        "value": "0.087 mm Hg",
        "links": [],
        "cross_references": []
      },
      "explanatory_notes": {
        "original_name": "Explanatory Notes",
        "value": "VP from ChemIDplus;",
        "links": [],
        "cross_references": []
      }
    },
    "adverse_effects": {
      "neurotoxin": {
        "original_name": "Neurotoxin",
        "value": "Acute solvent syndrome",
        "links": [],
        "cross_references": []
      }
    },
    "diseases_processes_and_activities_linked_to_this_agent": {
      "diseases": {
        "original_name": "Diseases",
        "value": "Occupational diseases associated with exposure to this agent: Solvents, acute toxic effect",
        "links": [
          {
            "text": "Solvents, acute toxic effect",
            "url": "https://haz-map.com/Diseases/326"
          }
        ],
        "cross_references": [
          {
            "type": "url_match",
            "text": "Solvents, acute toxic effect",
            "url": "https://haz-map.com/Diseases/326",
            "confidence": 1.0,
            "uuid": "581e90e3-9d0c-45f0-aa6c-3468c28da129",
            "name": "Solvents, acute toxic effect",
            "category": "diseases"
          }
        ]
      },
      "processes": {
        "original_name": "Processes",
        "value": "Industrial Processes with risk of exposure: Painting (Pigments, Binders, and Biocides)",
        "links": [
          {
            "text": "Painting (Pigments, Binders, and Biocides)",
            "url": "https://haz-map.com/Processes/145"
          }
        ],
        "cross_references": [
          {
            "type": "url_match",
            "text": "Painting (Pigments, Binders, and Biocides)",
            "url": "https://haz-map.com/Processes/145",
            "confidence": 1.0,
            "uuid": "25867878-e178-4c21-906f-d392d86b76de",
            "name": "Painting (Pigments, Binders, and Biocides)",
            "category": "processes"
          },
          {
            "type": "name_match",
            "text": "painting",
            "confidence": 1.0,
            "uuid": "19816ce9-9edf-4a86-8e64-b0cbf7dcf520",
            "name": "Painting",
            "url": "https://haz-map.com/Activities/9",
            "category": "activities"
          }
        ]
      }
    }
  },
  "cross_references": [
    {
      "type": "url_match",
      "text": "Solvents, acute toxic effect",
      "url": "https://haz-map.com/Diseases/326",
      "confidence": 1.0,
      "uuid": "581e90e3-9d0c-45f0-aa6c-3468c28da129",
      "name": "Solvents, acute toxic effect",
      "category": "diseases"
    },
    {
      "type": "url_match",
      "text": "Painting (Pigments, Binders, and Biocides)",
      "url": "https://haz-map.com/Processes/145",
      "confidence": 1.0,
      "uuid": "25867878-e178-4c21-906f-d392d86b76de",
      "name": "Painting (Pigments, Binders, and Biocides)",
      "category": "processes"
    },
    {
      "type": "name_match",
      "text": "painting",
      "confidence": 1.0,
      "uuid": "19816ce9-9edf-4a86-8e64-b0cbf7dcf520",
      "name": "Painting",
      "url": "https://haz-map.com/Activities/9",
      "category": "activities"
    },
    {
      "type": "name_match",
      "text": "benzene",
      "confidence": 1.0,
      "uuid": "b05124de-5f34-4c14-8f04-ccb20c3780d9",
      "name": "Benzene",
      "url": "https://haz-map.com/Agents/5",
      "category": "agents"
    },
    {
      "type": "name_match",
      "text": "quinone",
      "confidence": 1.0,
      "uuid": "d01e66c3-ad06-4707-8d42-3c6655001c1a",
      "name": "Quinone",
      "url": "https://haz-map.com/Agents/303",
      "category": "agents"
    },
    {
      "type": "name_match",
      "text": "ethyl ether",
      "confidence": 1.0,
      "uuid": "c95edddc-9ad3-44f8-bafa-78e0bd19db3a",
      "name": "Ethyl ether",
      "url": "https://haz-map.com/Agents/455",
      "category": "agents"
    },
    {
      "type": "name_match",
      "text": "hydroquinone",
      "confidence": 1.0,
      "uuid": "814158df-432a-4bfa-b22a-481088e15397",
      "name": "Hydroquinone",
      "url": "https://haz-map.com/Agents/518",
      "category": "agents"
    },
    {
      "type": "name_match",
      "text": "phenyl ether",
      "confidence": 1.0,
      "uuid": "063d5590-1868-48d4-a62d-7f1f2e8cf6d4",
      "name": "Phenyl ether",
      "url": "https://haz-map.com/Agents/591",
      "category": "agents"
    },
    {
      "type": "name_match",
      "text": "dimethyl ether",
      "confidence": 1.0,
      "uuid": "a12a0b82-a115-4243-98a7-3e9a2c4700ed",
      "name": "Dimethyl ether",
      "url": "https://haz-map.com/Agents/1483",
      "category": "agents"
    },
    {
      "type": "name_match",
      "text": "anisole",
      "confidence": 1.0,
      "uuid": "f122d940-2dba-441c-9dbf-c185355d4cb0",
      "name": "Anisole",
      "url": "https://haz-map.com/Agents/3708",
      "category": "agents"
    },
    {
      "type": "name_match",
      "text": "hydroquinone dimethyl ether",
      "confidence": 1.0,
      "uuid": "bed740c5-e34d-48c0-829c-b332d70ad3f5",
      "name": "Hydroquinone dimethyl ether",
      "url": "https://haz-map.com/Agents/5576",
      "category": "agents"
    },
    {
      "type": "fuzzy_match",
      "text": "crystalline",
      "matched_name": "Silica, crystalline",
      "confidence": 0.7061403508771931,
      "uuid": "f920e8a2-46df-41b7-af8d-0368a777251e",
      "category": "agents",
      "url": "https://haz-map.com/Agents/427"
    }
  ],
  "all_links": [
    {
      "text": "Search PubMed",
      "url": "https://www.ncbi.nlm.nih.gov/pubmed?term=Hydroquinone+dimethyl+ether%20AND%20human%5Bmh%5D%20AND%20%28Occupational%20Diseases%20%5Bmh%5D%20OR%20Occupational%20Exposure%20%5Bmh%5D%29%20%20AND%20%28tox%5Bsb%5D%29&cmd=search"
    },
    {
      "text": "Solvents, acute toxic effect",
      "url": "https://haz-map.com/Diseases/326"
    },
    {
      "text": "Painting (Pigments, Binders, and Biocides)",
      "url": "https://haz-map.com/Processes/145"
    }
  ]
}