{
  "metadata": {
    "scraped_from": "https://haz-map.com/Agents/7465",
    "entity_name": "Toluenesulfonamide",
    "category": "agents",
    "uuid": "bf0cba41-3611-4558-8902-0bc6be119c60",
    "scraped_at": "2025-07-23T20:12:53.751589"
  },
  "parsed_at": "2025-07-24T01:09:11.706419",
  "title": "Toluenesulfonamide",
  "sections": {
    "general": {
      "agent_name": {
        "original_name": "Agent Name",
        "value": "Toluenesulfonamide",
        "links": [],
        "cross_references": [
          {
            "type": "name_match",
            "text": "toluene",
            "confidence": 1.0,
            "uuid": "0a34d5de-e924-4c47-aff5-7ae8e48c6772",
            "name": "Toluene",
            "url": "https://haz-map.com/Agents/83",
            "category": "agents"
          },
          {
            "type": "name_match",
            "text": "toluenesulfonamide",
            "confidence": 1.0,
            "uuid": "bf0cba41-3611-4558-8902-0bc6be119c60",
            "name": "Toluenesulfonamide",
            "url": "https://haz-map.com/Agents/7465",
            "category": "agents"
          }
        ]
      },
      "cas_number": {
        "original_name": "CAS Number",
        "value": "1333-07-9",
        "links": [],
        "cross_references": []
      },
      "formula": {
        "original_name": "Formula",
        "value": "C7-H9-N-O2-S",
        "links": [],
        "cross_references": []
      },
      "major_category": {
        "original_name": "Major Category",
        "value": "Nitrogen Compounds",
        "links": [],
        "cross_references": [
          {
            "type": "name_match",
            "text": "nitrogen",
            "confidence": 1.0,
            "uuid": "db5e90a9-06d2-45b9-8b81-f345a89b0bc0",
            "name": "Nitrogen",
            "url": "https://haz-map.com/Agents/1072",
            "category": "agents"
          }
        ]
      },
      "synonyms": {
        "original_name": "Synonyms",
        "value": "Benzenesulfonamide, ar-methyl-; ar-Toluenesulfonamide; [ChemIDplus]",
        "links": [],
        "cross_references": [
          {
            "type": "name_match",
            "text": "benzene",
            "confidence": 1.0,
            "uuid": "b05124de-5f34-4c14-8f04-ccb20c3780d9",
            "name": "Benzene",
            "url": "https://haz-map.com/Agents/5",
            "category": "agents"
          },
          {
            "type": "name_match",
            "text": "toluene",
            "confidence": 1.0,
            "uuid": "0a34d5de-e924-4c47-aff5-7ae8e48c6772",
            "name": "Toluene",
            "url": "https://haz-map.com/Agents/83",
            "category": "agents"
          },
          {
            "type": "name_match",
            "text": "toluenesulfonamide",
            "confidence": 1.0,
            "uuid": "bf0cba41-3611-4558-8902-0bc6be119c60",
            "name": "Toluenesulfonamide",
            "url": "https://haz-map.com/Agents/7465",
            "category": "agents"
          },
          {
            "type": "name_match",
            "text": "benzenesulfonamide",
            "confidence": 1.0,
            "uuid": "66d8b92e-3d51-4461-ac5b-4ff3501d45e5",
            "name": "Benzenesulfonamide",
            "url": "https://haz-map.com/Agents/20287",
            "category": "agents"
          }
        ]
      },
      "category": {
        "original_name": "Category",
        "value": "Sulfonamides",
        "links": [],
        "cross_references": []
      },
      "description": {
        "original_name": "Description",
        "value": "White to light cream-colored crystalline flakes; [MSDSonline]",
        "links": [],
        "cross_references": [
          {
            "type": "name_match",
            "text": "ht",
            "confidence": 1.0,
            "uuid": "764df367-8d53-4a11-81a2-31ccfe122a8d",
            "name": "HT",
            "url": "https://haz-map.com/Agents/2168",
            "category": "agents"
          },
          {
            "type": "fuzzy_match",
            "text": "crystalline",
            "matched_name": "Silica, crystalline",
            "confidence": 0.7061403508771931,
            "uuid": "f920e8a2-46df-41b7-af8d-0368a777251e",
            "category": "agents",
            "url": "https://haz-map.com/Agents/427"
          }
        ]
      },
      "sourcesuses": {
        "original_name": "Sources/Uses",
        "value": "Used as a surfactant and intermediate for fluorescent pigments and plasticizer resins; Mixtures of o- and p-isomers used as plasticizers and in adhesives for food contact; [HSDB] Commercial product is a mixture of 40% o-, 60% p- isomers; [MSDSonline]",
        "links": [],
        "cross_references": []
      },
      "comments": {
        "original_name": "Comments",
        "value": "May cause eye irritation; [MSDSonline] See \"p-Toluenesulfonamide\" and \"o-Toluenesulfonamide.\"",
        "links": [],
        "cross_references": [
          {
            "type": "name_match",
            "text": "toluene",
            "confidence": 1.0,
            "uuid": "0a34d5de-e924-4c47-aff5-7ae8e48c6772",
            "name": "Toluene",
            "url": "https://haz-map.com/Agents/83",
            "category": "agents"
          },
          {
            "type": "name_match",
            "text": "o-toluenesulfonamide",
            "confidence": 1.0,
            "uuid": "5925e8b9-b62b-484b-9ab0-5ed349087d0f",
            "name": "o-Toluenesulfonamide",
            "url": "https://haz-map.com/Agents/6420",
            "category": "agents"
          },
          {
            "type": "name_match",
            "text": "p-toluenesulfonamide",
            "confidence": 1.0,
            "uuid": "16e0440c-0427-4f47-af29-507771d3eecd",
            "name": "p-Toluenesulfonamide",
            "url": "https://haz-map.com/Agents/6512",
            "category": "agents"
          },
          {
            "type": "name_match",
            "text": "toluenesulfonamide",
            "confidence": 1.0,
            "uuid": "bf0cba41-3611-4558-8902-0bc6be119c60",
            "name": "Toluenesulfonamide",
            "url": "https://haz-map.com/Agents/7465",
            "category": "agents"
          }
        ]
      },
      "biomedical_references": {
        "original_name": "Biomedical References",
        "value": "Search PubMed",
        "links": [
          {
            "text": "Search PubMed",
            "url": "https://www.ncbi.nlm.nih.gov/pubmed?term=Toluenesulfonamide%20AND%20human%5Bmh%5D%20AND%20%28Occupational%20Diseases%20%5Bmh%5D%20OR%20Occupational%20Exposure%20%5Bmh%5D%29%20%20AND%20%28tox%5Bsb%5D%29&cmd=search"
          }
        ],
        "cross_references": []
      }
    },
    "exposure_assessment": {
      "vapor_pressure": {
        "original_name": "Vapor Pressure",
        "value": "0.000306 mm Hg",
        "links": [],
        "cross_references": []
      }
    },
    "diseases_processes_and_activities_linked_to_this_agent": {
      "processes": {
        "original_name": "Processes",
        "value": "Industrial Processes with risk of exposure: Working with Glues and Adhesives",
        "links": [
          {
            "text": "Working with Glues and Adhesives",
            "url": "https://haz-map.com/Processes/155"
          }
        ],
        "cross_references": [
          {
            "type": "url_match",
            "text": "Working with Glues and Adhesives",
            "url": "https://haz-map.com/Processes/155",
            "confidence": 1.0,
            "uuid": "acb9084f-52e8-4687-bd6a-bced94bda834",
            "name": "Working with Glues and Adhesives",
            "category": "processes"
          }
        ]
      }
    }
  },
  "cross_references": [
    {
      "type": "url_match",
      "text": "Working with Glues and Adhesives",
      "url": "https://haz-map.com/Processes/155",
      "confidence": 1.0,
      "uuid": "acb9084f-52e8-4687-bd6a-bced94bda834",
      "name": "Working with Glues and Adhesives",
      "category": "processes"
    },
    {
      "type": "name_match",
      "text": "benzene",
      "confidence": 1.0,
      "uuid": "b05124de-5f34-4c14-8f04-ccb20c3780d9",
      "name": "Benzene",
      "url": "https://haz-map.com/Agents/5",
      "category": "agents"
    },
    {
      "type": "name_match",
      "text": "toluene",
      "confidence": 1.0,
      "uuid": "0a34d5de-e924-4c47-aff5-7ae8e48c6772",
      "name": "Toluene",
      "url": "https://haz-map.com/Agents/83",
      "category": "agents"
    },
    {
      "type": "name_match",
      "text": "nitrogen",
      "confidence": 1.0,
      "uuid": "db5e90a9-06d2-45b9-8b81-f345a89b0bc0",
      "name": "Nitrogen",
      "url": "https://haz-map.com/Agents/1072",
      "category": "agents"
    },
    {
      "type": "name_match",
      "text": "ht",
      "confidence": 1.0,
      "uuid": "764df367-8d53-4a11-81a2-31ccfe122a8d",
      "name": "HT",
      "url": "https://haz-map.com/Agents/2168",
      "category": "agents"
    },
    {
      "type": "name_match",
      "text": "o-toluenesulfonamide",
      "confidence": 1.0,
      "uuid": "5925e8b9-b62b-484b-9ab0-5ed349087d0f",
      "name": "o-Toluenesulfonamide",
      "url": "https://haz-map.com/Agents/6420",
      "category": "agents"
    },
    {
      "type": "name_match",
      "text": "p-toluenesulfonamide",
      "confidence": 1.0,
      "uuid": "16e0440c-0427-4f47-af29-507771d3eecd",
      "name": "p-Toluenesulfonamide",
      "url": "https://haz-map.com/Agents/6512",
      "category": "agents"
    },
    {
      "type": "name_match",
      "text": "toluenesulfonamide",
      "confidence": 1.0,
      "uuid": "bf0cba41-3611-4558-8902-0bc6be119c60",
      "name": "Toluenesulfonamide",
      "url": "https://haz-map.com/Agents/7465",
      "category": "agents"
    },
    {
      "type": "name_match",
      "text": "benzenesulfonamide",
      "confidence": 1.0,
      "uuid": "66d8b92e-3d51-4461-ac5b-4ff3501d45e5",
      "name": "Benzenesulfonamide",
      "url": "https://haz-map.com/Agents/20287",
      "category": "agents"
    },
    {
      "type": "fuzzy_match",
      "text": "crystalline",
      "matched_name": "Silica, crystalline",
      "confidence": 0.7061403508771931,
      "uuid": "f920e8a2-46df-41b7-af8d-0368a777251e",
      "category": "agents",
      "url": "https://haz-map.com/Agents/427"
    }
  ],
  "all_links": [
    {
      "text": "Search PubMed",
      "url": "https://www.ncbi.nlm.nih.gov/pubmed?term=Toluenesulfonamide%20AND%20human%5Bmh%5D%20AND%20%28Occupational%20Diseases%20%5Bmh%5D%20OR%20Occupational%20Exposure%20%5Bmh%5D%29%20%20AND%20%28tox%5Bsb%5D%29&cmd=search"
    },
    {
      "text": "Working with Glues and Adhesives",
      "url": "https://haz-map.com/Processes/155"
    }
  ]
}