{
  "metadata": {
    "scraped_from": "https://haz-map.com/Agents/1381",
    "entity_name": "N-Benzyl dimethylamine",
    "category": "agents",
    "uuid": "bf2141f5-37d2-42b6-8e47-f8bdb89ede99",
    "scraped_at": "2025-07-23T18:57:48.460063"
  },
  "parsed_at": "2025-07-24T01:06:09.226793",
  "title": "N-Benzyl dimethylamine",
  "sections": {
    "general": {
      "agent_name": {
        "original_name": "Agent Name",
        "value": "N-Benzyl dimethylamine",
        "links": [],
        "cross_references": [
          {
            "type": "name_match",
            "text": "methylamine",
            "confidence": 1.0,
            "uuid": "7c3781b5-5294-474a-a015-e59574d00b69",
            "name": "Methylamine",
            "url": "https://haz-map.com/Agents/217",
            "category": "agents"
          },
          {
            "type": "name_match",
            "text": "dimethylamine",
            "confidence": 1.0,
            "uuid": "8b0c8378-7df0-486c-ae0f-b4ea920d8f83",
            "name": "Dimethylamine",
            "url": "https://haz-map.com/Agents/218",
            "category": "agents"
          },
          {
            "type": "name_match",
            "text": "ethylamine",
            "confidence": 1.0,
            "uuid": "41ca4da8-b990-420a-86b2-3d77404fb7f4",
            "name": "Ethylamine",
            "url": "https://haz-map.com/Agents/220",
            "category": "agents"
          },
          {
            "type": "name_match",
            "text": "n-benzyl dimethylamine",
            "confidence": 1.0,
            "uuid": "bf2141f5-37d2-42b6-8e47-f8bdb89ede99",
            "name": "N-Benzyl dimethylamine",
            "url": "https://haz-map.com/Agents/1381",
            "category": "agents"
          }
        ]
      },
      "alternative_name": {
        "original_name": "Alternative Name",
        "value": "N,N-Dimethylbenzylamine",
        "links": [],
        "cross_references": [
          {
            "type": "name_match",
            "text": "benzylamine",
            "confidence": 1.0,
            "uuid": "e3ff102c-c372-46ae-ab9f-a1fd3d630249",
            "name": "Benzylamine",
            "url": "https://haz-map.com/Agents/1380",
            "category": "agents"
          }
        ]
      },
      "cas_number": {
        "original_name": "CAS Number",
        "value": "103-83-3",
        "links": [],
        "cross_references": []
      },
      "formula": {
        "original_name": "Formula",
        "value": "C9-H13-N",
        "links": [],
        "cross_references": []
      },
      "major_category": {
        "original_name": "Major Category",
        "value": "Nitrogen Compounds",
        "links": [],
        "cross_references": [
          {
            "type": "name_match",
            "text": "nitrogen",
            "confidence": 1.0,
            "uuid": "db5e90a9-06d2-45b9-8b81-f345a89b0bc0",
            "name": "Nitrogen",
            "url": "https://haz-map.com/Agents/1072",
            "category": "agents"
          }
        ]
      },
      "synonyms": {
        "original_name": "Synonyms",
        "value": "Araldite accelerator 062; BDMA; Benzyl-N,N-dimethylamine; Dimethylbenzylamine; N,N-Dimethyl-N-benzylamine; N,N-Dimethylbenzenemethanamine; N,N-Dimethylbenzylamine; N-(Phenylmethyl)dimethylamine; N-Benzyldimethylamine; Sumine 2015; [ChemIDplus]UN2619",
        "links": [],
        "cross_references": [
          {
            "type": "name_match",
            "text": "benzene",
            "confidence": 1.0,
            "uuid": "b05124de-5f34-4c14-8f04-ccb20c3780d9",
            "name": "Benzene",
            "url": "https://haz-map.com/Agents/5",
            "category": "agents"
          },
          {
            "type": "name_match",
            "text": "methylamine",
            "confidence": 1.0,
            "uuid": "7c3781b5-5294-474a-a015-e59574d00b69",
            "name": "Methylamine",
            "url": "https://haz-map.com/Agents/217",
            "category": "agents"
          },
          {
            "type": "name_match",
            "text": "dimethylamine",
            "confidence": 1.0,
            "uuid": "8b0c8378-7df0-486c-ae0f-b4ea920d8f83",
            "name": "Dimethylamine",
            "url": "https://haz-map.com/Agents/218",
            "category": "agents"
          },
          {
            "type": "name_match",
            "text": "ethylamine",
            "confidence": 1.0,
            "uuid": "41ca4da8-b990-420a-86b2-3d77404fb7f4",
            "name": "Ethylamine",
            "url": "https://haz-map.com/Agents/220",
            "category": "agents"
          },
          {
            "type": "name_match",
            "text": "benzylamine",
            "confidence": 1.0,
            "uuid": "e3ff102c-c372-46ae-ab9f-a1fd3d630249",
            "name": "Benzylamine",
            "url": "https://haz-map.com/Agents/1380",
            "category": "agents"
          }
        ]
      },
      "category": {
        "original_name": "Category",
        "value": "Amines, Aromatic",
        "links": [],
        "cross_references": []
      },
      "description": {
        "original_name": "Description",
        "value": "Clear to yellow liquid with a strong odor; [NJ-HSFS]",
        "links": [],
        "cross_references": []
      },
      "sourcesuses": {
        "original_name": "Sources/Uses",
        "value": "Used as a curing agent for epoxy resins; [Kanerva, p. 566] Used to manufacture adhesives and other chemicals; [CAMEO]",
        "links": [],
        "cross_references": [
          {
            "type": "name_match",
            "text": "epoxy resins",
            "confidence": 1.0,
            "uuid": "4724cfe8-e98a-4ee6-a6de-25e8d9534e62",
            "name": "EPOXY RESINS",
            "url": "https://haz-map.com/Agents/30",
            "category": "agents"
          },
          {
            "type": "name_match",
            "text": "mica",
            "confidence": 1.0,
            "uuid": "433f26f1-c399-4596-b179-ce3843cfd465",
            "name": "Mica",
            "url": "https://haz-map.com/Agents/621",
            "category": "agents"
          }
        ]
      },
      "comments": {
        "original_name": "Comments",
        "value": "Corrosive to skin; [Quick CPC] A corrosive substance that can cause pulmonary edema; [ICSC]",
        "links": [],
        "cross_references": [
          {
            "type": "name_match",
            "text": "pulmonary edema",
            "confidence": 1.0,
            "uuid": "ee39114e-c922-40fd-9588-a532de404962",
            "name": "pulmonary edema",
            "url": "https://haz-map.com/Findings/186",
            "category": "findings"
          }
        ]
      },
      "biomedical_references": {
        "original_name": "Biomedical References",
        "value": "Search PubMed",
        "links": [
          {
            "text": "Search PubMed",
            "url": "https://www.ncbi.nlm.nih.gov/pubmed?term=N-Benzyl+dimethylamine%20AND%20human%5Bmh%5D%20AND%20%28Occupational%20Diseases%20%5Bmh%5D%20OR%20Occupational%20Exposure%20%5Bmh%5D%29%20%20AND%20%28tox%5Bsb%5D%29&cmd=search"
          }
        ],
        "cross_references": []
      }
    },
    "exposure_assessment": {
      "vapor_pressure": {
        "original_name": "Vapor Pressure",
        "value": "0.587 mm Hg",
        "links": [],
        "cross_references": []
      },
      "lethal_concentration": {
        "original_name": "Lethal Concentration",
        "value": "LCLo (rat) = 1,200 mg/m3/2H",
        "links": [],
        "cross_references": []
      },
      "explanatory_notes": {
        "original_name": "Explanatory Notes",
        "value": "Flash point = 140 deg F;",
        "links": [],
        "cross_references": [
          {
            "type": "name_match",
            "text": "ash",
            "confidence": 1.0,
            "uuid": "68b360f1-5ad0-4337-bea0-d7adca2961b5",
            "name": "Ash",
            "url": "https://haz-map.com/Agents/965",
            "category": "agents"
          }
        ]
      },
      "reference_link_2": {
        "original_name": "Reference Link #2",
        "value": "ICSC: Benzyldimethylamine",
        "links": [
          {
            "text": "ICSC: Benzyldimethylamine",
            "url": "https://www.ilo.org/dyn/icsc/showcard.display?p_lang=en&p_card_id=1340&p_version=2"
          }
        ],
        "cross_references": [
          {
            "type": "name_match",
            "text": "methylamine",
            "confidence": 1.0,
            "uuid": "7c3781b5-5294-474a-a015-e59574d00b69",
            "name": "Methylamine",
            "url": "https://haz-map.com/Agents/217",
            "category": "agents"
          },
          {
            "type": "name_match",
            "text": "dimethylamine",
            "confidence": 1.0,
            "uuid": "8b0c8378-7df0-486c-ae0f-b4ea920d8f83",
            "name": "Dimethylamine",
            "url": "https://haz-map.com/Agents/218",
            "category": "agents"
          },
          {
            "type": "name_match",
            "text": "ethylamine",
            "confidence": 1.0,
            "uuid": "41ca4da8-b990-420a-86b2-3d77404fb7f4",
            "name": "Ethylamine",
            "url": "https://haz-map.com/Agents/220",
            "category": "agents"
          }
        ]
      },
      "nfpa": {
        "original_name": "NFPA",
        "value": "high ambient temp required",
        "links": [],
        "cross_references": []
      }
    },
    "adverse_effects": {
      "toxic_pneumonitis": {
        "original_name": "Toxic Pneumonitis",
        "value": "Yes",
        "links": [],
        "cross_references": []
      },
      "dermatotoxin": {
        "original_name": "Dermatotoxin",
        "value": "Skin burns",
        "links": [],
        "cross_references": [
          {
            "type": "name_match",
            "text": "burn",
            "confidence": 1.0,
            "uuid": "63665de5-6376-4918-8dbf-4c10c4d63837",
            "name": "burn",
            "url": "https://haz-map.com/Findings/204",
            "category": "findings"
          }
        ]
      }
    },
    "diseases_processes_and_activities_linked_to_this_agent": {
      "processes": {
        "original_name": "Processes",
        "value": "Industrial Processes with risk of exposure: Plastic Composites Manufacturing",
        "links": [
          {
            "text": "Plastic Composites Manufacturing",
            "url": "https://haz-map.com/Processes/222"
          }
        ],
        "cross_references": [
          {
            "type": "url_match",
            "text": "Plastic Composites Manufacturing",
            "url": "https://haz-map.com/Processes/222",
            "confidence": 1.0,
            "uuid": "d4461b82-dc77-4172-8e3d-0a5e3b213911",
            "name": "Plastic Composites Manufacturing",
            "category": "processes"
          }
        ]
      }
    }
  },
  "cross_references": [
    {
      "type": "url_match",
      "text": "Plastic Composites Manufacturing",
      "url": "https://haz-map.com/Processes/222",
      "confidence": 1.0,
      "uuid": "d4461b82-dc77-4172-8e3d-0a5e3b213911",
      "name": "Plastic Composites Manufacturing",
      "category": "processes"
    },
    {
      "type": "name_match",
      "text": "pulmonary edema",
      "confidence": 1.0,
      "uuid": "ee39114e-c922-40fd-9588-a532de404962",
      "name": "pulmonary edema",
      "url": "https://haz-map.com/Findings/186",
      "category": "findings"
    },
    {
      "type": "name_match",
      "text": "burn",
      "confidence": 1.0,
      "uuid": "63665de5-6376-4918-8dbf-4c10c4d63837",
      "name": "burn",
      "url": "https://haz-map.com/Findings/204",
      "category": "findings"
    },
    {
      "type": "name_match",
      "text": "benzene",
      "confidence": 1.0,
      "uuid": "b05124de-5f34-4c14-8f04-ccb20c3780d9",
      "name": "Benzene",
      "url": "https://haz-map.com/Agents/5",
      "category": "agents"
    },
    {
      "type": "name_match",
      "text": "epoxy resins",
      "confidence": 1.0,
      "uuid": "4724cfe8-e98a-4ee6-a6de-25e8d9534e62",
      "name": "EPOXY RESINS",
      "url": "https://haz-map.com/Agents/30",
      "category": "agents"
    },
    {
      "type": "name_match",
      "text": "methylamine",
      "confidence": 1.0,
      "uuid": "7c3781b5-5294-474a-a015-e59574d00b69",
      "name": "Methylamine",
      "url": "https://haz-map.com/Agents/217",
      "category": "agents"
    },
    {
      "type": "name_match",
      "text": "dimethylamine",
      "confidence": 1.0,
      "uuid": "8b0c8378-7df0-486c-ae0f-b4ea920d8f83",
      "name": "Dimethylamine",
      "url": "https://haz-map.com/Agents/218",
      "category": "agents"
    },
    {
      "type": "name_match",
      "text": "ethylamine",
      "confidence": 1.0,
      "uuid": "41ca4da8-b990-420a-86b2-3d77404fb7f4",
      "name": "Ethylamine",
      "url": "https://haz-map.com/Agents/220",
      "category": "agents"
    },
    {
      "type": "name_match",
      "text": "mica",
      "confidence": 1.0,
      "uuid": "433f26f1-c399-4596-b179-ce3843cfd465",
      "name": "Mica",
      "url": "https://haz-map.com/Agents/621",
      "category": "agents"
    },
    {
      "type": "name_match",
      "text": "ash",
      "confidence": 1.0,
      "uuid": "68b360f1-5ad0-4337-bea0-d7adca2961b5",
      "name": "Ash",
      "url": "https://haz-map.com/Agents/965",
      "category": "agents"
    },
    {
      "type": "name_match",
      "text": "nitrogen",
      "confidence": 1.0,
      "uuid": "db5e90a9-06d2-45b9-8b81-f345a89b0bc0",
      "name": "Nitrogen",
      "url": "https://haz-map.com/Agents/1072",
      "category": "agents"
    },
    {
      "type": "name_match",
      "text": "benzylamine",
      "confidence": 1.0,
      "uuid": "e3ff102c-c372-46ae-ab9f-a1fd3d630249",
      "name": "Benzylamine",
      "url": "https://haz-map.com/Agents/1380",
      "category": "agents"
    },
    {
      "type": "name_match",
      "text": "n-benzyl dimethylamine",
      "confidence": 1.0,
      "uuid": "bf2141f5-37d2-42b6-8e47-f8bdb89ede99",
      "name": "N-Benzyl dimethylamine",
      "url": "https://haz-map.com/Agents/1381",
      "category": "agents"
    }
  ],
  "all_links": [
    {
      "text": "Search PubMed",
      "url": "https://www.ncbi.nlm.nih.gov/pubmed?term=N-Benzyl+dimethylamine%20AND%20human%5Bmh%5D%20AND%20%28Occupational%20Diseases%20%5Bmh%5D%20OR%20Occupational%20Exposure%20%5Bmh%5D%29%20%20AND%20%28tox%5Bsb%5D%29&cmd=search"
    },
    {
      "text": "ICSC: Benzyldimethylamine",
      "url": "https://www.ilo.org/dyn/icsc/showcard.display?p_lang=en&p_card_id=1340&p_version=2"
    },
    {
      "text": "Plastic Composites Manufacturing",
      "url": "https://haz-map.com/Processes/222"
    }
  ]
}