{
  "metadata": {
    "scraped_from": "https://haz-map.com/Agents/19550",
    "entity_name": "2-Butenedioic acid (Z)-, homopolymer",
    "category": "agents",
    "uuid": "bf2b30cd-7536-4113-a4bb-a71174899cc1",
    "scraped_at": "2025-07-23T22:08:23.059542"
  },
  "parsed_at": "2025-07-24T01:00:09.044774",
  "title": "2-Butenedioic acid (Z)-, homopolymer",
  "sections": {
    "general": {
      "agent_name": {
        "original_name": "Agent Name",
        "value": "2-Butenedioic acid (Z)-, homopolymer",
        "links": [],
        "cross_references": [
          {
            "type": "name_match",
            "text": "2-butenedioic acid (z)-, homopolymer",
            "confidence": 1.0,
            "uuid": "bf2b30cd-7536-4113-a4bb-a71174899cc1",
            "name": "2-Butenedioic acid (Z)-, homopolymer",
            "url": "https://haz-map.com/Agents/19550",
            "category": "agents"
          }
        ]
      },
      "cas_number": {
        "original_name": "CAS Number",
        "value": "26099-09-2",
        "links": [],
        "cross_references": []
      },
      "formula": {
        "original_name": "Formula",
        "value": "(C4-H4-O4)x-",
        "links": [],
        "cross_references": []
      },
      "major_category": {
        "original_name": "Major Category",
        "value": "Plastics & Rubber",
        "links": [],
        "cross_references": []
      },
      "synonyms": {
        "original_name": "Synonyms",
        "value": "Maleic acid homopolymer; Maleic acid, polymers; Polymaleic acid; 2-Butenedioic acid (2Z)-, homopolymer; Poly(maleic acid); [ChemIDplus] KVAP 200 ANTISCALANT; [Emerald Performance Materials MSDS] UN3265",
        "links": [],
        "cross_references": [
          {
            "type": "name_match",
            "text": "maleic acid",
            "confidence": 1.0,
            "uuid": "18b68dff-5121-4f02-829b-b329f6cfec78",
            "name": "Maleic acid",
            "url": "https://haz-map.com/Agents/8378",
            "category": "agents"
          }
        ]
      },
      "category": {
        "original_name": "Category",
        "value": "Polymers",
        "links": [],
        "cross_references": []
      },
      "description": {
        "original_name": "Description",
        "value": "Hazy amber liquid with a mild odor; [Emerald Performance Materials MSDS]",
        "links": [],
        "cross_references": []
      },
      "sourcesuses": {
        "original_name": "Sources/Uses",
        "value": "Permitted for use as an inert ingredient in non-food pesticide products; [EPA] Used as a processing aid foods; [FDA] Used for foam control; [Emerald Performance Materials MSDS]",
        "links": [],
        "cross_references": []
      },
      "comments": {
        "original_name": "Comments",
        "value": "Causes burns; [Emerald Performance Materials MSDS] See \"Maleic acid.\"",
        "links": [],
        "cross_references": [
          {
            "type": "name_match",
            "text": "burn",
            "confidence": 1.0,
            "uuid": "63665de5-6376-4918-8dbf-4c10c4d63837",
            "name": "burn",
            "url": "https://haz-map.com/Findings/204",
            "category": "findings"
          },
          {
            "type": "name_match",
            "text": "maleic acid",
            "confidence": 1.0,
            "uuid": "18b68dff-5121-4f02-829b-b329f6cfec78",
            "name": "Maleic acid",
            "url": "https://haz-map.com/Agents/8378",
            "category": "agents"
          }
        ]
      },
      "biomedical_references": {
        "original_name": "Biomedical References",
        "value": "Search PubMed",
        "links": [
          {
            "text": "Search PubMed",
            "url": "https://www.ncbi.nlm.nih.gov/pubmed?term=2-Butenedioic+acid+(Z)-%2c+homopolymer%20AND%20human%5Bmh%5D%20AND%20%28Occupational%20Diseases%20%5Bmh%5D%20OR%20Occupational%20Exposure%20%5Bmh%5D%29%20%20AND%20%28tox%5Bsb%5D%29&cmd=search"
          }
        ],
        "cross_references": []
      }
    },
    "exposure_assessment": {
      "vapor_pressure": {
        "original_name": "Vapor Pressure",
        "value": "10 mm Hg",
        "links": [],
        "cross_references": []
      },
      "explanatory_notes": {
        "original_name": "Explanatory Notes",
        "value": "The Guide in the Emergency Response Guidebook is for \"Corrosive liquid, acidic, organic, n.o.s.\"",
        "links": [],
        "cross_references": []
      }
    },
    "adverse_effects": {
      "dermatotoxin": {
        "original_name": "Dermatotoxin",
        "value": "Skin burns",
        "links": [],
        "cross_references": [
          {
            "type": "name_match",
            "text": "burn",
            "confidence": 1.0,
            "uuid": "63665de5-6376-4918-8dbf-4c10c4d63837",
            "name": "burn",
            "url": "https://haz-map.com/Findings/204",
            "category": "findings"
          }
        ]
      }
    },
    "diseases_processes_and_activities_linked_to_this_agent": {
      "other_information": {
        "original_name": "Other Information",
        "value": "No other related information on this agent was found.",
        "links": [],
        "cross_references": []
      }
    }
  },
  "cross_references": [
    {
      "type": "name_match",
      "text": "burn",
      "confidence": 1.0,
      "uuid": "63665de5-6376-4918-8dbf-4c10c4d63837",
      "name": "burn",
      "url": "https://haz-map.com/Findings/204",
      "category": "findings"
    },
    {
      "type": "name_match",
      "text": "maleic acid",
      "confidence": 1.0,
      "uuid": "18b68dff-5121-4f02-829b-b329f6cfec78",
      "name": "Maleic acid",
      "url": "https://haz-map.com/Agents/8378",
      "category": "agents"
    },
    {
      "type": "name_match",
      "text": "2-butenedioic acid (z)-, homopolymer",
      "confidence": 1.0,
      "uuid": "bf2b30cd-7536-4113-a4bb-a71174899cc1",
      "name": "2-Butenedioic acid (Z)-, homopolymer",
      "url": "https://haz-map.com/Agents/19550",
      "category": "agents"
    }
  ],
  "all_links": [
    {
      "text": "Search PubMed",
      "url": "https://www.ncbi.nlm.nih.gov/pubmed?term=2-Butenedioic+acid+(Z)-%2c+homopolymer%20AND%20human%5Bmh%5D%20AND%20%28Occupational%20Diseases%20%5Bmh%5D%20OR%20Occupational%20Exposure%20%5Bmh%5D%29%20%20AND%20%28tox%5Bsb%5D%29&cmd=search"
    }
  ]
}