{
  "metadata": {
    "scraped_from": "https://haz-map.com/Agents/19625",
    "entity_name": "sec-Octyl iodide",
    "category": "agents",
    "uuid": "bf7bdb32-ef56-4158-85f5-a5d44b2c21f7",
    "scraped_at": "2025-07-23T22:09:44.592290"
  },
  "parsed_at": "2025-07-24T01:08:45.933863",
  "title": "sec-Octyl iodide",
  "sections": {
    "general": {
      "agent_name": {
        "original_name": "Agent Name",
        "value": "sec-Octyl iodide",
        "links": [],
        "cross_references": [
          {
            "type": "name_match",
            "text": "sec-octyl iodide",
            "confidence": 1.0,
            "uuid": "bf7bdb32-ef56-4158-85f5-a5d44b2c21f7",
            "name": "sec-Octyl iodide",
            "url": "https://haz-map.com/Agents/19625",
            "category": "agents"
          }
        ]
      },
      "cas_number": {
        "original_name": "CAS Number",
        "value": "557-36-8",
        "links": [],
        "cross_references": []
      },
      "formula": {
        "original_name": "Formula",
        "value": "C8-H17-I",
        "links": [],
        "cross_references": []
      },
      "major_category": {
        "original_name": "Major Category",
        "value": "Other Classes",
        "links": [],
        "cross_references": []
      },
      "synonyms": {
        "original_name": "Synonyms",
        "value": "2-Iodooctane; 2-Octyl iodide; Octane, 2-iodo-; [ChemIDplus]",
        "links": [],
        "cross_references": [
          {
            "type": "name_match",
            "text": "octane",
            "confidence": 1.0,
            "uuid": "feb2932c-69c5-4142-b6b6-bde017998940",
            "name": "Octane",
            "url": "https://haz-map.com/Agents/106",
            "category": "agents"
          }
        ]
      },
      "category": {
        "original_name": "Category",
        "value": "Halogenated Aliphatics, Saturated",
        "links": [],
        "cross_references": []
      },
      "description": {
        "original_name": "Description",
        "value": "Oily liquid; Discolored by light; [Merck Index] Yellow to brown liquid; [Alfa Aesar MSDS]",
        "links": [],
        "cross_references": [
          {
            "type": "name_match",
            "text": "ht",
            "confidence": 1.0,
            "uuid": "764df367-8d53-4a11-81a2-31ccfe122a8d",
            "name": "HT",
            "url": "https://haz-map.com/Agents/2168",
            "category": "agents"
          }
        ]
      },
      "comments": {
        "original_name": "Comments",
        "value": "A mild eye irritant; Causes somnolence, excitement, and coma in oral lethal-dose studies of mice and rats; [RTECS] An irritant; [Alfa Aesar MSDS] See \"1-Iodooctane.\"",
        "links": [],
        "cross_references": [
          {
            "type": "name_match",
            "text": "octane",
            "confidence": 1.0,
            "uuid": "feb2932c-69c5-4142-b6b6-bde017998940",
            "name": "Octane",
            "url": "https://haz-map.com/Agents/106",
            "category": "agents"
          },
          {
            "type": "name_match",
            "text": "1-iodooctane",
            "confidence": 1.0,
            "uuid": "80e590f2-f1b8-4a3e-8d1e-c0b88b289f61",
            "name": "1-Iodooctane",
            "url": "https://haz-map.com/Agents/9621",
            "category": "agents"
          }
        ]
      },
      "biomedical_references": {
        "original_name": "Biomedical References",
        "value": "Search PubMed",
        "links": [
          {
            "text": "Search PubMed",
            "url": "https://www.ncbi.nlm.nih.gov/pubmed?term=sec-Octyl+iodide%20AND%20human%5Bmh%5D%20AND%20%28Occupational%20Diseases%20%5Bmh%5D%20OR%20Occupational%20Exposure%20%5Bmh%5D%29%20%20AND%20%28tox%5Bsb%5D%29&cmd=search"
          }
        ],
        "cross_references": []
      }
    },
    "exposure_assessment": {
      "vapor_pressure": {
        "original_name": "Vapor Pressure",
        "value": "1.37 mm Hg",
        "links": [],
        "cross_references": []
      }
    },
    "diseases_processes_and_activities_linked_to_this_agent": {
      "other_information": {
        "original_name": "Other Information",
        "value": "No other related information on this agent was found.",
        "links": [],
        "cross_references": []
      }
    }
  },
  "cross_references": [
    {
      "type": "name_match",
      "text": "octane",
      "confidence": 1.0,
      "uuid": "feb2932c-69c5-4142-b6b6-bde017998940",
      "name": "Octane",
      "url": "https://haz-map.com/Agents/106",
      "category": "agents"
    },
    {
      "type": "name_match",
      "text": "ht",
      "confidence": 1.0,
      "uuid": "764df367-8d53-4a11-81a2-31ccfe122a8d",
      "name": "HT",
      "url": "https://haz-map.com/Agents/2168",
      "category": "agents"
    },
    {
      "type": "name_match",
      "text": "1-iodooctane",
      "confidence": 1.0,
      "uuid": "80e590f2-f1b8-4a3e-8d1e-c0b88b289f61",
      "name": "1-Iodooctane",
      "url": "https://haz-map.com/Agents/9621",
      "category": "agents"
    },
    {
      "type": "name_match",
      "text": "sec-octyl iodide",
      "confidence": 1.0,
      "uuid": "bf7bdb32-ef56-4158-85f5-a5d44b2c21f7",
      "name": "sec-Octyl iodide",
      "url": "https://haz-map.com/Agents/19625",
      "category": "agents"
    }
  ],
  "all_links": [
    {
      "text": "Search PubMed",
      "url": "https://www.ncbi.nlm.nih.gov/pubmed?term=sec-Octyl+iodide%20AND%20human%5Bmh%5D%20AND%20%28Occupational%20Diseases%20%5Bmh%5D%20OR%20Occupational%20Exposure%20%5Bmh%5D%29%20%20AND%20%28tox%5Bsb%5D%29&cmd=search"
    }
  ]
}