{
  "metadata": {
    "scraped_from": "https://haz-map.com/Agents/15249",
    "entity_name": "Naphthazarin",
    "category": "agents",
    "uuid": "bf7f4dd7-bf59-40e3-87fd-49fce1cb9f83",
    "scraped_at": "2025-07-23T21:28:45.309993"
  },
  "parsed_at": "2025-07-24T00:57:02.347243",
  "title": "Naphthazarin",
  "sections": {
    "general": {
      "agent_name": {
        "original_name": "Agent Name",
        "value": "Naphthazarin",
        "links": [],
        "cross_references": [
          {
            "type": "name_match",
            "text": "ht",
            "confidence": 1.0,
            "uuid": "764df367-8d53-4a11-81a2-31ccfe122a8d",
            "name": "HT",
            "url": "https://haz-map.com/Agents/2168",
            "category": "agents"
          },
          {
            "type": "name_match",
            "text": "naphthazarin",
            "confidence": 1.0,
            "uuid": "bf7f4dd7-bf59-40e3-87fd-49fce1cb9f83",
            "name": "Naphthazarin",
            "url": "https://haz-map.com/Agents/15249",
            "category": "agents"
          }
        ]
      },
      "cas_number": {
        "original_name": "CAS Number",
        "value": "475-38-7",
        "links": [],
        "cross_references": []
      },
      "formula": {
        "original_name": "Formula",
        "value": "C10-H6-O4",
        "links": [],
        "cross_references": []
      },
      "major_category": {
        "original_name": "Major Category",
        "value": "Other Uses",
        "links": [],
        "cross_references": []
      },
      "synonyms": {
        "original_name": "Synonyms",
        "value": "5,8-Dihydroxy-1,4-naphthalenedione; 5,8-Dihydroxy-1,4-naphthoquinone; 5,8-Dihydroxy-1,4-naphthosemiquinone; 5,8-Dihydroxynaphthoquinone; Naphthazarine; Naphthazarone; 1,4-Naphthalenedione, 5,8-dihydroxy- (9CI); 1,4-Naphthoquinone, 5,8-dihydroxy-; [ChemIDplus]",
        "links": [],
        "cross_references": [
          {
            "type": "name_match",
            "text": "naphthalene",
            "confidence": 1.0,
            "uuid": "433cf489-5423-4297-a38e-6e755a9d458e",
            "name": "Naphthalene",
            "url": "https://haz-map.com/Agents/46",
            "category": "agents"
          },
          {
            "type": "name_match",
            "text": "quinone",
            "confidence": 1.0,
            "uuid": "d01e66c3-ad06-4707-8d42-3c6655001c1a",
            "name": "Quinone",
            "url": "https://haz-map.com/Agents/303",
            "category": "agents"
          },
          {
            "type": "name_match",
            "text": "ht",
            "confidence": 1.0,
            "uuid": "764df367-8d53-4a11-81a2-31ccfe122a8d",
            "name": "HT",
            "url": "https://haz-map.com/Agents/2168",
            "category": "agents"
          },
          {
            "type": "name_match",
            "text": "1,4-naphthoquinone",
            "confidence": 1.0,
            "uuid": "0b9d4f6d-0ff0-4108-b7bd-5054aef19c88",
            "name": "1,4-Naphthoquinone",
            "url": "https://haz-map.com/Agents/7917",
            "category": "agents"
          },
          {
            "type": "name_match",
            "text": "naphthazarin",
            "confidence": 1.0,
            "uuid": "bf7f4dd7-bf59-40e3-87fd-49fce1cb9f83",
            "name": "Naphthazarin",
            "url": "https://haz-map.com/Agents/15249",
            "category": "agents"
          }
        ]
      },
      "category": {
        "original_name": "Category",
        "value": "Biochemical Research",
        "links": [],
        "cross_references": [
          {
            "type": "name_match",
            "text": "mica",
            "confidence": 1.0,
            "uuid": "433f26f1-c399-4596-b179-ce3843cfd465",
            "name": "Mica",
            "url": "https://haz-map.com/Agents/621",
            "category": "agents"
          }
        ]
      },
      "description": {
        "original_name": "Description",
        "value": "Brown solid; [Alfa Aesar MSDS]",
        "links": [],
        "cross_references": []
      },
      "sourcesuses": {
        "original_name": "Sources/Uses",
        "value": "A fish toxin; [ChemIDplus] A naturally occurring organic compound; [Wikipedia]",
        "links": [],
        "cross_references": []
      },
      "comments": {
        "original_name": "Comments",
        "value": "A skin and strong eye irritant; [Alfa Aesar MSDS]",
        "links": [],
        "cross_references": []
      },
      "reference_link_1": {
        "original_name": "Reference Link #1",
        "value": "The microtubule depolymerizing agent naphthazarin induces both apoptosis and autophagy in A549 lung cancer cells.",
        "links": [
          {
            "text": "The microtubule depolymerizing agent naphthazarin induces both apoptosis and autophagy in A549 lung cancer cells.",
            "url": "http://www.ncbi.nlm.nih.gov/pubmed/21667044"
          }
        ],
        "cross_references": [
          {
            "type": "name_match",
            "text": "lung cancer",
            "confidence": 1.0,
            "uuid": "269625e6-96c1-404d-9e1b-4e6cff42fd24",
            "name": "Lung cancer",
            "url": "https://haz-map.com/Diseases/2",
            "category": "diseases"
          },
          {
            "type": "name_match",
            "text": "ht",
            "confidence": 1.0,
            "uuid": "764df367-8d53-4a11-81a2-31ccfe122a8d",
            "name": "HT",
            "url": "https://haz-map.com/Agents/2168",
            "category": "agents"
          },
          {
            "type": "name_match",
            "text": "naphthazarin",
            "confidence": 1.0,
            "uuid": "bf7f4dd7-bf59-40e3-87fd-49fce1cb9f83",
            "name": "Naphthazarin",
            "url": "https://haz-map.com/Agents/15249",
            "category": "agents"
          }
        ]
      },
      "biomedical_references": {
        "original_name": "Biomedical References",
        "value": "Search PubMed",
        "links": [
          {
            "text": "Search PubMed",
            "url": "https://www.ncbi.nlm.nih.gov/pubmed?term=Naphthazarin%20AND%20human%5Bmh%5D%20AND%20%28Occupational%20Diseases%20%5Bmh%5D%20OR%20Occupational%20Exposure%20%5Bmh%5D%29%20%20AND%20%28tox%5Bsb%5D%29&cmd=search"
          }
        ],
        "cross_references": []
      }
    },
    "exposure_assessment": {
      "vapor_pressure": {
        "original_name": "Vapor Pressure",
        "value": "9.95E-08 mm Hg",
        "links": [],
        "cross_references": []
      }
    },
    "diseases_processes_and_activities_linked_to_this_agent": {
      "other_information": {
        "original_name": "Other Information",
        "value": "No other related information on this agent was found.",
        "links": [],
        "cross_references": []
      }
    }
  },
  "cross_references": [
    {
      "type": "name_match",
      "text": "lung cancer",
      "confidence": 1.0,
      "uuid": "269625e6-96c1-404d-9e1b-4e6cff42fd24",
      "name": "Lung cancer",
      "url": "https://haz-map.com/Diseases/2",
      "category": "diseases"
    },
    {
      "type": "name_match",
      "text": "naphthalene",
      "confidence": 1.0,
      "uuid": "433cf489-5423-4297-a38e-6e755a9d458e",
      "name": "Naphthalene",
      "url": "https://haz-map.com/Agents/46",
      "category": "agents"
    },
    {
      "type": "name_match",
      "text": "quinone",
      "confidence": 1.0,
      "uuid": "d01e66c3-ad06-4707-8d42-3c6655001c1a",
      "name": "Quinone",
      "url": "https://haz-map.com/Agents/303",
      "category": "agents"
    },
    {
      "type": "name_match",
      "text": "mica",
      "confidence": 1.0,
      "uuid": "433f26f1-c399-4596-b179-ce3843cfd465",
      "name": "Mica",
      "url": "https://haz-map.com/Agents/621",
      "category": "agents"
    },
    {
      "type": "name_match",
      "text": "ht",
      "confidence": 1.0,
      "uuid": "764df367-8d53-4a11-81a2-31ccfe122a8d",
      "name": "HT",
      "url": "https://haz-map.com/Agents/2168",
      "category": "agents"
    },
    {
      "type": "name_match",
      "text": "1,4-naphthoquinone",
      "confidence": 1.0,
      "uuid": "0b9d4f6d-0ff0-4108-b7bd-5054aef19c88",
      "name": "1,4-Naphthoquinone",
      "url": "https://haz-map.com/Agents/7917",
      "category": "agents"
    },
    {
      "type": "name_match",
      "text": "naphthazarin",
      "confidence": 1.0,
      "uuid": "bf7f4dd7-bf59-40e3-87fd-49fce1cb9f83",
      "name": "Naphthazarin",
      "url": "https://haz-map.com/Agents/15249",
      "category": "agents"
    }
  ],
  "all_links": [
    {
      "text": "The microtubule depolymerizing agent naphthazarin induces both apoptosis and autophagy in A549 lung cancer cells.",
      "url": "http://www.ncbi.nlm.nih.gov/pubmed/21667044"
    },
    {
      "text": "Search PubMed",
      "url": "https://www.ncbi.nlm.nih.gov/pubmed?term=Naphthazarin%20AND%20human%5Bmh%5D%20AND%20%28Occupational%20Diseases%20%5Bmh%5D%20OR%20Occupational%20Exposure%20%5Bmh%5D%29%20%20AND%20%28tox%5Bsb%5D%29&cmd=search"
    }
  ]
}