{
  "metadata": {
    "scraped_from": "https://haz-map.com/Agents/1350",
    "entity_name": "DMDM hydantoin",
    "category": "agents",
    "uuid": "bf813c14-1b15-4ef1-b988-4bc9d9e121bb",
    "scraped_at": "2025-07-23T18:57:08.331752"
  },
  "parsed_at": "2025-07-24T00:56:59.202863",
  "title": "DMDM hydantoin",
  "sections": {
    "general": {
      "agent_name": {
        "original_name": "Agent Name",
        "value": "DMDM hydantoin",
        "links": [],
        "cross_references": [
          {
            "type": "name_match",
            "text": "dmdm hydantoin",
            "confidence": 1.0,
            "uuid": "bf813c14-1b15-4ef1-b988-4bc9d9e121bb",
            "name": "DMDM hydantoin",
            "url": "https://haz-map.com/Agents/1350",
            "category": "agents"
          },
          {
            "type": "name_match",
            "text": "hydantoin",
            "confidence": 1.0,
            "uuid": "d6180823-0373-45ff-b5ac-d9034f17fb80",
            "name": "Hydantoin",
            "url": "https://haz-map.com/Agents/14779",
            "category": "agents"
          }
        ]
      },
      "alternative_name": {
        "original_name": "Alternative Name",
        "value": "1,3-Dimethylol-5,5-dimethyl hydantoin",
        "links": [],
        "cross_references": [
          {
            "type": "name_match",
            "text": "hydantoin",
            "confidence": 1.0,
            "uuid": "d6180823-0373-45ff-b5ac-d9034f17fb80",
            "name": "Hydantoin",
            "url": "https://haz-map.com/Agents/14779",
            "category": "agents"
          }
        ]
      },
      "cas_number": {
        "original_name": "CAS Number",
        "value": "6440-58-0",
        "links": [],
        "cross_references": []
      },
      "formula": {
        "original_name": "Formula",
        "value": "C7-H12-N2-O4",
        "links": [],
        "cross_references": []
      },
      "major_category": {
        "original_name": "Major Category",
        "value": "Other Uses",
        "links": [],
        "cross_references": []
      },
      "synonyms": {
        "original_name": "Synonyms",
        "value": "1,3-Dimethylol-5,5-dimethyl hydantoin; 1,3-Bis(hydroxymethyl)-5,5-dimethyl-2,4-imidazolidinedione; 1,3-Bis(hydroxymethyl)-5,5-dimethylhydantoin; 1,3-Di(hydroxymethyl)-5,5-dimethylhydantoin; 1,3-Dimethylol-5,5-dimethylhydantoin; DMDM hydantoin; Dantoin dmdmh 55; Dantoin-DMDMH; Dimethylol-5,5-dimethylhydantoin; DMDMH; DMDMH 55; Glycoserve-DMDMH; Glydant; 1,3-Bis(hydroxymethyl)-5,5-dimethylimidazolidine-2,4-dione; 2,4-Imidazolidinedione, 1,3-bis(hydroxymethyl)-5,5-dimethyl-; Hydantoin, 1,3-bis(hydroxymethyl)-5,5-dimethyl-; [ChemIDplus]",
        "links": [],
        "cross_references": [
          {
            "type": "name_match",
            "text": "2,4-d",
            "confidence": 1.0,
            "uuid": "bed35f54-2d93-4ffd-a3ee-723ab365faf1",
            "name": "2,4-D",
            "url": "https://haz-map.com/Agents/389",
            "category": "agents"
          },
          {
            "type": "name_match",
            "text": "dmdm hydantoin",
            "confidence": 1.0,
            "uuid": "bf813c14-1b15-4ef1-b988-4bc9d9e121bb",
            "name": "DMDM hydantoin",
            "url": "https://haz-map.com/Agents/1350",
            "category": "agents"
          },
          {
            "type": "name_match",
            "text": "5,5-dimethylhydantoin",
            "confidence": 1.0,
            "uuid": "d7e37d6b-b11e-48b2-a4f1-0ce3b9c2ccc6",
            "name": "5,5-Dimethylhydantoin",
            "url": "https://haz-map.com/Agents/3332",
            "category": "agents"
          },
          {
            "type": "name_match",
            "text": "hydantoin",
            "confidence": 1.0,
            "uuid": "d6180823-0373-45ff-b5ac-d9034f17fb80",
            "name": "Hydantoin",
            "url": "https://haz-map.com/Agents/14779",
            "category": "agents"
          }
        ]
      },
      "category": {
        "original_name": "Category",
        "value": "Biocides/Disinfectants",
        "links": [],
        "cross_references": []
      },
      "sourcesuses": {
        "original_name": "Sources/Uses",
        "value": "Used as a biocide in cosmetics with 0.6% the maximum allowable concentration in the EU; [Kanerva, p. 398, 407] Used as an antimicrobial pesticide in cleaning products, adhesives, air fresheners, caulks, hydraulic fluids, inks, metal working cutting fluids, paints, stains, coatings, paper and paperboard coatings, polishes, synthetic polymers, sealants, starch solutions, resin emulsions, textiles, and wax; [Reference #1]",
        "links": [],
        "cross_references": [
          {
            "type": "name_match",
            "text": "starch",
            "confidence": 1.0,
            "uuid": "cf7e2413-cc24-4ee1-b016-ea8cf75bf138",
            "name": "Starch",
            "url": "https://haz-map.com/Agents/630",
            "category": "agents"
          }
        ]
      },
      "comments": {
        "original_name": "Comments",
        "value": "A formaldehyde releaser used in cosmetics; It can cause allergic contact dermatitis; \"Rinse off products in general will have a low risk of causing allergic contact dermatitis.\" [Kanerva, p. 398-404] Reports of positive results for skin sensitization patch testing; [HSDB] A formaldehyde releasing agent present in combination with MDM hydantoin (CAS# 116-25-6) in the commercial product 2,4 Imidazolidinedione; Likely hydrolyzes/degrades to 5,5-dimethylhydantoin (DMH); [Reference #1] See \"5,5-Dimethylhydantoin\" and \"Formaldehyde.\"",
        "links": [],
        "cross_references": [
          {
            "type": "name_match",
            "text": "dermatitis",
            "confidence": 1.0,
            "uuid": "fe9c05f2-b19f-4ceb-ac7a-ffb7d7a0cae0",
            "name": "dermatitis",
            "url": "https://haz-map.com/Findings/59",
            "category": "findings"
          },
          {
            "type": "name_match",
            "text": "formaldehyde",
            "confidence": 1.0,
            "uuid": "272252b9-c18e-43df-b652-787210f00a3e",
            "name": "Formaldehyde",
            "url": "https://haz-map.com/Agents/271",
            "category": "agents"
          },
          {
            "type": "name_match",
            "text": "5,5-dimethylhydantoin",
            "confidence": 1.0,
            "uuid": "d7e37d6b-b11e-48b2-a4f1-0ce3b9c2ccc6",
            "name": "5,5-Dimethylhydantoin",
            "url": "https://haz-map.com/Agents/3332",
            "category": "agents"
          },
          {
            "type": "name_match",
            "text": "hydantoin",
            "confidence": 1.0,
            "uuid": "d6180823-0373-45ff-b5ac-d9034f17fb80",
            "name": "Hydantoin",
            "url": "https://haz-map.com/Agents/14779",
            "category": "agents"
          },
          {
            "type": "fuzzy_match",
            "text": "contact dermatitis",
            "matched_name": "Contact dermatitis, allergic",
            "confidence": 0.7214285714285715,
            "uuid": "c9499de0-9aa1-41bf-8753-cd5b28a63e29",
            "category": "diseases",
            "url": "https://haz-map.com/Diseases/18"
          }
        ]
      },
      "biomedical_references": {
        "original_name": "Biomedical References",
        "value": "Search PubMed",
        "links": [
          {
            "text": "Search PubMed",
            "url": "https://www.ncbi.nlm.nih.gov/pubmed?term=DMDM+hydantoin%20AND%20human%5Bmh%5D%20AND%20%28Occupational%20Diseases%20%5Bmh%5D%20OR%20Occupational%20Exposure%20%5Bmh%5D%29%20%20AND%20%28tox%5Bsb%5D%29&cmd=search"
          }
        ],
        "cross_references": []
      }
    },
    "exposure_assessment": {
      "vapor_pressure": {
        "original_name": "Vapor Pressure",
        "value": "9E-08 mm Hg",
        "links": [],
        "cross_references": []
      },
      "explanatory_notes": {
        "original_name": "Explanatory Notes",
        "value": "VP from HSDB;",
        "links": [],
        "cross_references": []
      }
    },
    "adverse_effects": {
      "skin_sensitizer": {
        "original_name": "Skin Sensitizer",
        "value": "Yes",
        "links": [],
        "cross_references": []
      }
    },
    "diseases_processes_and_activities_linked_to_this_agent": {
      "diseases": {
        "original_name": "Diseases",
        "value": "Occupational diseases associated with exposure to this agent: Contact dermatitis, allergic",
        "links": [
          {
            "text": "Contact dermatitis, allergic",
            "url": "https://haz-map.com/Diseases/18"
          }
        ],
        "cross_references": [
          {
            "type": "url_match",
            "text": "Contact dermatitis, allergic",
            "url": "https://haz-map.com/Diseases/18",
            "confidence": 1.0,
            "uuid": "c9499de0-9aa1-41bf-8753-cd5b28a63e29",
            "name": "Contact dermatitis, allergic",
            "category": "diseases"
          },
          {
            "type": "name_match",
            "text": "dermatitis",
            "confidence": 1.0,
            "uuid": "fe9c05f2-b19f-4ceb-ac7a-ffb7d7a0cae0",
            "name": "dermatitis",
            "url": "https://haz-map.com/Findings/59",
            "category": "findings"
          }
        ]
      },
      "processes": {
        "original_name": "Processes",
        "value": "Industrial Processes with risk of exposure: Metal Machining Painting (Pigments, Binders, and Biocides) Pulp and Paper Processing Textiles (Printing, Dyeing, or Finishing) Using Disinfectants or Biocides Working with Glues and Adhesives",
        "links": [
          {
            "text": "Metal Machining",
            "url": "https://haz-map.com/Processes/35"
          },
          {
            "text": "Painting (Pigments, Binders, and Biocides)",
            "url": "https://haz-map.com/Processes/145"
          },
          {
            "text": "Pulp and Paper Processing",
            "url": "https://haz-map.com/Processes/132"
          },
          {
            "text": "Textiles (Printing, Dyeing, or Finishing)",
            "url": "https://haz-map.com/Processes/235"
          },
          {
            "text": "Using Disinfectants or Biocides",
            "url": "https://haz-map.com/Processes/167"
          },
          {
            "text": "Working with Glues and Adhesives",
            "url": "https://haz-map.com/Processes/155"
          }
        ],
        "cross_references": [
          {
            "type": "url_match",
            "text": "Metal Machining",
            "url": "https://haz-map.com/Processes/35",
            "confidence": 1.0,
            "uuid": "742028ba-ba09-4d7c-bb80-f70af1454300",
            "name": "Metal Machining",
            "category": "processes"
          },
          {
            "type": "url_match",
            "text": "Painting (Pigments, Binders, and Biocides)",
            "url": "https://haz-map.com/Processes/145",
            "confidence": 1.0,
            "uuid": "25867878-e178-4c21-906f-d392d86b76de",
            "name": "Painting (Pigments, Binders, and Biocides)",
            "category": "processes"
          },
          {
            "type": "url_match",
            "text": "Pulp and Paper Processing",
            "url": "https://haz-map.com/Processes/132",
            "confidence": 1.0,
            "uuid": "30075079-d057-47e2-a7d8-e89bfc59d8df",
            "name": "Pulp and Paper Processing",
            "category": "processes"
          },
          {
            "type": "url_match",
            "text": "Using Disinfectants or Biocides",
            "url": "https://haz-map.com/Processes/167",
            "confidence": 1.0,
            "uuid": "7accb745-ad60-4ef8-9039-8ac4febb8fd8",
            "name": "Using Disinfectants or Biocides",
            "category": "processes"
          },
          {
            "type": "url_match",
            "text": "Working with Glues and Adhesives",
            "url": "https://haz-map.com/Processes/155",
            "confidence": 1.0,
            "uuid": "acb9084f-52e8-4687-bd6a-bced94bda834",
            "name": "Working with Glues and Adhesives",
            "category": "processes"
          },
          {
            "type": "name_match",
            "text": "painting",
            "confidence": 1.0,
            "uuid": "19816ce9-9edf-4a86-8e64-b0cbf7dcf520",
            "name": "Painting",
            "url": "https://haz-map.com/Activities/9",
            "category": "activities"
          }
        ]
      }
    }
  },
  "cross_references": [
    {
      "type": "url_match",
      "text": "Contact dermatitis, allergic",
      "url": "https://haz-map.com/Diseases/18",
      "confidence": 1.0,
      "uuid": "c9499de0-9aa1-41bf-8753-cd5b28a63e29",
      "name": "Contact dermatitis, allergic",
      "category": "diseases"
    },
    {
      "type": "url_match",
      "text": "Metal Machining",
      "url": "https://haz-map.com/Processes/35",
      "confidence": 1.0,
      "uuid": "742028ba-ba09-4d7c-bb80-f70af1454300",
      "name": "Metal Machining",
      "category": "processes"
    },
    {
      "type": "url_match",
      "text": "Painting (Pigments, Binders, and Biocides)",
      "url": "https://haz-map.com/Processes/145",
      "confidence": 1.0,
      "uuid": "25867878-e178-4c21-906f-d392d86b76de",
      "name": "Painting (Pigments, Binders, and Biocides)",
      "category": "processes"
    },
    {
      "type": "url_match",
      "text": "Pulp and Paper Processing",
      "url": "https://haz-map.com/Processes/132",
      "confidence": 1.0,
      "uuid": "30075079-d057-47e2-a7d8-e89bfc59d8df",
      "name": "Pulp and Paper Processing",
      "category": "processes"
    },
    {
      "type": "url_match",
      "text": "Using Disinfectants or Biocides",
      "url": "https://haz-map.com/Processes/167",
      "confidence": 1.0,
      "uuid": "7accb745-ad60-4ef8-9039-8ac4febb8fd8",
      "name": "Using Disinfectants or Biocides",
      "category": "processes"
    },
    {
      "type": "url_match",
      "text": "Working with Glues and Adhesives",
      "url": "https://haz-map.com/Processes/155",
      "confidence": 1.0,
      "uuid": "acb9084f-52e8-4687-bd6a-bced94bda834",
      "name": "Working with Glues and Adhesives",
      "category": "processes"
    },
    {
      "type": "name_match",
      "text": "painting",
      "confidence": 1.0,
      "uuid": "19816ce9-9edf-4a86-8e64-b0cbf7dcf520",
      "name": "Painting",
      "url": "https://haz-map.com/Activities/9",
      "category": "activities"
    },
    {
      "type": "name_match",
      "text": "dermatitis",
      "confidence": 1.0,
      "uuid": "fe9c05f2-b19f-4ceb-ac7a-ffb7d7a0cae0",
      "name": "dermatitis",
      "url": "https://haz-map.com/Findings/59",
      "category": "findings"
    },
    {
      "type": "name_match",
      "text": "formaldehyde",
      "confidence": 1.0,
      "uuid": "272252b9-c18e-43df-b652-787210f00a3e",
      "name": "Formaldehyde",
      "url": "https://haz-map.com/Agents/271",
      "category": "agents"
    },
    {
      "type": "name_match",
      "text": "2,4-d",
      "confidence": 1.0,
      "uuid": "bed35f54-2d93-4ffd-a3ee-723ab365faf1",
      "name": "2,4-D",
      "url": "https://haz-map.com/Agents/389",
      "category": "agents"
    },
    {
      "type": "name_match",
      "text": "starch",
      "confidence": 1.0,
      "uuid": "cf7e2413-cc24-4ee1-b016-ea8cf75bf138",
      "name": "Starch",
      "url": "https://haz-map.com/Agents/630",
      "category": "agents"
    },
    {
      "type": "name_match",
      "text": "dmdm hydantoin",
      "confidence": 1.0,
      "uuid": "bf813c14-1b15-4ef1-b988-4bc9d9e121bb",
      "name": "DMDM hydantoin",
      "url": "https://haz-map.com/Agents/1350",
      "category": "agents"
    },
    {
      "type": "name_match",
      "text": "5,5-dimethylhydantoin",
      "confidence": 1.0,
      "uuid": "d7e37d6b-b11e-48b2-a4f1-0ce3b9c2ccc6",
      "name": "5,5-Dimethylhydantoin",
      "url": "https://haz-map.com/Agents/3332",
      "category": "agents"
    },
    {
      "type": "name_match",
      "text": "hydantoin",
      "confidence": 1.0,
      "uuid": "d6180823-0373-45ff-b5ac-d9034f17fb80",
      "name": "Hydantoin",
      "url": "https://haz-map.com/Agents/14779",
      "category": "agents"
    }
  ],
  "all_links": [
    {
      "text": "Search PubMed",
      "url": "https://www.ncbi.nlm.nih.gov/pubmed?term=DMDM+hydantoin%20AND%20human%5Bmh%5D%20AND%20%28Occupational%20Diseases%20%5Bmh%5D%20OR%20Occupational%20Exposure%20%5Bmh%5D%29%20%20AND%20%28tox%5Bsb%5D%29&cmd=search"
    },
    {
      "text": "Contact dermatitis, allergic",
      "url": "https://haz-map.com/Diseases/18"
    },
    {
      "text": "Metal Machining",
      "url": "https://haz-map.com/Processes/35"
    },
    {
      "text": "Painting (Pigments, Binders, and Biocides)",
      "url": "https://haz-map.com/Processes/145"
    },
    {
      "text": "Pulp and Paper Processing",
      "url": "https://haz-map.com/Processes/132"
    },
    {
      "text": "Textiles (Printing, Dyeing, or Finishing)",
      "url": "https://haz-map.com/Processes/235"
    },
    {
      "text": "Using Disinfectants or Biocides",
      "url": "https://haz-map.com/Processes/167"
    },
    {
      "text": "Working with Glues and Adhesives",
      "url": "https://haz-map.com/Processes/155"
    }
  ]
}