{
  "metadata": {
    "scraped_from": "https://haz-map.com/Agents/3034",
    "entity_name": "2,6-Di-tert-butylphenol",
    "category": "agents",
    "uuid": "bfd5211a-beaf-4bdf-83e1-bc2691366ecc",
    "scraped_at": "2025-07-23T19:22:59.871078"
  },
  "parsed_at": "2025-07-24T01:16:35.090739",
  "title": "2,6-Di-tert-butylphenol",
  "sections": {
    "general": {
      "agent_name": {
        "original_name": "Agent Name",
        "value": "2,6-Di-tert-butylphenol",
        "links": [],
        "cross_references": [
          {
            "type": "name_match",
            "text": "phenol",
            "confidence": 1.0,
            "uuid": "03141a03-a7df-4f51-9a37-adde1a7c4b31",
            "name": "Phenol",
            "url": "https://haz-map.com/Agents/84",
            "category": "agents"
          },
          {
            "type": "name_match",
            "text": "2,6-di-tert-butylphenol",
            "confidence": 1.0,
            "uuid": "bfd5211a-beaf-4bdf-83e1-bc2691366ecc",
            "name": "2,6-Di-tert-butylphenol",
            "url": "https://haz-map.com/Agents/3034",
            "category": "agents"
          }
        ]
      },
      "cas_number": {
        "original_name": "CAS Number",
        "value": "128-39-2",
        "links": [],
        "cross_references": []
      },
      "formula": {
        "original_name": "Formula",
        "value": "C14-H22-O",
        "links": [],
        "cross_references": []
      },
      "major_category": {
        "original_name": "Major Category",
        "value": "Other Classes",
        "links": [],
        "cross_references": []
      },
      "synonyms": {
        "original_name": "Synonyms",
        "value": "2,6-Bis(1,1-dimethylethyl)phenol; 2,6-Bis(tert-butyl)phenol; 2,6-Di-t-butylphenol; AN 701; Ethanox 701; Ethyl 701; Ethyl AN 701; Hitec 4701; Isonox 103; Phenol, 2,6-bis(1,1-dimethylethyl)-; Phenol, 2,6-di-tert-butyl-; [ChemIDplus] UN3077",
        "links": [],
        "cross_references": [
          {
            "type": "name_match",
            "text": "phenol",
            "confidence": 1.0,
            "uuid": "03141a03-a7df-4f51-9a37-adde1a7c4b31",
            "name": "Phenol",
            "url": "https://haz-map.com/Agents/84",
            "category": "agents"
          }
        ]
      },
      "category": {
        "original_name": "Category",
        "value": "Phenols",
        "links": [],
        "cross_references": [
          {
            "type": "name_match",
            "text": "phenol",
            "confidence": 1.0,
            "uuid": "03141a03-a7df-4f51-9a37-adde1a7c4b31",
            "name": "Phenol",
            "url": "https://haz-map.com/Agents/84",
            "category": "agents"
          }
        ]
      },
      "description": {
        "original_name": "Description",
        "value": "Light-straw colored solid; [Hawley] White solid; mp = 35-38 deg C; [MSDSonline]",
        "links": [],
        "cross_references": [
          {
            "type": "name_match",
            "text": "ht",
            "confidence": 1.0,
            "uuid": "764df367-8d53-4a11-81a2-31ccfe122a8d",
            "name": "HT",
            "url": "https://haz-map.com/Agents/2168",
            "category": "agents"
          }
        ]
      },
      "sourcesuses": {
        "original_name": "Sources/Uses",
        "value": "Used as an intermediate and an antioxidant in aviation gasoline; [Hawley] Used as an intermediate for the production of higher molecular weight phenolic antioxidants; Also used as an oxidation inhibitor and stabilizer for fuel, oil, and gasoline; [eChemPortal: SIDSUNEP]",
        "links": [],
        "cross_references": [
          {
            "type": "name_match",
            "text": "phenol",
            "confidence": 1.0,
            "uuid": "03141a03-a7df-4f51-9a37-adde1a7c4b31",
            "name": "Phenol",
            "url": "https://haz-map.com/Agents/84",
            "category": "agents"
          },
          {
            "type": "name_match",
            "text": "gasoline",
            "confidence": 1.0,
            "uuid": "af15c833-3eae-46c5-9af4-2214858d7282",
            "name": "Gasoline",
            "url": "https://haz-map.com/Agents/410",
            "category": "agents"
          },
          {
            "type": "name_match",
            "text": "ht",
            "confidence": 1.0,
            "uuid": "764df367-8d53-4a11-81a2-31ccfe122a8d",
            "name": "HT",
            "url": "https://haz-map.com/Agents/2168",
            "category": "agents"
          }
        ]
      },
      "comments": {
        "original_name": "Comments",
        "value": "An eye irritant; [CAMEO] A skin, eye, and respiratory tract irritant; [ICSC] An irritant; [MSDSonline]",
        "links": [],
        "cross_references": []
      },
      "biomedical_references": {
        "original_name": "Biomedical References",
        "value": "Search PubMed",
        "links": [
          {
            "text": "Search PubMed",
            "url": "https://www.ncbi.nlm.nih.gov/pubmed?term=2%2c6-Di-tert-butylphenol%20AND%20human%5Bmh%5D%20AND%20%28Occupational%20Diseases%20%5Bmh%5D%20OR%20Occupational%20Exposure%20%5Bmh%5D%29%20%20AND%20%28tox%5Bsb%5D%29&cmd=search"
          }
        ],
        "cross_references": []
      }
    },
    "exposure_assessment": {
      "vapor_pressure": {
        "original_name": "Vapor Pressure",
        "value": "0.0073 mm Hg",
        "links": [],
        "cross_references": []
      },
      "explanatory_notes": {
        "original_name": "Explanatory Notes",
        "value": "Flash point = 118 deg C; [Hawley] The Guide in the Emergency Response Guidebook is for \"Environmentally hazardous substances, solid, n.o.s.\" VP from ChemIDplus;",
        "links": [],
        "cross_references": [
          {
            "type": "name_match",
            "text": "ash",
            "confidence": 1.0,
            "uuid": "68b360f1-5ad0-4337-bea0-d7adca2961b5",
            "name": "Ash",
            "url": "https://haz-map.com/Agents/965",
            "category": "agents"
          },
          {
            "type": "name_match",
            "text": "iron",
            "confidence": 1.0,
            "uuid": "a6101f16-ec31-4d6c-af41-cbdbda5b1c7c",
            "name": "Iron",
            "url": "https://haz-map.com/Agents/1993",
            "category": "agents"
          }
        ]
      }
    },
    "diseases_processes_and_activities_linked_to_this_agent": {
      "processes": {
        "original_name": "Processes",
        "value": "Industrial Processes with risk of exposure: Petroleum Production and Refining",
        "links": [
          {
            "text": "Petroleum Production and Refining",
            "url": "https://haz-map.com/Processes/75"
          }
        ],
        "cross_references": [
          {
            "type": "url_match",
            "text": "Petroleum Production and Refining",
            "url": "https://haz-map.com/Processes/75",
            "confidence": 1.0,
            "uuid": "e2003948-ad28-44a5-85f6-2e3391da8917",
            "name": "Petroleum Production and Refining",
            "category": "processes"
          },
          {
            "type": "name_match",
            "text": "oleum",
            "confidence": 1.0,
            "uuid": "12af84ee-bcf0-416d-9220-7c4c6dc330f1",
            "name": "Oleum",
            "url": "https://haz-map.com/Agents/2227",
            "category": "agents"
          }
        ]
      }
    }
  },
  "cross_references": [
    {
      "type": "url_match",
      "text": "Petroleum Production and Refining",
      "url": "https://haz-map.com/Processes/75",
      "confidence": 1.0,
      "uuid": "e2003948-ad28-44a5-85f6-2e3391da8917",
      "name": "Petroleum Production and Refining",
      "category": "processes"
    },
    {
      "type": "name_match",
      "text": "phenol",
      "confidence": 1.0,
      "uuid": "03141a03-a7df-4f51-9a37-adde1a7c4b31",
      "name": "Phenol",
      "url": "https://haz-map.com/Agents/84",
      "category": "agents"
    },
    {
      "type": "name_match",
      "text": "gasoline",
      "confidence": 1.0,
      "uuid": "af15c833-3eae-46c5-9af4-2214858d7282",
      "name": "Gasoline",
      "url": "https://haz-map.com/Agents/410",
      "category": "agents"
    },
    {
      "type": "name_match",
      "text": "ash",
      "confidence": 1.0,
      "uuid": "68b360f1-5ad0-4337-bea0-d7adca2961b5",
      "name": "Ash",
      "url": "https://haz-map.com/Agents/965",
      "category": "agents"
    },
    {
      "type": "name_match",
      "text": "iron",
      "confidence": 1.0,
      "uuid": "a6101f16-ec31-4d6c-af41-cbdbda5b1c7c",
      "name": "Iron",
      "url": "https://haz-map.com/Agents/1993",
      "category": "agents"
    },
    {
      "type": "name_match",
      "text": "ht",
      "confidence": 1.0,
      "uuid": "764df367-8d53-4a11-81a2-31ccfe122a8d",
      "name": "HT",
      "url": "https://haz-map.com/Agents/2168",
      "category": "agents"
    },
    {
      "type": "name_match",
      "text": "oleum",
      "confidence": 1.0,
      "uuid": "12af84ee-bcf0-416d-9220-7c4c6dc330f1",
      "name": "Oleum",
      "url": "https://haz-map.com/Agents/2227",
      "category": "agents"
    },
    {
      "type": "name_match",
      "text": "2,6-di-tert-butylphenol",
      "confidence": 1.0,
      "uuid": "bfd5211a-beaf-4bdf-83e1-bc2691366ecc",
      "name": "2,6-Di-tert-butylphenol",
      "url": "https://haz-map.com/Agents/3034",
      "category": "agents"
    }
  ],
  "all_links": [
    {
      "text": "Search PubMed",
      "url": "https://www.ncbi.nlm.nih.gov/pubmed?term=2%2c6-Di-tert-butylphenol%20AND%20human%5Bmh%5D%20AND%20%28Occupational%20Diseases%20%5Bmh%5D%20OR%20Occupational%20Exposure%20%5Bmh%5D%29%20%20AND%20%28tox%5Bsb%5D%29&cmd=search"
    },
    {
      "text": "Petroleum Production and Refining",
      "url": "https://haz-map.com/Processes/75"
    }
  ]
}