{
  "metadata": {
    "scraped_from": "https://haz-map.com/Agents/326",
    "entity_name": "sec-Butyl alcohol",
    "category": "agents",
    "uuid": "bff03294-4b63-400c-8570-e87693551d5b",
    "scraped_at": "2025-07-23T18:39:36.177888"
  },
  "parsed_at": "2025-07-24T01:09:42.079843",
  "title": "sec-Butyl alcohol",
  "sections": {
    "general": {
      "agent_name": {
        "original_name": "Agent Name",
        "value": "sec-Butyl alcohol",
        "links": [],
        "cross_references": [
          {
            "type": "name_match",
            "text": "sec-butyl alcohol",
            "confidence": 1.0,
            "uuid": "bff03294-4b63-400c-8570-e87693551d5b",
            "name": "sec-Butyl alcohol",
            "url": "https://haz-map.com/Agents/326",
            "category": "agents"
          }
        ]
      },
      "alternative_name": {
        "original_name": "Alternative Name",
        "value": "sec-Butanol",
        "links": [],
        "cross_references": []
      },
      "cas_number": {
        "original_name": "CAS Number",
        "value": "78-92-2",
        "links": [],
        "cross_references": []
      },
      "formula": {
        "original_name": "Formula",
        "value": "C4-H10-O",
        "links": [],
        "cross_references": []
      },
      "major_category": {
        "original_name": "Major Category",
        "value": "Solvents",
        "links": [],
        "cross_references": []
      },
      "synonyms": {
        "original_name": "Synonyms",
        "value": "sec-Butanol; 1-Methyl propanol; 1-Methyl-1-propanol; 1-Methylpropyl alcohol; 2-Butanol (natural); 2-Butyl alcohol; 2-Hydroxybutane; Alcool butylique secondaire [French]; Butan-2-ol; Butanol secondaire [French]; Butyl alcohol, sec-; Butylene hydrate; CCS 301; Ethyl methyl carbinol; Ethylmethyl carbinol; Methyl ethyl carbinol; Methylethyl carbinol; Methylethylcarbinol; s-Butanol; s-Butyl alcohol; sec-Butanol; [ChemIDplus] UN1993",
        "links": [],
        "cross_references": []
      },
      "category": {
        "original_name": "Category",
        "value": "Alcohols (<C12)",
        "links": [],
        "cross_references": []
      },
      "description": {
        "original_name": "Description",
        "value": "Colorless liquid with a strong, pleasant odor; [NIOSH]",
        "links": [],
        "cross_references": []
      },
      "sourcesuses": {
        "original_name": "Sources/Uses",
        "value": "Used as a solvent, paint remover, and cleaner; also used to manufacture other organic compounds; [ACGIH]",
        "links": [],
        "cross_references": [
          {
            "type": "fuzzy_match",
            "text": "organic compounds",
            "matched_name": "Tin, organic compounds",
            "confidence": 0.8196969696969697,
            "uuid": "e027d413-8869-4308-9eb2-27d768b011ea",
            "category": "agents",
            "url": "https://haz-map.com/Agents/656"
          }
        ]
      },
      "comments": {
        "original_name": "Comments",
        "value": "A skin, eye, and respiratory tract irritant; Inhalation of high concentrations can cause CNS depression; [ICSC]",
        "links": [],
        "cross_references": []
      },
      "reference_link_1": {
        "original_name": "Reference Link #1",
        "value": "NIOSH Occupational Health Guidelines for Chemical Hazards: sec-Butyl alcohol",
        "links": [
          {
            "text": "NIOSH Occupational Health Guidelines for Chemical Hazards: sec-Butyl alcohol",
            "url": "https://www.cdc.gov/niosh/docs/81-123/pdfs/0077-rev.pdf?id=10.26616/NIOSHPUB81123"
          }
        ],
        "cross_references": [
          {
            "type": "name_match",
            "text": "sec-butyl alcohol",
            "confidence": 1.0,
            "uuid": "bff03294-4b63-400c-8570-e87693551d5b",
            "name": "sec-Butyl alcohol",
            "url": "https://haz-map.com/Agents/326",
            "category": "agents"
          },
          {
            "type": "name_match",
            "text": "mica",
            "confidence": 1.0,
            "uuid": "433f26f1-c399-4596-b179-ce3843cfd465",
            "name": "Mica",
            "url": "https://haz-map.com/Agents/621",
            "category": "agents"
          }
        ]
      },
      "biomedical_references": {
        "original_name": "Biomedical References",
        "value": "Search PubMed",
        "links": [
          {
            "text": "Search PubMed",
            "url": "https://www.ncbi.nlm.nih.gov/pubmed?term=sec-Butyl+alcohol%20AND%20human%5Bmh%5D%20AND%20%28Occupational%20Diseases%20%5Bmh%5D%20OR%20Occupational%20Exposure%20%5Bmh%5D%29%20%20AND%20%28tox%5Bsb%5D%29&cmd=search"
          }
        ],
        "cross_references": []
      }
    },
    "exposure_assessment": {
      "skin_designation_acgih": {
        "original_name": "Skin Designation (ACGIH)",
        "value": "Insufficient data",
        "links": [],
        "cross_references": []
      },
      "tlv_acgih": {
        "original_name": "TLV (ACGIH)",
        "value": "100 ppm",
        "links": [],
        "cross_references": []
      },
      "pel_osha": {
        "original_name": "PEL (OSHA)",
        "value": "150 ppm",
        "links": [],
        "cross_references": []
      },
      "idlh_niosh": {
        "original_name": "IDLH (NIOSH)",
        "value": "2000 ppm",
        "links": [],
        "cross_references": []
      },
      "excerpts_from_documentation_for_idlhs": {
        "original_name": "Excerpts from Documentation for IDLHs",
        "value": "Basis for original (SCP) IDLH: The chosen IDLH is based on the statements by Patty [1963] that 10,670 ppm for 225 minutes and 16,000 ppm for 160 minutes were fatal for mice [Weese 1928]. According to Patty [1963], at 20,000 ppm it took 12 to 20 minutes to produce prostration in mice and 40 minutes to produce narcosis; no deaths occurred [Starrek 1938]. The chosen IDLH is probably conservative.",
        "links": [],
        "cross_references": []
      },
      "vapor_pressure": {
        "original_name": "Vapor Pressure",
        "value": "18.3 mm Hg",
        "links": [],
        "cross_references": []
      },
      "odor_threshold_low": {
        "original_name": "Odor Threshold Low",
        "value": "0.12 ppm",
        "links": [],
        "cross_references": []
      },
      "odor_threshold_high": {
        "original_name": "Odor Threshold High",
        "value": "13.8 ppm",
        "links": [],
        "cross_references": []
      },
      "lethal_concentration": {
        "original_name": "Lethal Concentration",
        "value": "LCLo (rat) = 16,000 ppm/4H",
        "links": [],
        "cross_references": []
      },
      "explanatory_notes": {
        "original_name": "Explanatory Notes",
        "value": "Detection odor threshold from AIHA (mean = 3.2 ppm); Flash point = 75 deg F; VP from HSDB;",
        "links": [],
        "cross_references": [
          {
            "type": "name_match",
            "text": "ash",
            "confidence": 1.0,
            "uuid": "68b360f1-5ad0-4337-bea0-d7adca2961b5",
            "name": "Ash",
            "url": "https://haz-map.com/Agents/965",
            "category": "agents"
          }
        ]
      },
      "nfpa": {
        "original_name": "NFPA",
        "value": "may ignite at ambient temp",
        "links": [],
        "cross_references": []
      }
    },
    "adverse_effects": {
      "neurotoxin": {
        "original_name": "Neurotoxin",
        "value": "Acute solvent syndrome",
        "links": [],
        "cross_references": []
      }
    },
    "diseases_processes_and_activities_linked_to_this_agent": {
      "diseases": {
        "original_name": "Diseases",
        "value": "Occupational diseases associated with exposure to this agent: Encephalopathy, chronic solvent Solvents, acute toxic effect",
        "links": [
          {
            "text": "Encephalopathy, chronic solvent",
            "url": "https://haz-map.com/Diseases/325"
          },
          {
            "text": "Solvents, acute toxic effect",
            "url": "https://haz-map.com/Diseases/326"
          }
        ],
        "cross_references": [
          {
            "type": "url_match",
            "text": "Encephalopathy, chronic solvent",
            "url": "https://haz-map.com/Diseases/325",
            "confidence": 1.0,
            "uuid": "589ad578-4636-444e-8823-bf2dd0c7aeab",
            "name": "Encephalopathy, chronic solvent",
            "category": "diseases"
          },
          {
            "type": "url_match",
            "text": "Solvents, acute toxic effect",
            "url": "https://haz-map.com/Diseases/326",
            "confidence": 1.0,
            "uuid": "581e90e3-9d0c-45f0-aa6c-3468c28da129",
            "name": "Solvents, acute toxic effect",
            "category": "diseases"
          }
        ]
      },
      "processes": {
        "original_name": "Processes",
        "value": "Industrial Processes with risk of exposure: Painting (Solvents)",
        "links": [
          {
            "text": "Painting (Solvents)",
            "url": "https://haz-map.com/Processes/142"
          }
        ],
        "cross_references": [
          {
            "type": "url_match",
            "text": "Painting (Solvents)",
            "url": "https://haz-map.com/Processes/142",
            "confidence": 1.0,
            "uuid": "ca747481-4da1-4550-a546-f0d43a41b46c",
            "name": "Painting (Solvents)",
            "category": "processes"
          },
          {
            "type": "name_match",
            "text": "painting",
            "confidence": 1.0,
            "uuid": "19816ce9-9edf-4a86-8e64-b0cbf7dcf520",
            "name": "Painting",
            "url": "https://haz-map.com/Activities/9",
            "category": "activities"
          }
        ]
      }
    }
  },
  "cross_references": [
    {
      "type": "url_match",
      "text": "Encephalopathy, chronic solvent",
      "url": "https://haz-map.com/Diseases/325",
      "confidence": 1.0,
      "uuid": "589ad578-4636-444e-8823-bf2dd0c7aeab",
      "name": "Encephalopathy, chronic solvent",
      "category": "diseases"
    },
    {
      "type": "url_match",
      "text": "Solvents, acute toxic effect",
      "url": "https://haz-map.com/Diseases/326",
      "confidence": 1.0,
      "uuid": "581e90e3-9d0c-45f0-aa6c-3468c28da129",
      "name": "Solvents, acute toxic effect",
      "category": "diseases"
    },
    {
      "type": "url_match",
      "text": "Painting (Solvents)",
      "url": "https://haz-map.com/Processes/142",
      "confidence": 1.0,
      "uuid": "ca747481-4da1-4550-a546-f0d43a41b46c",
      "name": "Painting (Solvents)",
      "category": "processes"
    },
    {
      "type": "name_match",
      "text": "painting",
      "confidence": 1.0,
      "uuid": "19816ce9-9edf-4a86-8e64-b0cbf7dcf520",
      "name": "Painting",
      "url": "https://haz-map.com/Activities/9",
      "category": "activities"
    },
    {
      "type": "name_match",
      "text": "sec-butyl alcohol",
      "confidence": 1.0,
      "uuid": "bff03294-4b63-400c-8570-e87693551d5b",
      "name": "sec-Butyl alcohol",
      "url": "https://haz-map.com/Agents/326",
      "category": "agents"
    },
    {
      "type": "name_match",
      "text": "mica",
      "confidence": 1.0,
      "uuid": "433f26f1-c399-4596-b179-ce3843cfd465",
      "name": "Mica",
      "url": "https://haz-map.com/Agents/621",
      "category": "agents"
    },
    {
      "type": "name_match",
      "text": "ash",
      "confidence": 1.0,
      "uuid": "68b360f1-5ad0-4337-bea0-d7adca2961b5",
      "name": "Ash",
      "url": "https://haz-map.com/Agents/965",
      "category": "agents"
    },
    {
      "type": "fuzzy_match",
      "text": "organic compounds",
      "matched_name": "Tin, organic compounds",
      "confidence": 0.8196969696969697,
      "uuid": "e027d413-8869-4308-9eb2-27d768b011ea",
      "category": "agents",
      "url": "https://haz-map.com/Agents/656"
    }
  ],
  "all_links": [
    {
      "text": "NIOSH Occupational Health Guidelines for Chemical Hazards: sec-Butyl alcohol",
      "url": "https://www.cdc.gov/niosh/docs/81-123/pdfs/0077-rev.pdf?id=10.26616/NIOSHPUB81123"
    },
    {
      "text": "Search PubMed",
      "url": "https://www.ncbi.nlm.nih.gov/pubmed?term=sec-Butyl+alcohol%20AND%20human%5Bmh%5D%20AND%20%28Occupational%20Diseases%20%5Bmh%5D%20OR%20Occupational%20Exposure%20%5Bmh%5D%29%20%20AND%20%28tox%5Bsb%5D%29&cmd=search"
    },
    {
      "text": "Encephalopathy, chronic solvent",
      "url": "https://haz-map.com/Diseases/325"
    },
    {
      "text": "Solvents, acute toxic effect",
      "url": "https://haz-map.com/Diseases/326"
    },
    {
      "text": "Painting (Solvents)",
      "url": "https://haz-map.com/Processes/142"
    }
  ]
}