{
  "metadata": {
    "scraped_from": "https://haz-map.com/Agents/21019",
    "entity_name": "Hydroquinine",
    "category": "agents",
    "uuid": "bff5cceb-bace-48ba-8c64-cb1ed11cf981",
    "scraped_at": "2025-07-23T22:36:16.246805"
  },
  "parsed_at": "2025-07-24T00:56:08.192669",
  "title": "Hydroquinine",
  "sections": {
    "general": {
      "agent_name": {
        "original_name": "Agent Name",
        "value": "Hydroquinine",
        "links": [],
        "cross_references": [
          {
            "type": "name_match",
            "text": "hydroquinine",
            "confidence": 1.0,
            "uuid": "bff5cceb-bace-48ba-8c64-cb1ed11cf981",
            "name": "Hydroquinine",
            "url": "https://haz-map.com/Agents/21019",
            "category": "agents"
          }
        ]
      },
      "cas_number": {
        "original_name": "CAS Number",
        "value": "522-66-7",
        "links": [],
        "cross_references": []
      },
      "formula": {
        "original_name": "Formula",
        "value": "C20-H26-N2-O2",
        "links": [],
        "cross_references": []
      },
      "major_category": {
        "original_name": "Major Category",
        "value": "Biological Agents",
        "links": [],
        "cross_references": []
      },
      "synonyms": {
        "original_name": "Synonyms",
        "value": "Dihydroquinine; Quinine, 10,11-dihydro-; Cinchonan-9-ol, 10,11-dihydro-6'-methoxy-, (8alpha,9R)- (9CI); [ChemIDplus] (8alpha,9R)-10,11-Dihydro-6'-methoxycinchonan-9-ol; [Merck Index]",
        "links": [],
        "cross_references": [
          {
            "type": "name_match",
            "text": "hydroquinine",
            "confidence": 1.0,
            "uuid": "bff5cceb-bace-48ba-8c64-cb1ed11cf981",
            "name": "Hydroquinine",
            "url": "https://haz-map.com/Agents/21019",
            "category": "agents"
          }
        ]
      },
      "category": {
        "original_name": "Category",
        "value": "Plant Oils and Extracts",
        "links": [],
        "cross_references": []
      },
      "description": {
        "original_name": "Description",
        "value": "Solid; [Merck Index] Beige powder; [Sigma-Aldrich MSDS]",
        "links": [],
        "cross_references": []
      },
      "sourcesuses": {
        "original_name": "Sources/Uses",
        "value": "An alkaloid of cinchona; Used as a depigmentor; [Merck Index]",
        "links": [],
        "cross_references": []
      },
      "comments": {
        "original_name": "Comments",
        "value": "A skin and strong eye irritant; [Sigma-Aldrich MSDS]",
        "links": [],
        "cross_references": []
      },
      "biomedical_references": {
        "original_name": "Biomedical References",
        "value": "Search PubMed",
        "links": [
          {
            "text": "Search PubMed",
            "url": "https://www.ncbi.nlm.nih.gov/pubmed?term=Hydroquinine%20AND%20human%5Bmh%5D%20AND%20%28Occupational%20Diseases%20%5Bmh%5D%20OR%20Occupational%20Exposure%20%5Bmh%5D%29%20%20AND%20%28tox%5Bsb%5D%29&cmd=search"
          }
        ],
        "cross_references": []
      }
    },
    "exposure_assessment": {
      "vapor_pressure": {
        "original_name": "Vapor Pressure",
        "value": "1.03E-10 mm Hg",
        "links": [],
        "cross_references": []
      }
    },
    "diseases_processes_and_activities_linked_to_this_agent": {
      "other_information": {
        "original_name": "Other Information",
        "value": "No other related information on this agent was found.",
        "links": [],
        "cross_references": []
      }
    }
  },
  "cross_references": [
    {
      "type": "name_match",
      "text": "hydroquinine",
      "confidence": 1.0,
      "uuid": "bff5cceb-bace-48ba-8c64-cb1ed11cf981",
      "name": "Hydroquinine",
      "url": "https://haz-map.com/Agents/21019",
      "category": "agents"
    }
  ],
  "all_links": [
    {
      "text": "Search PubMed",
      "url": "https://www.ncbi.nlm.nih.gov/pubmed?term=Hydroquinine%20AND%20human%5Bmh%5D%20AND%20%28Occupational%20Diseases%20%5Bmh%5D%20OR%20Occupational%20Exposure%20%5Bmh%5D%29%20%20AND%20%28tox%5Bsb%5D%29&cmd=search"
    }
  ]
}