{
  "metadata": {
    "scraped_from": "https://haz-map.com/Agents/4947",
    "entity_name": "Dimethyl glutarate",
    "category": "agents",
    "uuid": "c05fa073-45ca-4465-addd-abe2148f57a5",
    "scraped_at": "2025-07-23T19:47:04.036617"
  },
  "parsed_at": "2025-07-24T00:52:21.198933",
  "title": "Dimethyl glutarate",
  "sections": {
    "general": {
      "agent_name": {
        "original_name": "Agent Name",
        "value": "Dimethyl glutarate",
        "links": [],
        "cross_references": [
          {
            "type": "name_match",
            "text": "dimethyl glutarate",
            "confidence": 1.0,
            "uuid": "c05fa073-45ca-4465-addd-abe2148f57a5",
            "name": "Dimethyl glutarate",
            "url": "https://haz-map.com/Agents/4947",
            "category": "agents"
          }
        ]
      },
      "cas_number": {
        "original_name": "CAS Number",
        "value": "1119-40-0",
        "links": [],
        "cross_references": []
      },
      "formula": {
        "original_name": "Formula",
        "value": "C7-H12-O4",
        "links": [],
        "cross_references": []
      },
      "major_category": {
        "original_name": "Major Category",
        "value": "Other Classes",
        "links": [],
        "cross_references": []
      },
      "synonyms": {
        "original_name": "Synonyms",
        "value": "DBE 5; Dimethyl pentanedioate; Glutaric acid, dimethyl ester; Pentanedioic acid, dimethyl ester; [ChemIDplus]",
        "links": [],
        "cross_references": [
          {
            "type": "name_match",
            "text": "glutaric acid",
            "confidence": 1.0,
            "uuid": "ca2bc921-af4b-4811-896e-fd1810699438",
            "name": "Glutaric acid",
            "url": "https://haz-map.com/Agents/5433",
            "category": "agents"
          }
        ]
      },
      "category": {
        "original_name": "Category",
        "value": "Esters, Other",
        "links": [],
        "cross_references": []
      },
      "description": {
        "original_name": "Description",
        "value": "Liquid with an agreeable odor; [HSDB]",
        "links": [],
        "cross_references": []
      },
      "sourcesuses": {
        "original_name": "Sources/Uses",
        "value": "Used to make polyester and polyamide resins; [HSDB]",
        "links": [],
        "cross_references": []
      },
      "comments": {
        "original_name": "Comments",
        "value": "May cause irritation; [MSDSonline]",
        "links": [],
        "cross_references": []
      },
      "biomedical_references": {
        "original_name": "Biomedical References",
        "value": "Search PubMed",
        "links": [
          {
            "text": "Search PubMed",
            "url": "https://www.ncbi.nlm.nih.gov/pubmed?term=Dimethyl+glutarate%20AND%20human%5Bmh%5D%20AND%20%28Occupational%20Diseases%20%5Bmh%5D%20OR%20Occupational%20Exposure%20%5Bmh%5D%29%20%20AND%20%28tox%5Bsb%5D%29&cmd=search"
          }
        ],
        "cross_references": []
      }
    },
    "exposure_assessment": {
      "explanatory_notes": {
        "original_name": "Explanatory Notes",
        "value": "Flash point = 103 deg C; [CAMEO]",
        "links": [],
        "cross_references": [
          {
            "type": "name_match",
            "text": "ash",
            "confidence": 1.0,
            "uuid": "68b360f1-5ad0-4337-bea0-d7adca2961b5",
            "name": "Ash",
            "url": "https://haz-map.com/Agents/965",
            "category": "agents"
          }
        ]
      }
    },
    "diseases_processes_and_activities_linked_to_this_agent": {
      "other_information": {
        "original_name": "Other Information",
        "value": "No other related information on this agent was found.",
        "links": [],
        "cross_references": []
      }
    }
  },
  "cross_references": [
    {
      "type": "name_match",
      "text": "ash",
      "confidence": 1.0,
      "uuid": "68b360f1-5ad0-4337-bea0-d7adca2961b5",
      "name": "Ash",
      "url": "https://haz-map.com/Agents/965",
      "category": "agents"
    },
    {
      "type": "name_match",
      "text": "dimethyl glutarate",
      "confidence": 1.0,
      "uuid": "c05fa073-45ca-4465-addd-abe2148f57a5",
      "name": "Dimethyl glutarate",
      "url": "https://haz-map.com/Agents/4947",
      "category": "agents"
    },
    {
      "type": "name_match",
      "text": "glutaric acid",
      "confidence": 1.0,
      "uuid": "ca2bc921-af4b-4811-896e-fd1810699438",
      "name": "Glutaric acid",
      "url": "https://haz-map.com/Agents/5433",
      "category": "agents"
    }
  ],
  "all_links": [
    {
      "text": "Search PubMed",
      "url": "https://www.ncbi.nlm.nih.gov/pubmed?term=Dimethyl+glutarate%20AND%20human%5Bmh%5D%20AND%20%28Occupational%20Diseases%20%5Bmh%5D%20OR%20Occupational%20Exposure%20%5Bmh%5D%29%20%20AND%20%28tox%5Bsb%5D%29&cmd=search"
    }
  ]
}