{
  "metadata": {
    "scraped_from": "https://haz-map.com/Agents/15543",
    "entity_name": "Dimethyl sulfone",
    "category": "agents",
    "uuid": "c07bd57e-58f3-4c6f-bcc7-cf51bc74a358",
    "scraped_at": "2025-07-23T21:30:39.320249"
  },
  "parsed_at": "2025-07-24T00:57:53.512010",
  "title": "Dimethyl sulfone",
  "sections": {
    "general": {
      "agent_name": {
        "original_name": "Agent Name",
        "value": "Dimethyl sulfone",
        "links": [],
        "cross_references": [
          {
            "type": "name_match",
            "text": "dimethyl sulfone",
            "confidence": 1.0,
            "uuid": "c07bd57e-58f3-4c6f-bcc7-cf51bc74a358",
            "name": "Dimethyl sulfone",
            "url": "https://haz-map.com/Agents/15543",
            "category": "agents"
          }
        ]
      },
      "cas_number": {
        "original_name": "CAS Number",
        "value": "67-71-0",
        "links": [],
        "cross_references": []
      },
      "formula": {
        "original_name": "Formula",
        "value": "C2-H6-O2-S",
        "links": [],
        "cross_references": []
      },
      "major_category": {
        "original_name": "Major Category",
        "value": "Other Classes",
        "links": [],
        "cross_references": []
      },
      "synonyms": {
        "original_name": "Synonyms",
        "value": "Methane, sulfonylbis-; Methylsulfonyl methane; Dimethyl sulphone; MSM; Methyl sulfone; Methylsulfonylmethane; Sulfonylbismethane; Methane, 1,1'-sulfonylbis-; [ChemIDplus] 1,1′-Sulfonylbismethane; DMSO2; [Merck Index]",
        "links": [],
        "cross_references": [
          {
            "type": "name_match",
            "text": "methane",
            "confidence": 1.0,
            "uuid": "5018bf73-24be-4353-8643-c351d5f52186",
            "name": "Methane",
            "url": "https://haz-map.com/Agents/1074",
            "category": "agents"
          },
          {
            "type": "name_match",
            "text": "ethane",
            "confidence": 1.0,
            "uuid": "5162cc8c-dfb9-4060-81ac-38a8cec7f9dd",
            "name": "Ethane",
            "url": "https://haz-map.com/Agents/1075",
            "category": "agents"
          }
        ]
      },
      "category": {
        "original_name": "Category",
        "value": "Sulfur Compounds",
        "links": [],
        "cross_references": [
          {
            "type": "name_match",
            "text": "sulfur",
            "confidence": 1.0,
            "uuid": "5aabdef6-71c8-44c8-b762-feaabff50696",
            "name": "Sulfur",
            "url": "https://haz-map.com/Agents/1942",
            "category": "agents"
          }
        ]
      },
      "description": {
        "original_name": "Description",
        "value": "Solid; [Merck Index] White crystalline powder; Odorless; [Alfa Aesar MSDS]",
        "links": [],
        "cross_references": [
          {
            "type": "fuzzy_match",
            "text": "crystalline",
            "matched_name": "Silica, crystalline",
            "confidence": 0.7061403508771931,
            "uuid": "f920e8a2-46df-41b7-af8d-0368a777251e",
            "category": "agents",
            "url": "https://haz-map.com/Agents/427"
          }
        ]
      },
      "sourcesuses": {
        "original_name": "Sources/Uses",
        "value": "Occurs in some plants and in the adrenal cortex of cattle; Used as a solvent; [Merck Index] A metabolite of dimethyl sulfoxide that naturally occurs in many foods; Marketed as a dietary supplement for promotion of joint health; [REPROTOX]",
        "links": [],
        "cross_references": [
          {
            "type": "name_match",
            "text": "dimethyl sulfoxide",
            "confidence": 1.0,
            "uuid": "c29c05b9-2a62-4c06-a205-f73b1ef4892d",
            "name": "Dimethyl sulfoxide",
            "url": "https://haz-map.com/Agents/1671",
            "category": "agents"
          }
        ]
      },
      "comments": {
        "original_name": "Comments",
        "value": "No evidence of teratogenicity in rats; [REPROTOX] Not a skin irritant; May cause eye irritation; [Alfa Aesar MSDS] See \"Dimethyl sulfoxide.\" See \"Dipropyl sulfone.\"",
        "links": [],
        "cross_references": [
          {
            "type": "name_match",
            "text": "dimethyl sulfoxide",
            "confidence": 1.0,
            "uuid": "c29c05b9-2a62-4c06-a205-f73b1ef4892d",
            "name": "Dimethyl sulfoxide",
            "url": "https://haz-map.com/Agents/1671",
            "category": "agents"
          },
          {
            "type": "name_match",
            "text": "dipropyl sulfone",
            "confidence": 1.0,
            "uuid": "c5e0fe67-e022-4f4b-81f3-71ea7f4195b5",
            "name": "Dipropyl sulfone",
            "url": "https://haz-map.com/Agents/5011",
            "category": "agents"
          }
        ]
      },
      "biomedical_references": {
        "original_name": "Biomedical References",
        "value": "Search PubMed",
        "links": [
          {
            "text": "Search PubMed",
            "url": "https://www.ncbi.nlm.nih.gov/pubmed?term=Dimethyl+sulfone%20AND%20human%5Bmh%5D%20AND%20%28Occupational%20Diseases%20%5Bmh%5D%20OR%20Occupational%20Exposure%20%5Bmh%5D%29%20%20AND%20%28tox%5Bsb%5D%29&cmd=search"
          }
        ],
        "cross_references": []
      }
    },
    "exposure_assessment": {
      "vapor_pressure": {
        "original_name": "Vapor Pressure",
        "value": "5.15 mm Hg",
        "links": [],
        "cross_references": []
      }
    },
    "diseases_processes_and_activities_linked_to_this_agent": {
      "other_information": {
        "original_name": "Other Information",
        "value": "No other related information on this agent was found.",
        "links": [],
        "cross_references": []
      }
    }
  },
  "cross_references": [
    {
      "type": "name_match",
      "text": "methane",
      "confidence": 1.0,
      "uuid": "5018bf73-24be-4353-8643-c351d5f52186",
      "name": "Methane",
      "url": "https://haz-map.com/Agents/1074",
      "category": "agents"
    },
    {
      "type": "name_match",
      "text": "ethane",
      "confidence": 1.0,
      "uuid": "5162cc8c-dfb9-4060-81ac-38a8cec7f9dd",
      "name": "Ethane",
      "url": "https://haz-map.com/Agents/1075",
      "category": "agents"
    },
    {
      "type": "name_match",
      "text": "dimethyl sulfoxide",
      "confidence": 1.0,
      "uuid": "c29c05b9-2a62-4c06-a205-f73b1ef4892d",
      "name": "Dimethyl sulfoxide",
      "url": "https://haz-map.com/Agents/1671",
      "category": "agents"
    },
    {
      "type": "name_match",
      "text": "sulfur",
      "confidence": 1.0,
      "uuid": "5aabdef6-71c8-44c8-b762-feaabff50696",
      "name": "Sulfur",
      "url": "https://haz-map.com/Agents/1942",
      "category": "agents"
    },
    {
      "type": "name_match",
      "text": "dipropyl sulfone",
      "confidence": 1.0,
      "uuid": "c5e0fe67-e022-4f4b-81f3-71ea7f4195b5",
      "name": "Dipropyl sulfone",
      "url": "https://haz-map.com/Agents/5011",
      "category": "agents"
    },
    {
      "type": "name_match",
      "text": "dimethyl sulfone",
      "confidence": 1.0,
      "uuid": "c07bd57e-58f3-4c6f-bcc7-cf51bc74a358",
      "name": "Dimethyl sulfone",
      "url": "https://haz-map.com/Agents/15543",
      "category": "agents"
    },
    {
      "type": "fuzzy_match",
      "text": "crystalline",
      "matched_name": "Silica, crystalline",
      "confidence": 0.7061403508771931,
      "uuid": "f920e8a2-46df-41b7-af8d-0368a777251e",
      "category": "agents",
      "url": "https://haz-map.com/Agents/427"
    }
  ],
  "all_links": [
    {
      "text": "Search PubMed",
      "url": "https://www.ncbi.nlm.nih.gov/pubmed?term=Dimethyl+sulfone%20AND%20human%5Bmh%5D%20AND%20%28Occupational%20Diseases%20%5Bmh%5D%20OR%20Occupational%20Exposure%20%5Bmh%5D%29%20%20AND%20%28tox%5Bsb%5D%29&cmd=search"
    }
  ]
}