{
  "metadata": {
    "scraped_from": "https://haz-map.com/Agents/21489",
    "entity_name": "4-Hydroxybenzyl alcohol",
    "category": "agents",
    "uuid": "c09be3bd-3e4b-4d44-b2ed-bff8c49cf344",
    "scraped_at": "2025-07-23T22:44:55.910946"
  },
  "parsed_at": "2025-07-24T01:05:01.194924",
  "title": "4-Hydroxybenzyl alcohol",
  "sections": {
    "general": {
      "agent_name": {
        "original_name": "Agent Name",
        "value": "4-Hydroxybenzyl alcohol",
        "links": [],
        "cross_references": [
          {
            "type": "name_match",
            "text": "benzyl alcohol",
            "confidence": 1.0,
            "uuid": "aa5ddab1-d568-4556-bbb6-b1adaca0f801",
            "name": "Benzyl alcohol",
            "url": "https://haz-map.com/Agents/1267",
            "category": "agents"
          },
          {
            "type": "name_match",
            "text": "4-hydroxybenzyl alcohol",
            "confidence": 1.0,
            "uuid": "c09be3bd-3e4b-4d44-b2ed-bff8c49cf344",
            "name": "4-Hydroxybenzyl alcohol",
            "url": "https://haz-map.com/Agents/21489",
            "category": "agents"
          }
        ]
      },
      "cas_number": {
        "original_name": "CAS Number",
        "value": "623-05-2",
        "links": [],
        "cross_references": []
      },
      "formula": {
        "original_name": "Formula",
        "value": "C7-H8-O2",
        "links": [],
        "cross_references": []
      },
      "major_category": {
        "original_name": "Major Category",
        "value": "Other Classes",
        "links": [],
        "cross_references": []
      },
      "synonyms": {
        "original_name": "Synonyms",
        "value": "4-(Hydroxymethyl)phenol; 4-Hydroxybenzenemethanol; 4-Methylolphenol; alpha-Hydroxy-p-cresol; p-(Hydroxymethyl)phenol; p-Methylolphenol; Benzenemethanol, 4-hydroxy-; Benzyl alcohol, p-hydroxy- (8CI); p-Hydroxybenzyl alcohol; [ChemIDplus] (4-Hydroxyphenyl)methanol; [JECFA]",
        "links": [],
        "cross_references": [
          {
            "type": "name_match",
            "text": "benzene",
            "confidence": 1.0,
            "uuid": "b05124de-5f34-4c14-8f04-ccb20c3780d9",
            "name": "Benzene",
            "url": "https://haz-map.com/Agents/5",
            "category": "agents"
          },
          {
            "type": "name_match",
            "text": "phenol",
            "confidence": 1.0,
            "uuid": "03141a03-a7df-4f51-9a37-adde1a7c4b31",
            "name": "Phenol",
            "url": "https://haz-map.com/Agents/84",
            "category": "agents"
          },
          {
            "type": "name_match",
            "text": "benzyl alcohol",
            "confidence": 1.0,
            "uuid": "aa5ddab1-d568-4556-bbb6-b1adaca0f801",
            "name": "Benzyl alcohol",
            "url": "https://haz-map.com/Agents/1267",
            "category": "agents"
          },
          {
            "type": "name_match",
            "text": "p-cresol",
            "confidence": 1.0,
            "uuid": "83dc0e97-a553-4ff2-bf69-99074b62caad",
            "name": "p-Cresol",
            "url": "https://haz-map.com/Agents/16387",
            "category": "agents"
          }
        ]
      },
      "category": {
        "original_name": "Category",
        "value": "Phenols",
        "links": [],
        "cross_references": [
          {
            "type": "name_match",
            "text": "phenol",
            "confidence": 1.0,
            "uuid": "03141a03-a7df-4f51-9a37-adde1a7c4b31",
            "name": "Phenol",
            "url": "https://haz-map.com/Agents/84",
            "category": "agents"
          }
        ]
      },
      "description": {
        "original_name": "Description",
        "value": "White to cream crystalline powder; [Alfa Aesar MSDS]",
        "links": [],
        "cross_references": [
          {
            "type": "fuzzy_match",
            "text": "crystalline",
            "matched_name": "Silica, crystalline",
            "confidence": 0.7061403508771931,
            "uuid": "f920e8a2-46df-41b7-af8d-0368a777251e",
            "category": "agents",
            "url": "https://haz-map.com/Agents/427"
          }
        ]
      },
      "sourcesuses": {
        "original_name": "Sources/Uses",
        "value": "Used as a flavoring agent; [FDA]",
        "links": [],
        "cross_references": []
      },
      "comments": {
        "original_name": "Comments",
        "value": "Causes other degenerative changes to brain and effects on other enzymes in acute intraperitoneal studies of mice; Human dermal administration causes allergic dermatitis and cutaneous sensitization in 2-day studies; [RTECS] Safe when used as a flavoring agent in food; [JECFA] A skin and strong eye irritant; [Alfa Aesar MSDS]",
        "links": [],
        "cross_references": [
          {
            "type": "name_match",
            "text": "dermatitis",
            "confidence": 1.0,
            "uuid": "fe9c05f2-b19f-4ceb-ac7a-ffb7d7a0cae0",
            "name": "dermatitis",
            "url": "https://haz-map.com/Findings/59",
            "category": "findings"
          },
          {
            "type": "name_match",
            "text": "enzymes",
            "confidence": 1.0,
            "uuid": "fe84a5f3-127f-4a3f-bd93-9a905dddee93",
            "name": "ENZYMES",
            "url": "https://haz-map.com/Agents/741",
            "category": "agents"
          }
        ]
      },
      "reference_link_1": {
        "original_name": "Reference Link #1",
        "value": "Sensitizing capacity of 2-methylol phenol, 4-methylol phenol and 2,4,6-trimethylol phenol in the guinea pig.",
        "links": [
          {
            "text": "Sensitizing capacity of 2-methylol phenol, 4-methylol phenol and 2,4,6-trimethylol phenol in the guinea pig.",
            "url": "http://www.ncbi.nlm.nih.gov/pubmed/3948507"
          }
        ],
        "cross_references": [
          {
            "type": "name_match",
            "text": "phenol",
            "confidence": 1.0,
            "uuid": "03141a03-a7df-4f51-9a37-adde1a7c4b31",
            "name": "Phenol",
            "url": "https://haz-map.com/Agents/84",
            "category": "agents"
          },
          {
            "type": "name_match",
            "text": "2-methylol phenol",
            "confidence": 1.0,
            "uuid": "86f063fd-908f-4f5e-91de-2bbfcfbf6092",
            "name": "2-Methylol phenol",
            "url": "https://haz-map.com/Agents/1281",
            "category": "agents"
          }
        ]
      },
      "biomedical_references": {
        "original_name": "Biomedical References",
        "value": "Search PubMed",
        "links": [
          {
            "text": "Search PubMed",
            "url": "https://www.ncbi.nlm.nih.gov/pubmed?term=4-Hydroxybenzyl+alcohol%20AND%20human%5Bmh%5D%20AND%20%28Occupational%20Diseases%20%5Bmh%5D%20OR%20Occupational%20Exposure%20%5Bmh%5D%29%20%20AND%20%28tox%5Bsb%5D%29&cmd=search"
          }
        ],
        "cross_references": []
      }
    },
    "exposure_assessment": {
      "vapor_pressure": {
        "original_name": "Vapor Pressure",
        "value": "0.000825 mm Hg",
        "links": [],
        "cross_references": []
      }
    },
    "adverse_effects": {
      "skin_sensitizer": {
        "original_name": "Skin Sensitizer",
        "value": "Yes",
        "links": [],
        "cross_references": []
      }
    },
    "diseases_processes_and_activities_linked_to_this_agent": {
      "diseases": {
        "original_name": "Diseases",
        "value": "Occupational diseases associated with exposure to this agent: Contact dermatitis, allergic",
        "links": [
          {
            "text": "Contact dermatitis, allergic",
            "url": "https://haz-map.com/Diseases/18"
          }
        ],
        "cross_references": [
          {
            "type": "url_match",
            "text": "Contact dermatitis, allergic",
            "url": "https://haz-map.com/Diseases/18",
            "confidence": 1.0,
            "uuid": "c9499de0-9aa1-41bf-8753-cd5b28a63e29",
            "name": "Contact dermatitis, allergic",
            "category": "diseases"
          },
          {
            "type": "name_match",
            "text": "dermatitis",
            "confidence": 1.0,
            "uuid": "fe9c05f2-b19f-4ceb-ac7a-ffb7d7a0cae0",
            "name": "dermatitis",
            "url": "https://haz-map.com/Findings/59",
            "category": "findings"
          }
        ]
      }
    }
  },
  "cross_references": [
    {
      "type": "url_match",
      "text": "Contact dermatitis, allergic",
      "url": "https://haz-map.com/Diseases/18",
      "confidence": 1.0,
      "uuid": "c9499de0-9aa1-41bf-8753-cd5b28a63e29",
      "name": "Contact dermatitis, allergic",
      "category": "diseases"
    },
    {
      "type": "name_match",
      "text": "dermatitis",
      "confidence": 1.0,
      "uuid": "fe9c05f2-b19f-4ceb-ac7a-ffb7d7a0cae0",
      "name": "dermatitis",
      "url": "https://haz-map.com/Findings/59",
      "category": "findings"
    },
    {
      "type": "name_match",
      "text": "benzene",
      "confidence": 1.0,
      "uuid": "b05124de-5f34-4c14-8f04-ccb20c3780d9",
      "name": "Benzene",
      "url": "https://haz-map.com/Agents/5",
      "category": "agents"
    },
    {
      "type": "name_match",
      "text": "phenol",
      "confidence": 1.0,
      "uuid": "03141a03-a7df-4f51-9a37-adde1a7c4b31",
      "name": "Phenol",
      "url": "https://haz-map.com/Agents/84",
      "category": "agents"
    },
    {
      "type": "name_match",
      "text": "enzymes",
      "confidence": 1.0,
      "uuid": "fe84a5f3-127f-4a3f-bd93-9a905dddee93",
      "name": "ENZYMES",
      "url": "https://haz-map.com/Agents/741",
      "category": "agents"
    },
    {
      "type": "name_match",
      "text": "benzyl alcohol",
      "confidence": 1.0,
      "uuid": "aa5ddab1-d568-4556-bbb6-b1adaca0f801",
      "name": "Benzyl alcohol",
      "url": "https://haz-map.com/Agents/1267",
      "category": "agents"
    },
    {
      "type": "name_match",
      "text": "2-methylol phenol",
      "confidence": 1.0,
      "uuid": "86f063fd-908f-4f5e-91de-2bbfcfbf6092",
      "name": "2-Methylol phenol",
      "url": "https://haz-map.com/Agents/1281",
      "category": "agents"
    },
    {
      "type": "name_match",
      "text": "p-cresol",
      "confidence": 1.0,
      "uuid": "83dc0e97-a553-4ff2-bf69-99074b62caad",
      "name": "p-Cresol",
      "url": "https://haz-map.com/Agents/16387",
      "category": "agents"
    },
    {
      "type": "name_match",
      "text": "4-hydroxybenzyl alcohol",
      "confidence": 1.0,
      "uuid": "c09be3bd-3e4b-4d44-b2ed-bff8c49cf344",
      "name": "4-Hydroxybenzyl alcohol",
      "url": "https://haz-map.com/Agents/21489",
      "category": "agents"
    },
    {
      "type": "fuzzy_match",
      "text": "crystalline",
      "matched_name": "Silica, crystalline",
      "confidence": 0.7061403508771931,
      "uuid": "f920e8a2-46df-41b7-af8d-0368a777251e",
      "category": "agents",
      "url": "https://haz-map.com/Agents/427"
    }
  ],
  "all_links": [
    {
      "text": "Sensitizing capacity of 2-methylol phenol, 4-methylol phenol and 2,4,6-trimethylol phenol in the guinea pig.",
      "url": "http://www.ncbi.nlm.nih.gov/pubmed/3948507"
    },
    {
      "text": "Search PubMed",
      "url": "https://www.ncbi.nlm.nih.gov/pubmed?term=4-Hydroxybenzyl+alcohol%20AND%20human%5Bmh%5D%20AND%20%28Occupational%20Diseases%20%5Bmh%5D%20OR%20Occupational%20Exposure%20%5Bmh%5D%29%20%20AND%20%28tox%5Bsb%5D%29&cmd=search"
    },
    {
      "text": "Contact dermatitis, allergic",
      "url": "https://haz-map.com/Diseases/18"
    }
  ]
}