{
  "metadata": {
    "scraped_from": "https://haz-map.com/Agents/9652",
    "entity_name": "3-Bromonitrobenzene",
    "category": "agents",
    "uuid": "c0e15fa4-35ce-4e4d-ae1d-7134c83b9ac3",
    "scraped_at": "2025-07-23T20:40:34.947730"
  },
  "parsed_at": "2025-07-24T00:52:26.002311",
  "title": "3-Bromonitrobenzene",
  "sections": {
    "general": {
      "agent_name": {
        "original_name": "Agent Name",
        "value": "3-Bromonitrobenzene",
        "links": [],
        "cross_references": [
          {
            "type": "name_match",
            "text": "benzene",
            "confidence": 1.0,
            "uuid": "b05124de-5f34-4c14-8f04-ccb20c3780d9",
            "name": "Benzene",
            "url": "https://haz-map.com/Agents/5",
            "category": "agents"
          },
          {
            "type": "name_match",
            "text": "nitrobenzene",
            "confidence": 1.0,
            "uuid": "4488262c-4790-4774-a462-bf0cc71ff40c",
            "name": "Nitrobenzene",
            "url": "https://haz-map.com/Agents/569",
            "category": "agents"
          },
          {
            "type": "name_match",
            "text": "3-bromonitrobenzene",
            "confidence": 1.0,
            "uuid": "c0e15fa4-35ce-4e4d-ae1d-7134c83b9ac3",
            "name": "3-Bromonitrobenzene",
            "url": "https://haz-map.com/Agents/9652",
            "category": "agents"
          }
        ]
      },
      "cas_number": {
        "original_name": "CAS Number",
        "value": "585-79-5",
        "links": [],
        "cross_references": []
      },
      "formula": {
        "original_name": "Formula",
        "value": "C6-H4-Br-N-O2",
        "links": [],
        "cross_references": []
      },
      "major_category": {
        "original_name": "Major Category",
        "value": "Nitrogen Compounds",
        "links": [],
        "cross_references": [
          {
            "type": "name_match",
            "text": "nitrogen",
            "confidence": 1.0,
            "uuid": "db5e90a9-06d2-45b9-8b81-f345a89b0bc0",
            "name": "Nitrogen",
            "url": "https://haz-map.com/Agents/1072",
            "category": "agents"
          }
        ]
      },
      "synonyms": {
        "original_name": "Synonyms",
        "value": "1-Bromo-3-nitrobenzene; 3-Nitrobromobenzene; m-Bromonitrobenzene; m-Nitrobromobenzene; Benzene, 1-bromo-3-nitro-; [ChemIDplus] UN2732",
        "links": [],
        "cross_references": [
          {
            "type": "name_match",
            "text": "benzene",
            "confidence": 1.0,
            "uuid": "b05124de-5f34-4c14-8f04-ccb20c3780d9",
            "name": "Benzene",
            "url": "https://haz-map.com/Agents/5",
            "category": "agents"
          },
          {
            "type": "name_match",
            "text": "nitrobenzene",
            "confidence": 1.0,
            "uuid": "4488262c-4790-4774-a462-bf0cc71ff40c",
            "name": "Nitrobenzene",
            "url": "https://haz-map.com/Agents/569",
            "category": "agents"
          },
          {
            "type": "name_match",
            "text": "bromobenzene",
            "confidence": 1.0,
            "uuid": "8d6cd7c3-5ba3-4909-b970-bc239418c7f1",
            "name": "Bromobenzene",
            "url": "https://haz-map.com/Agents/1889",
            "category": "agents"
          }
        ]
      },
      "category": {
        "original_name": "Category",
        "value": "Nitros, Aromatic",
        "links": [],
        "cross_references": []
      },
      "description": {
        "original_name": "Description",
        "value": "Light yellow or tan solid; [Alfa Aesar MSDS]",
        "links": [],
        "cross_references": [
          {
            "type": "name_match",
            "text": "ht",
            "confidence": 1.0,
            "uuid": "764df367-8d53-4a11-81a2-31ccfe122a8d",
            "name": "HT",
            "url": "https://haz-map.com/Agents/2168",
            "category": "agents"
          }
        ]
      },
      "comments": {
        "original_name": "Comments",
        "value": "An irritant; May induce methemoglobinemia; Harmful by ingestion, inhalation, and skin absorption; May have cumulative adverse effects to health; [Alfa Aesar MSDS]",
        "links": [],
        "cross_references": [
          {
            "type": "name_match",
            "text": "methemoglobin",
            "confidence": 1.0,
            "uuid": "afb7ebf5-d2a3-4e60-8d2e-3a19456344ee",
            "name": "Methemoglobin",
            "url": "https://haz-map.com/Agents/15467",
            "category": "agents"
          },
          {
            "type": "fuzzy_match",
            "text": "methemoglobinemia",
            "matched_name": "Methemoglobinemia, acute",
            "confidence": 0.7208333333333333,
            "uuid": "473a44bd-cf11-4710-a769-e8e2b25ba317",
            "category": "diseases",
            "url": "https://haz-map.com/Diseases/210"
          }
        ]
      },
      "biomedical_references": {
        "original_name": "Biomedical References",
        "value": "Search PubMed",
        "links": [
          {
            "text": "Search PubMed",
            "url": "https://www.ncbi.nlm.nih.gov/pubmed?term=3-Bromonitrobenzene%20AND%20human%5Bmh%5D%20AND%20%28Occupational%20Diseases%20%5Bmh%5D%20OR%20Occupational%20Exposure%20%5Bmh%5D%29%20%20AND%20%28tox%5Bsb%5D%29&cmd=search"
          }
        ],
        "cross_references": []
      }
    },
    "exposure_assessment": {
      "vapor_pressure": {
        "original_name": "Vapor Pressure",
        "value": "0.07 mm Hg",
        "links": [],
        "cross_references": []
      },
      "explanatory_notes": {
        "original_name": "Explanatory Notes",
        "value": "The Guide in the Emergency Response Guidebook is for \"Nitrobromobenzenes.\" VP from ChemIDplus;",
        "links": [],
        "cross_references": [
          {
            "type": "name_match",
            "text": "benzene",
            "confidence": 1.0,
            "uuid": "b05124de-5f34-4c14-8f04-ccb20c3780d9",
            "name": "Benzene",
            "url": "https://haz-map.com/Agents/5",
            "category": "agents"
          },
          {
            "type": "name_match",
            "text": "bromobenzene",
            "confidence": 1.0,
            "uuid": "8d6cd7c3-5ba3-4909-b970-bc239418c7f1",
            "name": "Bromobenzene",
            "url": "https://haz-map.com/Agents/1889",
            "category": "agents"
          }
        ]
      }
    },
    "adverse_effects": {
      "methemoglobinemia": {
        "original_name": "Methemoglobinemia",
        "value": "MetHgb is secondary toxic effect",
        "links": [],
        "cross_references": []
      }
    },
    "diseases_processes_and_activities_linked_to_this_agent": {
      "other_information": {
        "original_name": "Other Information",
        "value": "No other related information on this agent was found.",
        "links": [],
        "cross_references": []
      }
    }
  },
  "cross_references": [
    {
      "type": "name_match",
      "text": "benzene",
      "confidence": 1.0,
      "uuid": "b05124de-5f34-4c14-8f04-ccb20c3780d9",
      "name": "Benzene",
      "url": "https://haz-map.com/Agents/5",
      "category": "agents"
    },
    {
      "type": "name_match",
      "text": "nitrobenzene",
      "confidence": 1.0,
      "uuid": "4488262c-4790-4774-a462-bf0cc71ff40c",
      "name": "Nitrobenzene",
      "url": "https://haz-map.com/Agents/569",
      "category": "agents"
    },
    {
      "type": "name_match",
      "text": "nitrogen",
      "confidence": 1.0,
      "uuid": "db5e90a9-06d2-45b9-8b81-f345a89b0bc0",
      "name": "Nitrogen",
      "url": "https://haz-map.com/Agents/1072",
      "category": "agents"
    },
    {
      "type": "name_match",
      "text": "bromobenzene",
      "confidence": 1.0,
      "uuid": "8d6cd7c3-5ba3-4909-b970-bc239418c7f1",
      "name": "Bromobenzene",
      "url": "https://haz-map.com/Agents/1889",
      "category": "agents"
    },
    {
      "type": "name_match",
      "text": "ht",
      "confidence": 1.0,
      "uuid": "764df367-8d53-4a11-81a2-31ccfe122a8d",
      "name": "HT",
      "url": "https://haz-map.com/Agents/2168",
      "category": "agents"
    },
    {
      "type": "name_match",
      "text": "3-bromonitrobenzene",
      "confidence": 1.0,
      "uuid": "c0e15fa4-35ce-4e4d-ae1d-7134c83b9ac3",
      "name": "3-Bromonitrobenzene",
      "url": "https://haz-map.com/Agents/9652",
      "category": "agents"
    },
    {
      "type": "name_match",
      "text": "methemoglobin",
      "confidence": 1.0,
      "uuid": "afb7ebf5-d2a3-4e60-8d2e-3a19456344ee",
      "name": "Methemoglobin",
      "url": "https://haz-map.com/Agents/15467",
      "category": "agents"
    },
    {
      "type": "fuzzy_match",
      "text": "methemoglobinemia",
      "matched_name": "Methemoglobinemia, acute",
      "confidence": 0.7208333333333333,
      "uuid": "473a44bd-cf11-4710-a769-e8e2b25ba317",
      "category": "diseases",
      "url": "https://haz-map.com/Diseases/210"
    }
  ],
  "all_links": [
    {
      "text": "Search PubMed",
      "url": "https://www.ncbi.nlm.nih.gov/pubmed?term=3-Bromonitrobenzene%20AND%20human%5Bmh%5D%20AND%20%28Occupational%20Diseases%20%5Bmh%5D%20OR%20Occupational%20Exposure%20%5Bmh%5D%29%20%20AND%20%28tox%5Bsb%5D%29&cmd=search"
    }
  ]
}