{
  "metadata": {
    "scraped_from": "https://haz-map.com/Agents/3812",
    "entity_name": "Behenic acid, methyl ester",
    "category": "agents",
    "uuid": "c11e0d77-0f05-4b85-ae8e-b6701c8c85bc",
    "scraped_at": "2025-07-23T19:33:20.630812"
  },
  "parsed_at": "2025-07-24T01:10:08.755547",
  "title": "Behenic acid, methyl ester",
  "sections": {
    "general": {
      "agent_name": {
        "original_name": "Agent Name",
        "value": "Behenic acid, methyl ester",
        "links": [],
        "cross_references": [
          {
            "type": "name_match",
            "text": "behenic acid",
            "confidence": 1.0,
            "uuid": "3231e4a7-a0d5-4af6-871a-3a17a646f0fe",
            "name": "Behenic acid",
            "url": "https://haz-map.com/Agents/3491",
            "category": "agents"
          },
          {
            "type": "name_match",
            "text": "behenic acid, methyl ester",
            "confidence": 1.0,
            "uuid": "c11e0d77-0f05-4b85-ae8e-b6701c8c85bc",
            "name": "Behenic acid, methyl ester",
            "url": "https://haz-map.com/Agents/3812",
            "category": "agents"
          }
        ]
      },
      "cas_number": {
        "original_name": "CAS Number",
        "value": "929-77-1",
        "links": [],
        "cross_references": []
      },
      "formula": {
        "original_name": "Formula",
        "value": "C23-H46-O2",
        "links": [],
        "cross_references": []
      },
      "major_category": {
        "original_name": "Major Category",
        "value": "Other Classes",
        "links": [],
        "cross_references": []
      },
      "synonyms": {
        "original_name": "Synonyms",
        "value": "Docosanoic acid, methyl ester; Methyl behenate; Methyl docosanoate; [ChemIDplus]",
        "links": [],
        "cross_references": []
      },
      "category": {
        "original_name": "Category",
        "value": "Esters, Other",
        "links": [],
        "cross_references": []
      },
      "description": {
        "original_name": "Description",
        "value": "Solid; [HSDB] White powder; [MSDSonline]",
        "links": [],
        "cross_references": []
      },
      "comments": {
        "original_name": "Comments",
        "value": "May cause irritation; [MSDSonline]",
        "links": [],
        "cross_references": []
      },
      "biomedical_references": {
        "original_name": "Biomedical References",
        "value": "Search PubMed",
        "links": [
          {
            "text": "Search PubMed",
            "url": "https://www.ncbi.nlm.nih.gov/pubmed?term=Behenic+acid%2c+methyl+ester%20AND%20human%5Bmh%5D%20AND%20%28Occupational%20Diseases%20%5Bmh%5D%20OR%20Occupational%20Exposure%20%5Bmh%5D%29%20%20AND%20%28tox%5Bsb%5D%29&cmd=search"
          }
        ],
        "cross_references": []
      }
    },
    "exposure_assessment": {
      "vapor_pressure": {
        "original_name": "Vapor Pressure",
        "value": "1.3E-06 mm Hg",
        "links": [],
        "cross_references": []
      }
    },
    "diseases_processes_and_activities_linked_to_this_agent": {
      "other_information": {
        "original_name": "Other Information",
        "value": "No other related information on this agent was found.",
        "links": [],
        "cross_references": []
      }
    }
  },
  "cross_references": [
    {
      "type": "name_match",
      "text": "behenic acid",
      "confidence": 1.0,
      "uuid": "3231e4a7-a0d5-4af6-871a-3a17a646f0fe",
      "name": "Behenic acid",
      "url": "https://haz-map.com/Agents/3491",
      "category": "agents"
    },
    {
      "type": "name_match",
      "text": "behenic acid, methyl ester",
      "confidence": 1.0,
      "uuid": "c11e0d77-0f05-4b85-ae8e-b6701c8c85bc",
      "name": "Behenic acid, methyl ester",
      "url": "https://haz-map.com/Agents/3812",
      "category": "agents"
    }
  ],
  "all_links": [
    {
      "text": "Search PubMed",
      "url": "https://www.ncbi.nlm.nih.gov/pubmed?term=Behenic+acid%2c+methyl+ester%20AND%20human%5Bmh%5D%20AND%20%28Occupational%20Diseases%20%5Bmh%5D%20OR%20Occupational%20Exposure%20%5Bmh%5D%29%20%20AND%20%28tox%5Bsb%5D%29&cmd=search"
    }
  ]
}