{
  "metadata": {
    "scraped_from": "https://haz-map.com/Agents/14412",
    "entity_name": "Glucosamine",
    "category": "agents",
    "uuid": "c12d5ccb-1cb5-437e-8cd2-492d6d2ef27f",
    "scraped_at": "2025-07-23T21:22:27.732795"
  },
  "parsed_at": "2025-07-24T01:10:47.494759",
  "title": "Glucosamine",
  "sections": {
    "general": {
      "agent_name": {
        "original_name": "Agent Name",
        "value": "Glucosamine",
        "links": [],
        "cross_references": [
          {
            "type": "name_match",
            "text": "glucosamine",
            "confidence": 1.0,
            "uuid": "c12d5ccb-1cb5-437e-8cd2-492d6d2ef27f",
            "name": "Glucosamine",
            "url": "https://haz-map.com/Agents/14412",
            "category": "agents"
          }
        ]
      },
      "cas_number": {
        "original_name": "CAS Number",
        "value": "3416-24-8",
        "links": [],
        "cross_references": []
      },
      "formula": {
        "original_name": "Formula",
        "value": "C6-H13-N-O5",
        "links": [],
        "cross_references": []
      },
      "major_category": {
        "original_name": "Major Category",
        "value": "Biological Agents",
        "links": [],
        "cross_references": []
      },
      "synonyms": {
        "original_name": "Synonyms",
        "value": "2-Amino-2-deoxyglucose; D-Glucose, 2-amino-2-deoxy-; 2-Amino-2-deoxy-D-glucose; 2-Amino-2-deoxy-beta-D-glucopyranose; Chitosamine; D-Glucosamine; Glucosamina [INN-Spanish]; Glucosaminum [INN-Latin]; [ChemIDplus]",
        "links": [],
        "cross_references": [
          {
            "type": "name_match",
            "text": "glucosamine",
            "confidence": 1.0,
            "uuid": "c12d5ccb-1cb5-437e-8cd2-492d6d2ef27f",
            "name": "Glucosamine",
            "url": "https://haz-map.com/Agents/14412",
            "category": "agents"
          },
          {
            "type": "name_match",
            "text": "glucose",
            "confidence": 1.0,
            "uuid": "329d86ed-6744-4566-825c-5247ed1a8f75",
            "name": "Glucose",
            "url": "https://haz-map.com/Agents/14413",
            "category": "agents"
          }
        ]
      },
      "category": {
        "original_name": "Category",
        "value": "Monosaccharides and Derivatives",
        "links": [],
        "cross_references": []
      },
      "description": {
        "original_name": "Description",
        "value": "Alpha and beta forms are solids; [Merck Index]",
        "links": [],
        "cross_references": []
      },
      "sourcesuses": {
        "original_name": "Sources/Uses",
        "value": "Present in chitin, mucoproteins, and mucopolysaccharides; [Merck Index] Used as a pharmaceutic aid, antiarthritic, and in biochemical research; [HSDB] \"Glucosamine (C6H13NO5) is an amino sugar and a prominent precursor in the biochemical synthesis of glycosylated proteins and lipids. Glucosamine is part of the structure of the polysaccharides chitosan and chitin, which compose the exoskeletons of crustaceans and other arthropods, cell walls in fungi and many higher organisms. Glucosamine is one of the most abundant monosaccharides.\" [Wikipedia]",
        "links": [],
        "cross_references": [
          {
            "type": "name_match",
            "text": "mica",
            "confidence": 1.0,
            "uuid": "433f26f1-c399-4596-b179-ce3843cfd465",
            "name": "Mica",
            "url": "https://haz-map.com/Agents/621",
            "category": "agents"
          },
          {
            "type": "name_match",
            "text": "fungi",
            "confidence": 1.0,
            "uuid": "e0d489cb-bfee-4aee-b665-999c017268a2",
            "name": "Fungi",
            "url": "https://haz-map.com/Agents/1988",
            "category": "agents"
          },
          {
            "type": "name_match",
            "text": "chitin",
            "confidence": 1.0,
            "uuid": "28aa88c6-2cf7-4698-9624-5c2178b15c2f",
            "name": "Chitin",
            "url": "https://haz-map.com/Agents/12895",
            "category": "agents"
          },
          {
            "type": "name_match",
            "text": "chitosan",
            "confidence": 1.0,
            "uuid": "c2fb596e-8c0e-428a-81dc-f9ecb01f498f",
            "name": "Chitosan",
            "url": "https://haz-map.com/Agents/12896",
            "category": "agents"
          },
          {
            "type": "name_match",
            "text": "glucosamine",
            "confidence": 1.0,
            "uuid": "c12d5ccb-1cb5-437e-8cd2-492d6d2ef27f",
            "name": "Glucosamine",
            "url": "https://haz-map.com/Agents/14412",
            "category": "agents"
          }
        ]
      },
      "biomedical_references": {
        "original_name": "Biomedical References",
        "value": "Search PubMed",
        "links": [
          {
            "text": "Search PubMed",
            "url": "https://www.ncbi.nlm.nih.gov/pubmed?term=Glucosamine%20AND%20human%5Bmh%5D%20AND%20%28Occupational%20Diseases%20%5Bmh%5D%20OR%20Occupational%20Exposure%20%5Bmh%5D%29%20%20AND%20%28tox%5Bsb%5D%29&cmd=search"
          }
        ],
        "cross_references": []
      }
    },
    "exposure_assessment": {
      "vapor_pressure": {
        "original_name": "Vapor Pressure",
        "value": "9.02E-08 mm Hg",
        "links": [],
        "cross_references": []
      }
    },
    "diseases_processes_and_activities_linked_to_this_agent": {
      "other_information": {
        "original_name": "Other Information",
        "value": "No other related information on this agent was found.",
        "links": [],
        "cross_references": []
      }
    }
  },
  "cross_references": [
    {
      "type": "name_match",
      "text": "mica",
      "confidence": 1.0,
      "uuid": "433f26f1-c399-4596-b179-ce3843cfd465",
      "name": "Mica",
      "url": "https://haz-map.com/Agents/621",
      "category": "agents"
    },
    {
      "type": "name_match",
      "text": "fungi",
      "confidence": 1.0,
      "uuid": "e0d489cb-bfee-4aee-b665-999c017268a2",
      "name": "Fungi",
      "url": "https://haz-map.com/Agents/1988",
      "category": "agents"
    },
    {
      "type": "name_match",
      "text": "chitin",
      "confidence": 1.0,
      "uuid": "28aa88c6-2cf7-4698-9624-5c2178b15c2f",
      "name": "Chitin",
      "url": "https://haz-map.com/Agents/12895",
      "category": "agents"
    },
    {
      "type": "name_match",
      "text": "chitosan",
      "confidence": 1.0,
      "uuid": "c2fb596e-8c0e-428a-81dc-f9ecb01f498f",
      "name": "Chitosan",
      "url": "https://haz-map.com/Agents/12896",
      "category": "agents"
    },
    {
      "type": "name_match",
      "text": "glucosamine",
      "confidence": 1.0,
      "uuid": "c12d5ccb-1cb5-437e-8cd2-492d6d2ef27f",
      "name": "Glucosamine",
      "url": "https://haz-map.com/Agents/14412",
      "category": "agents"
    },
    {
      "type": "name_match",
      "text": "glucose",
      "confidence": 1.0,
      "uuid": "329d86ed-6744-4566-825c-5247ed1a8f75",
      "name": "Glucose",
      "url": "https://haz-map.com/Agents/14413",
      "category": "agents"
    }
  ],
  "all_links": [
    {
      "text": "Search PubMed",
      "url": "https://www.ncbi.nlm.nih.gov/pubmed?term=Glucosamine%20AND%20human%5Bmh%5D%20AND%20%28Occupational%20Diseases%20%5Bmh%5D%20OR%20Occupational%20Exposure%20%5Bmh%5D%29%20%20AND%20%28tox%5Bsb%5D%29&cmd=search"
    }
  ]
}