{
  "metadata": {
    "scraped_from": "https://haz-map.com/Agents/10261",
    "entity_name": "4-Methyl-1-pentene",
    "category": "agents",
    "uuid": "c153b9fe-2823-44b8-9e37-7b4fe9bbdb0b",
    "scraped_at": "2025-07-23T20:46:01.279596"
  },
  "parsed_at": "2025-07-24T01:13:08.671420",
  "title": "4-Methyl-1-pentene",
  "sections": {
    "general": {
      "agent_name": {
        "original_name": "Agent Name",
        "value": "4-Methyl-1-pentene",
        "links": [],
        "cross_references": [
          {
            "type": "name_match",
            "text": "1-pentene",
            "confidence": 1.0,
            "uuid": "fb5ff9a7-52d9-4c0c-a462-090f2c7e657f",
            "name": "1-Pentene",
            "url": "https://haz-map.com/Agents/2918",
            "category": "agents"
          },
          {
            "type": "name_match",
            "text": "pentene",
            "confidence": 1.0,
            "uuid": "8a79e71e-e90a-4993-a702-7b2bacae6310",
            "name": "Pentene",
            "url": "https://haz-map.com/Agents/6584",
            "category": "agents"
          },
          {
            "type": "name_match",
            "text": "4-methyl-1-pentene",
            "confidence": 1.0,
            "uuid": "c153b9fe-2823-44b8-9e37-7b4fe9bbdb0b",
            "name": "4-Methyl-1-pentene",
            "url": "https://haz-map.com/Agents/10261",
            "category": "agents"
          }
        ]
      },
      "cas_number": {
        "original_name": "CAS Number",
        "value": "691-37-2",
        "links": [],
        "cross_references": []
      },
      "formula": {
        "original_name": "Formula",
        "value": "C6-H12",
        "links": [],
        "cross_references": []
      },
      "major_category": {
        "original_name": "Major Category",
        "value": "Other Classes",
        "links": [],
        "cross_references": []
      },
      "synonyms": {
        "original_name": "Synonyms",
        "value": "1-Pentene, 4-methyl-; 4-Methylpent-1-ene; [ChemIDplus] UN3295",
        "links": [],
        "cross_references": [
          {
            "type": "name_match",
            "text": "1-pentene",
            "confidence": 1.0,
            "uuid": "fb5ff9a7-52d9-4c0c-a462-090f2c7e657f",
            "name": "1-Pentene",
            "url": "https://haz-map.com/Agents/2918",
            "category": "agents"
          },
          {
            "type": "name_match",
            "text": "pentene",
            "confidence": 1.0,
            "uuid": "8a79e71e-e90a-4993-a702-7b2bacae6310",
            "name": "Pentene",
            "url": "https://haz-map.com/Agents/6584",
            "category": "agents"
          }
        ]
      },
      "category": {
        "original_name": "Category",
        "value": "Aliphatics, Unsaturated",
        "links": [],
        "cross_references": []
      },
      "description": {
        "original_name": "Description",
        "value": "Colorless liquid; [CAMEO]",
        "links": [],
        "cross_references": []
      },
      "comments": {
        "original_name": "Comments",
        "value": "Short term exposure causes smarting of the skin and first degree burns, with extended exposure possibly causing second degree burns; Mist or vapor causes eye, mucous membrane, and upper respiratory tract irritation; Inhalation causes dizziness, breathing difficulty, and loss of consciousness; Harmful by ingestion and inhalation; [CHRIS] A skin and strong eye irritant; Harmful by ingestion (may cause lung damage by aspiration); [Alfa Aesar MSDS] See \"1-Pentene.\"",
        "links": [],
        "cross_references": [
          {
            "type": "name_match",
            "text": "dizziness",
            "confidence": 1.0,
            "uuid": "4b0e6043-b228-49de-996c-b42ec8b3780e",
            "name": "dizziness",
            "url": "https://haz-map.com/Findings/16",
            "category": "findings"
          },
          {
            "type": "name_match",
            "text": "burn",
            "confidence": 1.0,
            "uuid": "63665de5-6376-4918-8dbf-4c10c4d63837",
            "name": "burn",
            "url": "https://haz-map.com/Findings/204",
            "category": "findings"
          },
          {
            "type": "name_match",
            "text": "1-pentene",
            "confidence": 1.0,
            "uuid": "fb5ff9a7-52d9-4c0c-a462-090f2c7e657f",
            "name": "1-Pentene",
            "url": "https://haz-map.com/Agents/2918",
            "category": "agents"
          },
          {
            "type": "name_match",
            "text": "pentene",
            "confidence": 1.0,
            "uuid": "8a79e71e-e90a-4993-a702-7b2bacae6310",
            "name": "Pentene",
            "url": "https://haz-map.com/Agents/6584",
            "category": "agents"
          }
        ]
      },
      "biomedical_references": {
        "original_name": "Biomedical References",
        "value": "Search PubMed",
        "links": [
          {
            "text": "Search PubMed",
            "url": "https://www.ncbi.nlm.nih.gov/pubmed?term=4-Methyl-1-pentene%20AND%20human%5Bmh%5D%20AND%20%28Occupational%20Diseases%20%5Bmh%5D%20OR%20Occupational%20Exposure%20%5Bmh%5D%29%20%20AND%20%28tox%5Bsb%5D%29&cmd=search"
          }
        ],
        "cross_references": []
      }
    },
    "exposure_assessment": {
      "vapor_pressure": {
        "original_name": "Vapor Pressure",
        "value": "272 mm Hg",
        "links": [],
        "cross_references": []
      },
      "explanatory_notes": {
        "original_name": "Explanatory Notes",
        "value": "The Guide in the Emergency Response Guidebook is for \"Hydrocarbons, liquid, n.o.s.\" VP from ChemIDplus;",
        "links": [],
        "cross_references": [
          {
            "type": "name_match",
            "text": "carbon",
            "confidence": 1.0,
            "uuid": "b53f8815-ee80-40ef-b4aa-3b000e17dab5",
            "name": "Carbon",
            "url": "https://haz-map.com/Agents/1891",
            "category": "agents"
          },
          {
            "type": "fuzzy_match",
            "text": "hydrocarbons",
            "matched_name": "Hydrocarbons, C>3",
            "confidence": 0.7100840336134454,
            "uuid": "8eaa37ac-3931-44e4-9242-2734127fd661",
            "category": "agents",
            "url": "https://haz-map.com/Agents/14795"
          }
        ]
      },
      "nfpa": {
        "original_name": "NFPA",
        "value": "may ignite at ambient temp",
        "links": [],
        "cross_references": []
      }
    },
    "adverse_effects": {
      "neurotoxin": {
        "original_name": "Neurotoxin",
        "value": "Acute solvent syndrome",
        "links": [],
        "cross_references": []
      },
      "dermatotoxin": {
        "original_name": "Dermatotoxin",
        "value": "Skin burns",
        "links": [],
        "cross_references": [
          {
            "type": "name_match",
            "text": "burn",
            "confidence": 1.0,
            "uuid": "63665de5-6376-4918-8dbf-4c10c4d63837",
            "name": "burn",
            "url": "https://haz-map.com/Findings/204",
            "category": "findings"
          }
        ]
      }
    },
    "diseases_processes_and_activities_linked_to_this_agent": {
      "diseases": {
        "original_name": "Diseases",
        "value": "Occupational diseases associated with exposure to this agent: Solvents, acute toxic effect",
        "links": [
          {
            "text": "Solvents, acute toxic effect",
            "url": "https://haz-map.com/Diseases/326"
          }
        ],
        "cross_references": [
          {
            "type": "url_match",
            "text": "Solvents, acute toxic effect",
            "url": "https://haz-map.com/Diseases/326",
            "confidence": 1.0,
            "uuid": "581e90e3-9d0c-45f0-aa6c-3468c28da129",
            "name": "Solvents, acute toxic effect",
            "category": "diseases"
          }
        ]
      }
    }
  },
  "cross_references": [
    {
      "type": "url_match",
      "text": "Solvents, acute toxic effect",
      "url": "https://haz-map.com/Diseases/326",
      "confidence": 1.0,
      "uuid": "581e90e3-9d0c-45f0-aa6c-3468c28da129",
      "name": "Solvents, acute toxic effect",
      "category": "diseases"
    },
    {
      "type": "name_match",
      "text": "dizziness",
      "confidence": 1.0,
      "uuid": "4b0e6043-b228-49de-996c-b42ec8b3780e",
      "name": "dizziness",
      "url": "https://haz-map.com/Findings/16",
      "category": "findings"
    },
    {
      "type": "name_match",
      "text": "burn",
      "confidence": 1.0,
      "uuid": "63665de5-6376-4918-8dbf-4c10c4d63837",
      "name": "burn",
      "url": "https://haz-map.com/Findings/204",
      "category": "findings"
    },
    {
      "type": "name_match",
      "text": "carbon",
      "confidence": 1.0,
      "uuid": "b53f8815-ee80-40ef-b4aa-3b000e17dab5",
      "name": "Carbon",
      "url": "https://haz-map.com/Agents/1891",
      "category": "agents"
    },
    {
      "type": "name_match",
      "text": "1-pentene",
      "confidence": 1.0,
      "uuid": "fb5ff9a7-52d9-4c0c-a462-090f2c7e657f",
      "name": "1-Pentene",
      "url": "https://haz-map.com/Agents/2918",
      "category": "agents"
    },
    {
      "type": "name_match",
      "text": "pentene",
      "confidence": 1.0,
      "uuid": "8a79e71e-e90a-4993-a702-7b2bacae6310",
      "name": "Pentene",
      "url": "https://haz-map.com/Agents/6584",
      "category": "agents"
    },
    {
      "type": "name_match",
      "text": "4-methyl-1-pentene",
      "confidence": 1.0,
      "uuid": "c153b9fe-2823-44b8-9e37-7b4fe9bbdb0b",
      "name": "4-Methyl-1-pentene",
      "url": "https://haz-map.com/Agents/10261",
      "category": "agents"
    },
    {
      "type": "fuzzy_match",
      "text": "hydrocarbons",
      "matched_name": "Hydrocarbons, C>3",
      "confidence": 0.7100840336134454,
      "uuid": "8eaa37ac-3931-44e4-9242-2734127fd661",
      "category": "agents",
      "url": "https://haz-map.com/Agents/14795"
    }
  ],
  "all_links": [
    {
      "text": "Search PubMed",
      "url": "https://www.ncbi.nlm.nih.gov/pubmed?term=4-Methyl-1-pentene%20AND%20human%5Bmh%5D%20AND%20%28Occupational%20Diseases%20%5Bmh%5D%20OR%20Occupational%20Exposure%20%5Bmh%5D%29%20%20AND%20%28tox%5Bsb%5D%29&cmd=search"
    },
    {
      "text": "Solvents, acute toxic effect",
      "url": "https://haz-map.com/Diseases/326"
    }
  ]
}