{
  "metadata": {
    "scraped_from": "https://haz-map.com/Agents/7884",
    "entity_name": "1,2,3-Propanetriol, 1,3-dinitrate",
    "category": "agents",
    "uuid": "c15b1b0e-5d2c-4c72-963c-8344bc009fa5",
    "scraped_at": "2025-07-23T20:18:19.636658"
  },
  "parsed_at": "2025-07-24T01:13:21.581869",
  "title": "1,2,3-Propanetriol, 1,3-dinitrate",
  "sections": {
    "general": {
      "agent_name": {
        "original_name": "Agent Name",
        "value": "1,2,3-Propanetriol, 1,3-dinitrate",
        "links": [],
        "cross_references": [
          {
            "type": "name_match",
            "text": "propane",
            "confidence": 1.0,
            "uuid": "563a611b-46ea-4bdc-b77b-17d8f7646283",
            "name": "Propane",
            "url": "https://haz-map.com/Agents/607",
            "category": "agents"
          },
          {
            "type": "name_match",
            "text": "1,2,3-propanetriol, 1,3-dinitrate",
            "confidence": 1.0,
            "uuid": "c15b1b0e-5d2c-4c72-963c-8344bc009fa5",
            "name": "1,2,3-Propanetriol, 1,3-dinitrate",
            "url": "https://haz-map.com/Agents/7884",
            "category": "agents"
          }
        ]
      },
      "cas_number": {
        "original_name": "CAS Number",
        "value": "623-87-0",
        "links": [],
        "cross_references": []
      },
      "formula": {
        "original_name": "Formula",
        "value": "C3-H6-N2-O7",
        "links": [],
        "cross_references": []
      },
      "major_category": {
        "original_name": "Major Category",
        "value": "Nitrogen Compounds",
        "links": [],
        "cross_references": [
          {
            "type": "name_match",
            "text": "nitrogen",
            "confidence": 1.0,
            "uuid": "db5e90a9-06d2-45b9-8b81-f345a89b0bc0",
            "name": "Nitrogen",
            "url": "https://haz-map.com/Agents/1072",
            "category": "agents"
          }
        ]
      },
      "synonyms": {
        "original_name": "Synonyms",
        "value": "Glyceryl-1,3-dinitrate; 1,3-Dinitroglycerin; 1,3-Dng; 1,3-Glyceryl dinitrate; [ChemIDplus]",
        "links": [],
        "cross_references": [
          {
            "type": "name_match",
            "text": "glycerin",
            "confidence": 1.0,
            "uuid": "28d55633-4d0d-446a-82c8-ed15a611f2bd",
            "name": "Glycerin",
            "url": "https://haz-map.com/Agents/501",
            "category": "agents"
          },
          {
            "type": "name_match",
            "text": "nitroglycerin",
            "confidence": 1.0,
            "uuid": "7c074b58-8bb7-48fd-88b3-0a64bdafdebf",
            "name": "Nitroglycerin",
            "url": "https://haz-map.com/Agents/572",
            "category": "agents"
          }
        ]
      },
      "category": {
        "original_name": "Category",
        "value": "Nitrates and Nitrites",
        "links": [],
        "cross_references": [
          {
            "type": "name_match",
            "text": "nitrates and nitrites",
            "confidence": 1.0,
            "uuid": "6762c941-4910-4341-a779-ff9c9606e987",
            "name": "NITRATES and NITRITES",
            "url": "https://haz-map.com/Agents/1095",
            "category": "agents"
          }
        ]
      },
      "comments": {
        "original_name": "Comments",
        "value": "See \"NITRATES and NITRITES.\"",
        "links": [],
        "cross_references": [
          {
            "type": "name_match",
            "text": "nitrates and nitrites",
            "confidence": 1.0,
            "uuid": "6762c941-4910-4341-a779-ff9c9606e987",
            "name": "NITRATES and NITRITES",
            "url": "https://haz-map.com/Agents/1095",
            "category": "agents"
          }
        ]
      },
      "biomedical_references": {
        "original_name": "Biomedical References",
        "value": "Search PubMed",
        "links": [
          {
            "text": "Search PubMed",
            "url": "https://www.ncbi.nlm.nih.gov/pubmed?term=1%2c2%2c3-Propanetriol%2c+1%2c3-dinitrate%20AND%20human%5Bmh%5D%20AND%20%28Occupational%20Diseases%20%5Bmh%5D%20OR%20Occupational%20Exposure%20%5Bmh%5D%29%20%20AND%20%28tox%5Bsb%5D%29&cmd=search"
          }
        ],
        "cross_references": []
      }
    },
    "exposure_assessment": {
      "vapor_pressure": {
        "original_name": "Vapor Pressure",
        "value": "0.00111 mm Hg",
        "links": [],
        "cross_references": []
      },
      "explanatory_notes": {
        "original_name": "Explanatory Notes",
        "value": "VP from ChemIDplus;",
        "links": [],
        "cross_references": []
      }
    },
    "adverse_effects": {
      "methemoglobinemia": {
        "original_name": "Methemoglobinemia",
        "value": "MetHgb is secondary toxic effect",
        "links": [],
        "cross_references": []
      }
    },
    "diseases_processes_and_activities_linked_to_this_agent": {
      "other_information": {
        "original_name": "Other Information",
        "value": "No other related information on this agent was found.",
        "links": [],
        "cross_references": []
      }
    }
  },
  "cross_references": [
    {
      "type": "name_match",
      "text": "glycerin",
      "confidence": 1.0,
      "uuid": "28d55633-4d0d-446a-82c8-ed15a611f2bd",
      "name": "Glycerin",
      "url": "https://haz-map.com/Agents/501",
      "category": "agents"
    },
    {
      "type": "name_match",
      "text": "nitroglycerin",
      "confidence": 1.0,
      "uuid": "7c074b58-8bb7-48fd-88b3-0a64bdafdebf",
      "name": "Nitroglycerin",
      "url": "https://haz-map.com/Agents/572",
      "category": "agents"
    },
    {
      "type": "name_match",
      "text": "propane",
      "confidence": 1.0,
      "uuid": "563a611b-46ea-4bdc-b77b-17d8f7646283",
      "name": "Propane",
      "url": "https://haz-map.com/Agents/607",
      "category": "agents"
    },
    {
      "type": "name_match",
      "text": "nitrogen",
      "confidence": 1.0,
      "uuid": "db5e90a9-06d2-45b9-8b81-f345a89b0bc0",
      "name": "Nitrogen",
      "url": "https://haz-map.com/Agents/1072",
      "category": "agents"
    },
    {
      "type": "name_match",
      "text": "nitrates and nitrites",
      "confidence": 1.0,
      "uuid": "6762c941-4910-4341-a779-ff9c9606e987",
      "name": "NITRATES and NITRITES",
      "url": "https://haz-map.com/Agents/1095",
      "category": "agents"
    },
    {
      "type": "name_match",
      "text": "1,2,3-propanetriol, 1,3-dinitrate",
      "confidence": 1.0,
      "uuid": "c15b1b0e-5d2c-4c72-963c-8344bc009fa5",
      "name": "1,2,3-Propanetriol, 1,3-dinitrate",
      "url": "https://haz-map.com/Agents/7884",
      "category": "agents"
    }
  ],
  "all_links": [
    {
      "text": "Search PubMed",
      "url": "https://www.ncbi.nlm.nih.gov/pubmed?term=1%2c2%2c3-Propanetriol%2c+1%2c3-dinitrate%20AND%20human%5Bmh%5D%20AND%20%28Occupational%20Diseases%20%5Bmh%5D%20OR%20Occupational%20Exposure%20%5Bmh%5D%29%20%20AND%20%28tox%5Bsb%5D%29&cmd=search"
    }
  ]
}