{
  "metadata": {
    "scraped_from": "https://haz-map.com/Agents/6723",
    "entity_name": "Piperonal",
    "category": "agents",
    "uuid": "c1646bc4-f3e5-426b-81f0-649ce55960c3",
    "scraped_at": "2025-07-23T20:04:48.543558"
  },
  "parsed_at": "2025-07-24T00:56:22.407555",
  "title": "Piperonal",
  "sections": {
    "general": {
      "agent_name": {
        "original_name": "Agent Name",
        "value": "Piperonal",
        "links": [],
        "cross_references": [
          {
            "type": "name_match",
            "text": "piperonal",
            "confidence": 1.0,
            "uuid": "c1646bc4-f3e5-426b-81f0-649ce55960c3",
            "name": "Piperonal",
            "url": "https://haz-map.com/Agents/6723",
            "category": "agents"
          }
        ]
      },
      "cas_number": {
        "original_name": "CAS Number",
        "value": "120-57-0",
        "links": [],
        "cross_references": []
      },
      "formula": {
        "original_name": "Formula",
        "value": "C8-H6-O3",
        "links": [],
        "cross_references": []
      },
      "major_category": {
        "original_name": "Major Category",
        "value": "Biological Agents",
        "links": [],
        "cross_references": []
      },
      "synonyms": {
        "original_name": "Synonyms",
        "value": "1,3-Benzodioxole-5-carboxaldehyde; 3,4-Bis(methylenedioxy)benzaldehyde; 3,4-Dihydroxybenzaldehyde methylene ketal; 3,4-Dimethylenedioxybenzaldehyde; 3,4-Methylene-dihydroxybenzaldehyde; 3,4-Methylenedioxybenzaldehyde; 5-Formyl-1,3-benzodioxole; Benzaldehyde, 3,4-(methylenedioxy)-; Dioxymethylene protocatechuic aldehyde; Dioxymethylene-protocatechuic aldehyde; Geliotropin; Heliotropin; Heliotropin (natural); Heliotropine; Piperonaldehyde; Piperonyl aldehyde; Piperonylaldehyde; Protocatechuic aldehyde methylene ether; [ChemIDplus]",
        "links": [],
        "cross_references": [
          {
            "type": "name_match",
            "text": "ethylene",
            "confidence": 1.0,
            "uuid": "958eacc0-5135-4b62-bb93-6df972bf552f",
            "name": "Ethylene",
            "url": "https://haz-map.com/Agents/1076",
            "category": "agents"
          },
          {
            "type": "name_match",
            "text": "benzaldehyde",
            "confidence": 1.0,
            "uuid": "8546358a-fcfc-48f8-83d6-bf7adb438729",
            "name": "Benzaldehyde",
            "url": "https://haz-map.com/Agents/1884",
            "category": "agents"
          },
          {
            "type": "name_match",
            "text": "piperonal",
            "confidence": 1.0,
            "uuid": "c1646bc4-f3e5-426b-81f0-649ce55960c3",
            "name": "Piperonal",
            "url": "https://haz-map.com/Agents/6723",
            "category": "agents"
          },
          {
            "type": "name_match",
            "text": "1,3-benzodioxole",
            "confidence": 1.0,
            "uuid": "9268b3cb-9e89-404a-a700-7768df1ac1a5",
            "name": "1,3-Benzodioxole",
            "url": "https://haz-map.com/Agents/9760",
            "category": "agents"
          }
        ]
      },
      "category": {
        "original_name": "Category",
        "value": "Plant Oils and Extracts",
        "links": [],
        "cross_references": []
      },
      "description": {
        "original_name": "Description",
        "value": "Colorless lustrous solid; mp = 37 deg C; [Merck Index] White shining solid with a floral odor; Darkens to red-brown on light exposure; mp = 35.5-37 deg C; [Hawley] Colorless solid; mp = 36 deg C; [MSDSonline]",
        "links": [],
        "cross_references": [
          {
            "type": "name_match",
            "text": "ht",
            "confidence": 1.0,
            "uuid": "764df367-8d53-4a11-81a2-31ccfe122a8d",
            "name": "HT",
            "url": "https://haz-map.com/Agents/2168",
            "category": "agents"
          }
        ]
      },
      "sourcesuses": {
        "original_name": "Sources/Uses",
        "value": "Found in various essential oils; Used in fragrances, flavoring agents, and suntan preparations; Also used as a mosquito repellent, laboratory reagent, organic intermediate, and synergist for pyrethrum and rotenone; [HSDB]",
        "links": [],
        "cross_references": [
          {
            "type": "name_match",
            "text": "pyrethrum",
            "confidence": 1.0,
            "uuid": "2207eb81-00c4-4197-8027-9a241d9cab6a",
            "name": "Pyrethrum",
            "url": "https://haz-map.com/Agents/615",
            "category": "agents"
          },
          {
            "type": "name_match",
            "text": "rotenone",
            "confidence": 1.0,
            "uuid": "53b641f1-8ca1-4abf-b8fb-b0e4d89f6d63",
            "name": "Rotenone",
            "url": "https://haz-map.com/Agents/618",
            "category": "agents"
          }
        ]
      },
      "comments": {
        "original_name": "Comments",
        "value": "A skin irritant; May cause CNS depression; Emergency treatment: Irritants; [HSDB] An irritant; May cause CNS depression; [CAMEO] Safe when used as a flavoring agent in food; [JECFA] Caused hepatocellular necrosis in rats receiving intermittent doses for 6 weeks at >2100 mg/kg; [RTECS]",
        "links": [],
        "cross_references": [
          {
            "type": "name_match",
            "text": "irritants",
            "confidence": 1.0,
            "uuid": "9d2b9572-8c3e-48a4-ac68-63d6e2eb6f49",
            "name": "Irritants",
            "url": "https://haz-map.com/Agents/2063",
            "category": "agents"
          }
        ]
      },
      "biomedical_references": {
        "original_name": "Biomedical References",
        "value": "Search PubMed",
        "links": [
          {
            "text": "Search PubMed",
            "url": "https://www.ncbi.nlm.nih.gov/pubmed?term=Piperonal%20AND%20human%5Bmh%5D%20AND%20%28Occupational%20Diseases%20%5Bmh%5D%20OR%20Occupational%20Exposure%20%5Bmh%5D%29%20%20AND%20%28tox%5Bsb%5D%29&cmd=search"
          }
        ],
        "cross_references": []
      }
    },
    "exposure_assessment": {
      "vapor_pressure": {
        "original_name": "Vapor Pressure",
        "value": "0.01 mm Hg",
        "links": [],
        "cross_references": []
      }
    },
    "adverse_effects": {
      "neurotoxin": {
        "original_name": "Neurotoxin",
        "value": "Other CNS neurotoxin",
        "links": [],
        "cross_references": []
      },
      "hepatotoxin": {
        "original_name": "Hepatotoxin",
        "value": "Hepatoxic (a) from occupational exposure (secondary effect) or (b) in animal studies or in humans after ingestion",
        "links": [],
        "cross_references": []
      }
    },
    "diseases_processes_and_activities_linked_to_this_agent": {
      "processes": {
        "original_name": "Processes",
        "value": "Industrial Processes with risk of exposure: Farming (Pesticides)",
        "links": [
          {
            "text": "Farming (Pesticides)",
            "url": "https://haz-map.com/Processes/218"
          }
        ],
        "cross_references": [
          {
            "type": "url_match",
            "text": "Farming (Pesticides)",
            "url": "https://haz-map.com/Processes/218",
            "confidence": 1.0,
            "uuid": "cf1e5815-c9bb-4917-82a5-391848170b7e",
            "name": "Farming (Pesticides)",
            "category": "processes"
          }
        ]
      }
    }
  },
  "cross_references": [
    {
      "type": "url_match",
      "text": "Farming (Pesticides)",
      "url": "https://haz-map.com/Processes/218",
      "confidence": 1.0,
      "uuid": "cf1e5815-c9bb-4917-82a5-391848170b7e",
      "name": "Farming (Pesticides)",
      "category": "processes"
    },
    {
      "type": "name_match",
      "text": "pyrethrum",
      "confidence": 1.0,
      "uuid": "2207eb81-00c4-4197-8027-9a241d9cab6a",
      "name": "Pyrethrum",
      "url": "https://haz-map.com/Agents/615",
      "category": "agents"
    },
    {
      "type": "name_match",
      "text": "rotenone",
      "confidence": 1.0,
      "uuid": "53b641f1-8ca1-4abf-b8fb-b0e4d89f6d63",
      "name": "Rotenone",
      "url": "https://haz-map.com/Agents/618",
      "category": "agents"
    },
    {
      "type": "name_match",
      "text": "ethylene",
      "confidence": 1.0,
      "uuid": "958eacc0-5135-4b62-bb93-6df972bf552f",
      "name": "Ethylene",
      "url": "https://haz-map.com/Agents/1076",
      "category": "agents"
    },
    {
      "type": "name_match",
      "text": "benzaldehyde",
      "confidence": 1.0,
      "uuid": "8546358a-fcfc-48f8-83d6-bf7adb438729",
      "name": "Benzaldehyde",
      "url": "https://haz-map.com/Agents/1884",
      "category": "agents"
    },
    {
      "type": "name_match",
      "text": "irritants",
      "confidence": 1.0,
      "uuid": "9d2b9572-8c3e-48a4-ac68-63d6e2eb6f49",
      "name": "Irritants",
      "url": "https://haz-map.com/Agents/2063",
      "category": "agents"
    },
    {
      "type": "name_match",
      "text": "ht",
      "confidence": 1.0,
      "uuid": "764df367-8d53-4a11-81a2-31ccfe122a8d",
      "name": "HT",
      "url": "https://haz-map.com/Agents/2168",
      "category": "agents"
    },
    {
      "type": "name_match",
      "text": "piperonal",
      "confidence": 1.0,
      "uuid": "c1646bc4-f3e5-426b-81f0-649ce55960c3",
      "name": "Piperonal",
      "url": "https://haz-map.com/Agents/6723",
      "category": "agents"
    },
    {
      "type": "name_match",
      "text": "1,3-benzodioxole",
      "confidence": 1.0,
      "uuid": "9268b3cb-9e89-404a-a700-7768df1ac1a5",
      "name": "1,3-Benzodioxole",
      "url": "https://haz-map.com/Agents/9760",
      "category": "agents"
    }
  ],
  "all_links": [
    {
      "text": "Search PubMed",
      "url": "https://www.ncbi.nlm.nih.gov/pubmed?term=Piperonal%20AND%20human%5Bmh%5D%20AND%20%28Occupational%20Diseases%20%5Bmh%5D%20OR%20Occupational%20Exposure%20%5Bmh%5D%29%20%20AND%20%28tox%5Bsb%5D%29&cmd=search"
    },
    {
      "text": "Farming (Pesticides)",
      "url": "https://haz-map.com/Processes/218"
    }
  ]
}