{
  "metadata": {
    "scraped_from": "https://haz-map.com/Agents/7708",
    "entity_name": "Vanadium tetrachloride",
    "category": "agents",
    "uuid": "c16eadce-7073-44b3-a693-8c088c95138e",
    "scraped_at": "2025-07-23T20:15:55.283878"
  },
  "parsed_at": "2025-07-24T01:03:08.406689",
  "title": "Vanadium tetrachloride",
  "sections": {
    "general": {
      "agent_name": {
        "original_name": "Agent Name",
        "value": "Vanadium tetrachloride",
        "links": [],
        "cross_references": [
          {
            "type": "name_match",
            "text": "vanadium",
            "confidence": 1.0,
            "uuid": "1362fc87-1aa9-43e6-8e41-e4ffbe9a0511",
            "name": "Vanadium",
            "url": "https://haz-map.com/Agents/1701",
            "category": "agents"
          },
          {
            "type": "name_match",
            "text": "vanadium tetrachloride",
            "confidence": 1.0,
            "uuid": "c16eadce-7073-44b3-a693-8c088c95138e",
            "name": "Vanadium tetrachloride",
            "url": "https://haz-map.com/Agents/7708",
            "category": "agents"
          }
        ]
      },
      "cas_number": {
        "original_name": "CAS Number",
        "value": "7632-51-1",
        "links": [],
        "cross_references": []
      },
      "formula": {
        "original_name": "Formula",
        "value": "Cl4-V",
        "links": [],
        "cross_references": []
      },
      "major_category": {
        "original_name": "Major Category",
        "value": "Metals",
        "links": [],
        "cross_references": []
      },
      "synonyms": {
        "original_name": "Synonyms",
        "value": "Tetrachlorovanadium; Vanadium chloride; Vanadium chloride (VCl4); Vanadium chloride (VCl4), (T-4)-; Vanadium(IV) chloride; [ChemIDplus] UN2444",
        "links": [],
        "cross_references": [
          {
            "type": "name_match",
            "text": "vanadium",
            "confidence": 1.0,
            "uuid": "1362fc87-1aa9-43e6-8e41-e4ffbe9a0511",
            "name": "Vanadium",
            "url": "https://haz-map.com/Agents/1701",
            "category": "agents"
          }
        ]
      },
      "category": {
        "original_name": "Category",
        "value": "Metals, Inorganic Compounds",
        "links": [],
        "cross_references": [
          {
            "type": "fuzzy_match",
            "text": "organic compounds",
            "matched_name": "Tin, organic compounds",
            "confidence": 0.8196969696969697,
            "uuid": "e027d413-8869-4308-9eb2-27d768b011ea",
            "category": "agents",
            "url": "https://haz-map.com/Agents/656"
          },
          {
            "type": "fuzzy_match",
            "text": "inorganic compounds",
            "matched_name": "Tin and inorganic compounds",
            "confidence": 0.8161375661375662,
            "uuid": "f9a072ab-0fbc-477a-88a2-1389e762d773",
            "category": "agents",
            "url": "https://haz-map.com/Agents/42"
          },
          {
            "type": "fuzzy_match",
            "text": "inorganic compounds",
            "matched_name": "Mercury, inorganic compounds",
            "confidence": 0.7455357142857143,
            "uuid": "4b03e512-ea73-428b-aa40-cfb4b29e3cd6",
            "category": "agents",
            "url": "https://haz-map.com/Agents/1954"
          }
        ]
      },
      "description": {
        "original_name": "Description",
        "value": "Red to reddish-brown liquid with a pungent odor; [HSDB]",
        "links": [],
        "cross_references": []
      },
      "sourcesuses": {
        "original_name": "Sources/Uses",
        "value": "Used to make vanadium trichloride, vanadium dichloride, and organovanadium compounds; Also used as a mordant in dyeing and a catalyst for ethylene-propylene rubber; [HSDB]",
        "links": [],
        "cross_references": [
          {
            "type": "name_match",
            "text": "ethylene",
            "confidence": 1.0,
            "uuid": "958eacc0-5135-4b62-bb93-6df972bf552f",
            "name": "Ethylene",
            "url": "https://haz-map.com/Agents/1076",
            "category": "agents"
          },
          {
            "type": "name_match",
            "text": "propylene",
            "confidence": 1.0,
            "uuid": "78ac73a1-0029-4a50-b283-561134c72041",
            "name": "Propylene",
            "url": "https://haz-map.com/Agents/1078",
            "category": "agents"
          },
          {
            "type": "name_match",
            "text": "vanadium",
            "confidence": 1.0,
            "uuid": "1362fc87-1aa9-43e6-8e41-e4ffbe9a0511",
            "name": "Vanadium",
            "url": "https://haz-map.com/Agents/1701",
            "category": "agents"
          }
        ]
      },
      "comments": {
        "original_name": "Comments",
        "value": "Hydrolyzed by water; A strong skin, eye, and respiratory tract irritant; [HSDB] Reacts with water or moist air forming hydrochloric acid; Corrosive to tissue; [CAMEO] Reacts violently with water; A corrosive substance that can cause injury to the skin, eyes, and respiratory tract; Inhalation may cause chemical pneumonitis; [MSDSonline] See \"Vanadium.\"",
        "links": [],
        "cross_references": [
          {
            "type": "name_match",
            "text": "mica",
            "confidence": 1.0,
            "uuid": "433f26f1-c399-4596-b179-ce3843cfd465",
            "name": "Mica",
            "url": "https://haz-map.com/Agents/621",
            "category": "agents"
          },
          {
            "type": "name_match",
            "text": "vanadium",
            "confidence": 1.0,
            "uuid": "1362fc87-1aa9-43e6-8e41-e4ffbe9a0511",
            "name": "Vanadium",
            "url": "https://haz-map.com/Agents/1701",
            "category": "agents"
          },
          {
            "type": "name_match",
            "text": "chloric acid",
            "confidence": 1.0,
            "uuid": "b21bc556-162c-4249-8afc-fb6303f2b8f9",
            "name": "Chloric acid",
            "url": "https://haz-map.com/Agents/8326",
            "category": "agents"
          },
          {
            "type": "name_match",
            "text": "water",
            "confidence": 1.0,
            "uuid": "6f2a7557-dfd2-49bc-9b4b-a93cd8e225d4",
            "name": "Water",
            "url": "https://haz-map.com/Agents/18668",
            "category": "agents"
          }
        ]
      },
      "biomedical_references": {
        "original_name": "Biomedical References",
        "value": "Search PubMed",
        "links": [
          {
            "text": "Search PubMed",
            "url": "https://www.ncbi.nlm.nih.gov/pubmed?term=Vanadium+tetrachloride%20AND%20human%5Bmh%5D%20AND%20%28Occupational%20Diseases%20%5Bmh%5D%20OR%20Occupational%20Exposure%20%5Bmh%5D%29%20%20AND%20%28tox%5Bsb%5D%29&cmd=search"
          }
        ],
        "cross_references": []
      }
    },
    "exposure_assessment": {
      "vapor_pressure": {
        "original_name": "Vapor Pressure",
        "value": "7.63 mm Hg",
        "links": [],
        "cross_references": []
      },
      "nfpa": {
        "original_name": "NFPA",
        "value": "will not burn",
        "links": [],
        "cross_references": [
          {
            "type": "name_match",
            "text": "burn",
            "confidence": 1.0,
            "uuid": "63665de5-6376-4918-8dbf-4c10c4d63837",
            "name": "burn",
            "url": "https://haz-map.com/Findings/204",
            "category": "findings"
          }
        ]
      }
    },
    "adverse_effects": {
      "toxic_pneumonitis": {
        "original_name": "Toxic Pneumonitis",
        "value": "Yes",
        "links": [],
        "cross_references": []
      },
      "hepatotoxin": {
        "original_name": "Hepatotoxin",
        "value": "Hepatoxic (a) from occupational exposure (secondary effect) or (b) in animal studies or in humans after ingestion",
        "links": [],
        "cross_references": []
      },
      "dermatotoxin": {
        "original_name": "Dermatotoxin",
        "value": "Skin burns",
        "links": [],
        "cross_references": [
          {
            "type": "name_match",
            "text": "burn",
            "confidence": 1.0,
            "uuid": "63665de5-6376-4918-8dbf-4c10c4d63837",
            "name": "burn",
            "url": "https://haz-map.com/Findings/204",
            "category": "findings"
          }
        ]
      }
    },
    "diseases_processes_and_activities_linked_to_this_agent": {
      "processes": {
        "original_name": "Processes",
        "value": "Industrial Processes with risk of exposure: Textiles (Printing, Dyeing, or Finishing)",
        "links": [
          {
            "text": "Textiles (Printing, Dyeing, or Finishing)",
            "url": "https://haz-map.com/Processes/235"
          }
        ],
        "cross_references": []
      }
    }
  },
  "cross_references": [
    {
      "type": "name_match",
      "text": "burn",
      "confidence": 1.0,
      "uuid": "63665de5-6376-4918-8dbf-4c10c4d63837",
      "name": "burn",
      "url": "https://haz-map.com/Findings/204",
      "category": "findings"
    },
    {
      "type": "name_match",
      "text": "mica",
      "confidence": 1.0,
      "uuid": "433f26f1-c399-4596-b179-ce3843cfd465",
      "name": "Mica",
      "url": "https://haz-map.com/Agents/621",
      "category": "agents"
    },
    {
      "type": "name_match",
      "text": "ethylene",
      "confidence": 1.0,
      "uuid": "958eacc0-5135-4b62-bb93-6df972bf552f",
      "name": "Ethylene",
      "url": "https://haz-map.com/Agents/1076",
      "category": "agents"
    },
    {
      "type": "name_match",
      "text": "propylene",
      "confidence": 1.0,
      "uuid": "78ac73a1-0029-4a50-b283-561134c72041",
      "name": "Propylene",
      "url": "https://haz-map.com/Agents/1078",
      "category": "agents"
    },
    {
      "type": "name_match",
      "text": "vanadium",
      "confidence": 1.0,
      "uuid": "1362fc87-1aa9-43e6-8e41-e4ffbe9a0511",
      "name": "Vanadium",
      "url": "https://haz-map.com/Agents/1701",
      "category": "agents"
    },
    {
      "type": "name_match",
      "text": "vanadium tetrachloride",
      "confidence": 1.0,
      "uuid": "c16eadce-7073-44b3-a693-8c088c95138e",
      "name": "Vanadium tetrachloride",
      "url": "https://haz-map.com/Agents/7708",
      "category": "agents"
    },
    {
      "type": "name_match",
      "text": "chloric acid",
      "confidence": 1.0,
      "uuid": "b21bc556-162c-4249-8afc-fb6303f2b8f9",
      "name": "Chloric acid",
      "url": "https://haz-map.com/Agents/8326",
      "category": "agents"
    },
    {
      "type": "name_match",
      "text": "water",
      "confidence": 1.0,
      "uuid": "6f2a7557-dfd2-49bc-9b4b-a93cd8e225d4",
      "name": "Water",
      "url": "https://haz-map.com/Agents/18668",
      "category": "agents"
    },
    {
      "type": "fuzzy_match",
      "text": "organic compounds",
      "matched_name": "Tin, organic compounds",
      "confidence": 0.8196969696969697,
      "uuid": "e027d413-8869-4308-9eb2-27d768b011ea",
      "category": "agents",
      "url": "https://haz-map.com/Agents/656"
    },
    {
      "type": "fuzzy_match",
      "text": "inorganic compounds",
      "matched_name": "Tin and inorganic compounds",
      "confidence": 0.8161375661375662,
      "uuid": "f9a072ab-0fbc-477a-88a2-1389e762d773",
      "category": "agents",
      "url": "https://haz-map.com/Agents/42"
    },
    {
      "type": "fuzzy_match",
      "text": "inorganic compounds",
      "matched_name": "Mercury, inorganic compounds",
      "confidence": 0.7455357142857143,
      "uuid": "4b03e512-ea73-428b-aa40-cfb4b29e3cd6",
      "category": "agents",
      "url": "https://haz-map.com/Agents/1954"
    }
  ],
  "all_links": [
    {
      "text": "Search PubMed",
      "url": "https://www.ncbi.nlm.nih.gov/pubmed?term=Vanadium+tetrachloride%20AND%20human%5Bmh%5D%20AND%20%28Occupational%20Diseases%20%5Bmh%5D%20OR%20Occupational%20Exposure%20%5Bmh%5D%29%20%20AND%20%28tox%5Bsb%5D%29&cmd=search"
    },
    {
      "text": "Textiles (Printing, Dyeing, or Finishing)",
      "url": "https://haz-map.com/Processes/235"
    }
  ]
}