{
  "metadata": {
    "scraped_from": "https://haz-map.com/Agents/21069",
    "entity_name": "Isoxazole",
    "category": "agents",
    "uuid": "c1ebdc17-7c04-47dd-b818-3be5e3730d5c",
    "scraped_at": "2025-07-23T22:36:58.697185"
  },
  "parsed_at": "2025-07-24T01:15:40.930567",
  "title": "Isoxazole",
  "sections": {
    "general": {
      "agent_name": {
        "original_name": "Agent Name",
        "value": "Isoxazole",
        "links": [],
        "cross_references": [
          {
            "type": "name_match",
            "text": "isoxazole",
            "confidence": 1.0,
            "uuid": "c1ebdc17-7c04-47dd-b818-3be5e3730d5c",
            "name": "Isoxazole",
            "url": "https://haz-map.com/Agents/21069",
            "category": "agents"
          }
        ]
      },
      "cas_number": {
        "original_name": "CAS Number",
        "value": "288-14-2",
        "links": [],
        "cross_references": []
      },
      "formula": {
        "original_name": "Formula",
        "value": "C3-H3-N-O",
        "links": [],
        "cross_references": []
      },
      "major_category": {
        "original_name": "Major Category",
        "value": "Nitrogen Compounds",
        "links": [],
        "cross_references": [
          {
            "type": "name_match",
            "text": "nitrogen",
            "confidence": 1.0,
            "uuid": "db5e90a9-06d2-45b9-8b81-f345a89b0bc0",
            "name": "Nitrogen",
            "url": "https://haz-map.com/Agents/1072",
            "category": "agents"
          }
        ]
      },
      "synonyms": {
        "original_name": "Synonyms",
        "value": "1-Oxa-2-azacyclopentadiene; [ChemIDplus] UN1993",
        "links": [],
        "cross_references": [
          {
            "type": "name_match",
            "text": "cyclopentadiene",
            "confidence": 1.0,
            "uuid": "3fb97872-2d6d-487b-ad8d-7fd5aa57fef5",
            "name": "Cyclopentadiene",
            "url": "https://haz-map.com/Agents/386",
            "category": "agents"
          }
        ]
      },
      "category": {
        "original_name": "Category",
        "value": "Other Nitrogen Compounds",
        "links": [],
        "cross_references": [
          {
            "type": "name_match",
            "text": "nitrogen",
            "confidence": 1.0,
            "uuid": "db5e90a9-06d2-45b9-8b81-f345a89b0bc0",
            "name": "Nitrogen",
            "url": "https://haz-map.com/Agents/1072",
            "category": "agents"
          }
        ]
      },
      "description": {
        "original_name": "Description",
        "value": "Clear light brown liquid; [Sigma-Aldrich MSDS]",
        "links": [],
        "cross_references": [
          {
            "type": "name_match",
            "text": "ht",
            "confidence": 1.0,
            "uuid": "764df367-8d53-4a11-81a2-31ccfe122a8d",
            "name": "HT",
            "url": "https://haz-map.com/Agents/2168",
            "category": "agents"
          }
        ]
      },
      "comments": {
        "original_name": "Comments",
        "value": "See \"3-Amino-5-methylisoxazole.\"",
        "links": [],
        "cross_references": [
          {
            "type": "name_match",
            "text": "3-amino-5-methylisoxazole",
            "confidence": 1.0,
            "uuid": "03933051-1d30-4766-b056-5c8102cd7d7b",
            "name": "3-Amino-5-methylisoxazole",
            "url": "https://haz-map.com/Agents/19757",
            "category": "agents"
          },
          {
            "type": "name_match",
            "text": "isoxazole",
            "confidence": 1.0,
            "uuid": "c1ebdc17-7c04-47dd-b818-3be5e3730d5c",
            "name": "Isoxazole",
            "url": "https://haz-map.com/Agents/21069",
            "category": "agents"
          }
        ]
      },
      "biomedical_references": {
        "original_name": "Biomedical References",
        "value": "Search PubMed",
        "links": [
          {
            "text": "Search PubMed",
            "url": "https://www.ncbi.nlm.nih.gov/pubmed?term=Isoxazole%20AND%20human%5Bmh%5D%20AND%20%28Occupational%20Diseases%20%5Bmh%5D%20OR%20Occupational%20Exposure%20%5Bmh%5D%29%20%20AND%20%28tox%5Bsb%5D%29&cmd=search"
          }
        ],
        "cross_references": []
      }
    },
    "exposure_assessment": {
      "vapor_pressure": {
        "original_name": "Vapor Pressure",
        "value": "45.5 mm Hg",
        "links": [],
        "cross_references": []
      },
      "explanatory_notes": {
        "original_name": "Explanatory Notes",
        "value": "The Guide in the Emergency Response Guidebook is for \"Flammable liquid, n.o.s.\"",
        "links": [],
        "cross_references": []
      }
    },
    "diseases_processes_and_activities_linked_to_this_agent": {
      "other_information": {
        "original_name": "Other Information",
        "value": "No other related information on this agent was found.",
        "links": [],
        "cross_references": []
      }
    }
  },
  "cross_references": [
    {
      "type": "name_match",
      "text": "cyclopentadiene",
      "confidence": 1.0,
      "uuid": "3fb97872-2d6d-487b-ad8d-7fd5aa57fef5",
      "name": "Cyclopentadiene",
      "url": "https://haz-map.com/Agents/386",
      "category": "agents"
    },
    {
      "type": "name_match",
      "text": "nitrogen",
      "confidence": 1.0,
      "uuid": "db5e90a9-06d2-45b9-8b81-f345a89b0bc0",
      "name": "Nitrogen",
      "url": "https://haz-map.com/Agents/1072",
      "category": "agents"
    },
    {
      "type": "name_match",
      "text": "ht",
      "confidence": 1.0,
      "uuid": "764df367-8d53-4a11-81a2-31ccfe122a8d",
      "name": "HT",
      "url": "https://haz-map.com/Agents/2168",
      "category": "agents"
    },
    {
      "type": "name_match",
      "text": "3-amino-5-methylisoxazole",
      "confidence": 1.0,
      "uuid": "03933051-1d30-4766-b056-5c8102cd7d7b",
      "name": "3-Amino-5-methylisoxazole",
      "url": "https://haz-map.com/Agents/19757",
      "category": "agents"
    },
    {
      "type": "name_match",
      "text": "isoxazole",
      "confidence": 1.0,
      "uuid": "c1ebdc17-7c04-47dd-b818-3be5e3730d5c",
      "name": "Isoxazole",
      "url": "https://haz-map.com/Agents/21069",
      "category": "agents"
    }
  ],
  "all_links": [
    {
      "text": "Search PubMed",
      "url": "https://www.ncbi.nlm.nih.gov/pubmed?term=Isoxazole%20AND%20human%5Bmh%5D%20AND%20%28Occupational%20Diseases%20%5Bmh%5D%20OR%20Occupational%20Exposure%20%5Bmh%5D%29%20%20AND%20%28tox%5Bsb%5D%29&cmd=search"
    }
  ]
}