{
  "metadata": {
    "scraped_from": "https://haz-map.com/Agents/19906",
    "entity_name": "Trifluoromethanesulfonic anhydride",
    "category": "agents",
    "uuid": "c1eed903-052c-4dd9-aac2-e3b4a7aaf879",
    "scraped_at": "2025-07-23T22:15:05.516602"
  },
  "parsed_at": "2025-07-24T01:18:43.094178",
  "title": "Trifluoromethanesulfonic anhydride",
  "sections": {
    "general": {
      "agent_name": {
        "original_name": "Agent Name",
        "value": "Trifluoromethanesulfonic anhydride",
        "links": [],
        "cross_references": [
          {
            "type": "name_match",
            "text": "methane",
            "confidence": 1.0,
            "uuid": "5018bf73-24be-4353-8643-c351d5f52186",
            "name": "Methane",
            "url": "https://haz-map.com/Agents/1074",
            "category": "agents"
          },
          {
            "type": "name_match",
            "text": "ethane",
            "confidence": 1.0,
            "uuid": "5162cc8c-dfb9-4060-81ac-38a8cec7f9dd",
            "name": "Ethane",
            "url": "https://haz-map.com/Agents/1075",
            "category": "agents"
          },
          {
            "type": "name_match",
            "text": "trifluoromethane",
            "confidence": 1.0,
            "uuid": "296989b6-c9a5-49ac-bccd-41b72547b13d",
            "name": "Trifluoromethane",
            "url": "https://haz-map.com/Agents/1538",
            "category": "agents"
          },
          {
            "type": "name_match",
            "text": "fluoromethane",
            "confidence": 1.0,
            "uuid": "c299ba98-15e9-4c6a-a5c2-5efb3b88eb71",
            "name": "Fluoromethane",
            "url": "https://haz-map.com/Agents/8543",
            "category": "agents"
          },
          {
            "type": "name_match",
            "text": "trifluoromethanesulfonic anhydride",
            "confidence": 1.0,
            "uuid": "c1eed903-052c-4dd9-aac2-e3b4a7aaf879",
            "name": "Trifluoromethanesulfonic anhydride",
            "url": "https://haz-map.com/Agents/19906",
            "category": "agents"
          }
        ]
      },
      "cas_number": {
        "original_name": "CAS Number",
        "value": "358-23-6",
        "links": [],
        "cross_references": []
      },
      "formula": {
        "original_name": "Formula",
        "value": "C2-F6-O5-S2",
        "links": [],
        "cross_references": []
      },
      "major_category": {
        "original_name": "Major Category",
        "value": "Other Classes",
        "links": [],
        "cross_references": []
      },
      "synonyms": {
        "original_name": "Synonyms",
        "value": "Methanesulfonic acid, 1,1,1-trifluoro-, 1,1'-anhydride; Methanesulfonic acid, trifluoro-, anhydride; Trifluoromethanesulphonic anhydride; [ChemIDplus] 1,1,1-Trifluoromethanesulfonic acid 1,1'-anhydride; Triflate anhydride; Triflic anhydride; [Merck Index] UN3265",
        "links": [],
        "cross_references": [
          {
            "type": "name_match",
            "text": "methane",
            "confidence": 1.0,
            "uuid": "5018bf73-24be-4353-8643-c351d5f52186",
            "name": "Methane",
            "url": "https://haz-map.com/Agents/1074",
            "category": "agents"
          },
          {
            "type": "name_match",
            "text": "ethane",
            "confidence": 1.0,
            "uuid": "5162cc8c-dfb9-4060-81ac-38a8cec7f9dd",
            "name": "Ethane",
            "url": "https://haz-map.com/Agents/1075",
            "category": "agents"
          },
          {
            "type": "name_match",
            "text": "methanesulfonic acid",
            "confidence": 1.0,
            "uuid": "7ad58089-503f-4386-818f-d94c4f90af84",
            "name": "Methanesulfonic acid",
            "url": "https://haz-map.com/Agents/1418",
            "category": "agents"
          },
          {
            "type": "name_match",
            "text": "trifluoromethanesulfonic acid",
            "confidence": 1.0,
            "uuid": "45719e15-1349-47ab-9e3f-ea720bb119b3",
            "name": "Trifluoromethanesulfonic acid",
            "url": "https://haz-map.com/Agents/1438",
            "category": "agents"
          },
          {
            "type": "name_match",
            "text": "trifluoromethane",
            "confidence": 1.0,
            "uuid": "296989b6-c9a5-49ac-bccd-41b72547b13d",
            "name": "Trifluoromethane",
            "url": "https://haz-map.com/Agents/1538",
            "category": "agents"
          },
          {
            "type": "name_match",
            "text": "fluoromethane",
            "confidence": 1.0,
            "uuid": "c299ba98-15e9-4c6a-a5c2-5efb3b88eb71",
            "name": "Fluoromethane",
            "url": "https://haz-map.com/Agents/8543",
            "category": "agents"
          },
          {
            "type": "name_match",
            "text": "ethanesulfonic acid",
            "confidence": 1.0,
            "uuid": "b21ff073-f9ac-47dc-a941-22a6957ce9a9",
            "name": "Ethanesulfonic acid",
            "url": "https://haz-map.com/Agents/14157",
            "category": "agents"
          }
        ]
      },
      "category": {
        "original_name": "Category",
        "value": "Acid Anhydrides, Other",
        "links": [],
        "cross_references": [
          {
            "type": "name_match",
            "text": "acid anhydrides",
            "confidence": 1.0,
            "uuid": "541f6a39-e623-4b95-8854-3d5fe27fdeca",
            "name": "ACID ANHYDRIDES",
            "url": "https://haz-map.com/Agents/744",
            "category": "agents"
          }
        ]
      },
      "description": {
        "original_name": "Description",
        "value": "Colorless hygroscopic liquid; [Merck Index] Clear colorless liquid; [Sigma-Aldrich MSDS]",
        "links": [],
        "cross_references": []
      },
      "sourcesuses": {
        "original_name": "Sources/Uses",
        "value": "Used as a reagent in synthetic organic chemistry; [Merck Index]",
        "links": [],
        "cross_references": []
      },
      "comments": {
        "original_name": "Comments",
        "value": "Reacts violently with water; Corrosive; [Merck Index] Reacts violently with water; Causes burns; Inhalation may cause corrosive injuries to upper respiratory tract and lungs; Harmful by ingestion; [Sigma-Aldrich MSDS] See \"Trifluoromethanesulfonic acid.\"",
        "links": [],
        "cross_references": [
          {
            "type": "name_match",
            "text": "burn",
            "confidence": 1.0,
            "uuid": "63665de5-6376-4918-8dbf-4c10c4d63837",
            "name": "burn",
            "url": "https://haz-map.com/Findings/204",
            "category": "findings"
          },
          {
            "type": "name_match",
            "text": "methane",
            "confidence": 1.0,
            "uuid": "5018bf73-24be-4353-8643-c351d5f52186",
            "name": "Methane",
            "url": "https://haz-map.com/Agents/1074",
            "category": "agents"
          },
          {
            "type": "name_match",
            "text": "ethane",
            "confidence": 1.0,
            "uuid": "5162cc8c-dfb9-4060-81ac-38a8cec7f9dd",
            "name": "Ethane",
            "url": "https://haz-map.com/Agents/1075",
            "category": "agents"
          },
          {
            "type": "name_match",
            "text": "methanesulfonic acid",
            "confidence": 1.0,
            "uuid": "7ad58089-503f-4386-818f-d94c4f90af84",
            "name": "Methanesulfonic acid",
            "url": "https://haz-map.com/Agents/1418",
            "category": "agents"
          },
          {
            "type": "name_match",
            "text": "trifluoromethanesulfonic acid",
            "confidence": 1.0,
            "uuid": "45719e15-1349-47ab-9e3f-ea720bb119b3",
            "name": "Trifluoromethanesulfonic acid",
            "url": "https://haz-map.com/Agents/1438",
            "category": "agents"
          },
          {
            "type": "name_match",
            "text": "trifluoromethane",
            "confidence": 1.0,
            "uuid": "296989b6-c9a5-49ac-bccd-41b72547b13d",
            "name": "Trifluoromethane",
            "url": "https://haz-map.com/Agents/1538",
            "category": "agents"
          },
          {
            "type": "name_match",
            "text": "fluoromethane",
            "confidence": 1.0,
            "uuid": "c299ba98-15e9-4c6a-a5c2-5efb3b88eb71",
            "name": "Fluoromethane",
            "url": "https://haz-map.com/Agents/8543",
            "category": "agents"
          },
          {
            "type": "name_match",
            "text": "ethanesulfonic acid",
            "confidence": 1.0,
            "uuid": "b21ff073-f9ac-47dc-a941-22a6957ce9a9",
            "name": "Ethanesulfonic acid",
            "url": "https://haz-map.com/Agents/14157",
            "category": "agents"
          },
          {
            "type": "name_match",
            "text": "water",
            "confidence": 1.0,
            "uuid": "6f2a7557-dfd2-49bc-9b4b-a93cd8e225d4",
            "name": "Water",
            "url": "https://haz-map.com/Agents/18668",
            "category": "agents"
          }
        ]
      },
      "biomedical_references": {
        "original_name": "Biomedical References",
        "value": "Search PubMed",
        "links": [
          {
            "text": "Search PubMed",
            "url": "https://www.ncbi.nlm.nih.gov/pubmed?term=Trifluoromethanesulfonic+anhydride%20AND%20human%5Bmh%5D%20AND%20%28Occupational%20Diseases%20%5Bmh%5D%20OR%20Occupational%20Exposure%20%5Bmh%5D%29%20%20AND%20%28tox%5Bsb%5D%29&cmd=search"
          }
        ],
        "cross_references": []
      }
    },
    "exposure_assessment": {
      "vapor_pressure": {
        "original_name": "Vapor Pressure",
        "value": "8 mm Hg",
        "links": [],
        "cross_references": []
      },
      "explanatory_notes": {
        "original_name": "Explanatory Notes",
        "value": "The Guide in the Emergency Response Guidebook is for \"Corrosive liquid, acidic, organic, n.o.s.\"",
        "links": [],
        "cross_references": []
      }
    },
    "adverse_effects": {
      "toxic_pneumonitis": {
        "original_name": "Toxic Pneumonitis",
        "value": "Yes",
        "links": [],
        "cross_references": []
      },
      "dermatotoxin": {
        "original_name": "Dermatotoxin",
        "value": "Skin burns",
        "links": [],
        "cross_references": [
          {
            "type": "name_match",
            "text": "burn",
            "confidence": 1.0,
            "uuid": "63665de5-6376-4918-8dbf-4c10c4d63837",
            "name": "burn",
            "url": "https://haz-map.com/Findings/204",
            "category": "findings"
          }
        ]
      }
    },
    "diseases_processes_and_activities_linked_to_this_agent": {
      "other_information": {
        "original_name": "Other Information",
        "value": "No other related information on this agent was found.",
        "links": [],
        "cross_references": []
      }
    }
  },
  "cross_references": [
    {
      "type": "name_match",
      "text": "burn",
      "confidence": 1.0,
      "uuid": "63665de5-6376-4918-8dbf-4c10c4d63837",
      "name": "burn",
      "url": "https://haz-map.com/Findings/204",
      "category": "findings"
    },
    {
      "type": "name_match",
      "text": "acid anhydrides",
      "confidence": 1.0,
      "uuid": "541f6a39-e623-4b95-8854-3d5fe27fdeca",
      "name": "ACID ANHYDRIDES",
      "url": "https://haz-map.com/Agents/744",
      "category": "agents"
    },
    {
      "type": "name_match",
      "text": "methane",
      "confidence": 1.0,
      "uuid": "5018bf73-24be-4353-8643-c351d5f52186",
      "name": "Methane",
      "url": "https://haz-map.com/Agents/1074",
      "category": "agents"
    },
    {
      "type": "name_match",
      "text": "ethane",
      "confidence": 1.0,
      "uuid": "5162cc8c-dfb9-4060-81ac-38a8cec7f9dd",
      "name": "Ethane",
      "url": "https://haz-map.com/Agents/1075",
      "category": "agents"
    },
    {
      "type": "name_match",
      "text": "methanesulfonic acid",
      "confidence": 1.0,
      "uuid": "7ad58089-503f-4386-818f-d94c4f90af84",
      "name": "Methanesulfonic acid",
      "url": "https://haz-map.com/Agents/1418",
      "category": "agents"
    },
    {
      "type": "name_match",
      "text": "trifluoromethanesulfonic acid",
      "confidence": 1.0,
      "uuid": "45719e15-1349-47ab-9e3f-ea720bb119b3",
      "name": "Trifluoromethanesulfonic acid",
      "url": "https://haz-map.com/Agents/1438",
      "category": "agents"
    },
    {
      "type": "name_match",
      "text": "trifluoromethane",
      "confidence": 1.0,
      "uuid": "296989b6-c9a5-49ac-bccd-41b72547b13d",
      "name": "Trifluoromethane",
      "url": "https://haz-map.com/Agents/1538",
      "category": "agents"
    },
    {
      "type": "name_match",
      "text": "fluoromethane",
      "confidence": 1.0,
      "uuid": "c299ba98-15e9-4c6a-a5c2-5efb3b88eb71",
      "name": "Fluoromethane",
      "url": "https://haz-map.com/Agents/8543",
      "category": "agents"
    },
    {
      "type": "name_match",
      "text": "ethanesulfonic acid",
      "confidence": 1.0,
      "uuid": "b21ff073-f9ac-47dc-a941-22a6957ce9a9",
      "name": "Ethanesulfonic acid",
      "url": "https://haz-map.com/Agents/14157",
      "category": "agents"
    },
    {
      "type": "name_match",
      "text": "water",
      "confidence": 1.0,
      "uuid": "6f2a7557-dfd2-49bc-9b4b-a93cd8e225d4",
      "name": "Water",
      "url": "https://haz-map.com/Agents/18668",
      "category": "agents"
    },
    {
      "type": "name_match",
      "text": "trifluoromethanesulfonic anhydride",
      "confidence": 1.0,
      "uuid": "c1eed903-052c-4dd9-aac2-e3b4a7aaf879",
      "name": "Trifluoromethanesulfonic anhydride",
      "url": "https://haz-map.com/Agents/19906",
      "category": "agents"
    }
  ],
  "all_links": [
    {
      "text": "Search PubMed",
      "url": "https://www.ncbi.nlm.nih.gov/pubmed?term=Trifluoromethanesulfonic+anhydride%20AND%20human%5Bmh%5D%20AND%20%28Occupational%20Diseases%20%5Bmh%5D%20OR%20Occupational%20Exposure%20%5Bmh%5D%29%20%20AND%20%28tox%5Bsb%5D%29&cmd=search"
    }
  ]
}