{
  "metadata": {
    "scraped_from": "https://haz-map.com/Agents/20627",
    "entity_name": "Dimethylphenylphosphine",
    "category": "agents",
    "uuid": "c2003fcd-c0ca-4de7-9eb9-42fce09f608d",
    "scraped_at": "2025-07-23T22:28:48.435788"
  },
  "parsed_at": "2025-07-24T01:13:59.417010",
  "title": "Dimethylphenylphosphine",
  "sections": {
    "general": {
      "agent_name": {
        "original_name": "Agent Name",
        "value": "Dimethylphenylphosphine",
        "links": [],
        "cross_references": [
          {
            "type": "name_match",
            "text": "phosphine",
            "confidence": 1.0,
            "uuid": "b9783685-a2f4-44ef-8b65-6c1ab72fbfde",
            "name": "Phosphine",
            "url": "https://haz-map.com/Agents/74",
            "category": "agents"
          },
          {
            "type": "name_match",
            "text": "phenylphosphine",
            "confidence": 1.0,
            "uuid": "df51d40f-4e2f-4779-b5ac-c185e653c66b",
            "name": "Phenylphosphine",
            "url": "https://haz-map.com/Agents/594",
            "category": "agents"
          },
          {
            "type": "name_match",
            "text": "dimethylphenylphosphine",
            "confidence": 1.0,
            "uuid": "c2003fcd-c0ca-4de7-9eb9-42fce09f608d",
            "name": "Dimethylphenylphosphine",
            "url": "https://haz-map.com/Agents/20627",
            "category": "agents"
          }
        ]
      },
      "cas_number": {
        "original_name": "CAS Number",
        "value": "672-66-2",
        "links": [],
        "cross_references": []
      },
      "formula": {
        "original_name": "Formula",
        "value": "C8-H11-P",
        "links": [],
        "cross_references": []
      },
      "major_category": {
        "original_name": "Major Category",
        "value": "Other Classes",
        "links": [],
        "cross_references": []
      },
      "synonyms": {
        "original_name": "Synonyms",
        "value": "UN1993",
        "links": [],
        "cross_references": []
      },
      "category": {
        "original_name": "Category",
        "value": "Phosphorus Compounds",
        "links": [],
        "cross_references": []
      },
      "description": {
        "original_name": "Description",
        "value": "Clear light yellow liquid; [Sigma-Aldrich MSDS]",
        "links": [],
        "cross_references": [
          {
            "type": "name_match",
            "text": "ht",
            "confidence": 1.0,
            "uuid": "764df367-8d53-4a11-81a2-31ccfe122a8d",
            "name": "HT",
            "url": "https://haz-map.com/Agents/2168",
            "category": "agents"
          }
        ]
      },
      "comments": {
        "original_name": "Comments",
        "value": "A skin and strong eye irritant; [Sigma-Aldrich MSDS] See \"Phenylphosphine\" and \"Triphenylphosphine.\"",
        "links": [],
        "cross_references": [
          {
            "type": "name_match",
            "text": "phosphine",
            "confidence": 1.0,
            "uuid": "b9783685-a2f4-44ef-8b65-6c1ab72fbfde",
            "name": "Phosphine",
            "url": "https://haz-map.com/Agents/74",
            "category": "agents"
          },
          {
            "type": "name_match",
            "text": "phenylphosphine",
            "confidence": 1.0,
            "uuid": "df51d40f-4e2f-4779-b5ac-c185e653c66b",
            "name": "Phenylphosphine",
            "url": "https://haz-map.com/Agents/594",
            "category": "agents"
          },
          {
            "type": "name_match",
            "text": "triphenylphosphine",
            "confidence": 1.0,
            "uuid": "2d4146d1-048a-4786-913b-bf5eb548d7a2",
            "name": "Triphenylphosphine",
            "url": "https://haz-map.com/Agents/7629",
            "category": "agents"
          }
        ]
      },
      "biomedical_references": {
        "original_name": "Biomedical References",
        "value": "Search PubMed",
        "links": [
          {
            "text": "Search PubMed",
            "url": "https://www.ncbi.nlm.nih.gov/pubmed?term=Dimethylphenylphosphine%20AND%20human%5Bmh%5D%20AND%20%28Occupational%20Diseases%20%5Bmh%5D%20OR%20Occupational%20Exposure%20%5Bmh%5D%29%20%20AND%20%28tox%5Bsb%5D%29&cmd=search"
          }
        ],
        "cross_references": []
      }
    },
    "exposure_assessment": {
      "vapor_pressure": {
        "original_name": "Vapor Pressure",
        "value": "0.76 mm Hg",
        "links": [],
        "cross_references": []
      },
      "explanatory_notes": {
        "original_name": "Explanatory Notes",
        "value": "The Guide in the Emergency Response Guidebook is for \"Flammable liquid, n.o.s.\"",
        "links": [],
        "cross_references": []
      }
    },
    "diseases_processes_and_activities_linked_to_this_agent": {
      "other_information": {
        "original_name": "Other Information",
        "value": "No other related information on this agent was found.",
        "links": [],
        "cross_references": []
      }
    }
  },
  "cross_references": [
    {
      "type": "name_match",
      "text": "phosphine",
      "confidence": 1.0,
      "uuid": "b9783685-a2f4-44ef-8b65-6c1ab72fbfde",
      "name": "Phosphine",
      "url": "https://haz-map.com/Agents/74",
      "category": "agents"
    },
    {
      "type": "name_match",
      "text": "phenylphosphine",
      "confidence": 1.0,
      "uuid": "df51d40f-4e2f-4779-b5ac-c185e653c66b",
      "name": "Phenylphosphine",
      "url": "https://haz-map.com/Agents/594",
      "category": "agents"
    },
    {
      "type": "name_match",
      "text": "ht",
      "confidence": 1.0,
      "uuid": "764df367-8d53-4a11-81a2-31ccfe122a8d",
      "name": "HT",
      "url": "https://haz-map.com/Agents/2168",
      "category": "agents"
    },
    {
      "type": "name_match",
      "text": "triphenylphosphine",
      "confidence": 1.0,
      "uuid": "2d4146d1-048a-4786-913b-bf5eb548d7a2",
      "name": "Triphenylphosphine",
      "url": "https://haz-map.com/Agents/7629",
      "category": "agents"
    },
    {
      "type": "name_match",
      "text": "dimethylphenylphosphine",
      "confidence": 1.0,
      "uuid": "c2003fcd-c0ca-4de7-9eb9-42fce09f608d",
      "name": "Dimethylphenylphosphine",
      "url": "https://haz-map.com/Agents/20627",
      "category": "agents"
    }
  ],
  "all_links": [
    {
      "text": "Search PubMed",
      "url": "https://www.ncbi.nlm.nih.gov/pubmed?term=Dimethylphenylphosphine%20AND%20human%5Bmh%5D%20AND%20%28Occupational%20Diseases%20%5Bmh%5D%20OR%20Occupational%20Exposure%20%5Bmh%5D%29%20%20AND%20%28tox%5Bsb%5D%29&cmd=search"
    }
  ]
}