{
  "metadata": {
    "scraped_from": "https://haz-map.com/Agents/10954",
    "entity_name": "2-Methyl-2-pentanol",
    "category": "agents",
    "uuid": "c2745879-b7c0-4ee5-9932-95c7e2f4e69a",
    "scraped_at": "2025-07-23T20:54:39.127145"
  },
  "parsed_at": "2025-07-24T01:06:25.721743",
  "title": "2-Methyl-2-pentanol",
  "sections": {
    "general": {
      "agent_name": {
        "original_name": "Agent Name",
        "value": "2-Methyl-2-pentanol",
        "links": [],
        "cross_references": [
          {
            "type": "name_match",
            "text": "2-pentanol",
            "confidence": 1.0,
            "uuid": "50f8d728-2f7d-4c2c-99d6-98c425268e54",
            "name": "2-Pentanol",
            "url": "https://haz-map.com/Agents/8529",
            "category": "agents"
          },
          {
            "type": "name_match",
            "text": "2-methyl-2-pentanol",
            "confidence": 1.0,
            "uuid": "c2745879-b7c0-4ee5-9932-95c7e2f4e69a",
            "name": "2-Methyl-2-pentanol",
            "url": "https://haz-map.com/Agents/10954",
            "category": "agents"
          }
        ]
      },
      "cas_number": {
        "original_name": "CAS Number",
        "value": "590-36-3",
        "links": [],
        "cross_references": []
      },
      "formula": {
        "original_name": "Formula",
        "value": "C6-H14-O",
        "links": [],
        "cross_references": []
      },
      "major_category": {
        "original_name": "Major Category",
        "value": "Solvents",
        "links": [],
        "cross_references": []
      },
      "synonyms": {
        "original_name": "Synonyms",
        "value": "2-Hydroxy-2-methylpentane; 2-Methylpentan-2-ol; 2-Pentanol, 2-methyl-; [ChemIDplus] Methylpentanol; 2-Metil-2-pentanol (Spanish DOT); Methyl-2-pentanol-2 (French DOT); [CAMEO] Dimethyl propyl carbinol; [Sigma-Aldrich MSDS] UN2560",
        "links": [],
        "cross_references": [
          {
            "type": "name_match",
            "text": "2-methylpentane",
            "confidence": 1.0,
            "uuid": "6520d16d-111b-4f1c-93e1-85d62bf5edd5",
            "name": "2-Methylpentane",
            "url": "https://haz-map.com/Agents/3138",
            "category": "agents"
          },
          {
            "type": "name_match",
            "text": "2-pentanol",
            "confidence": 1.0,
            "uuid": "50f8d728-2f7d-4c2c-99d6-98c425268e54",
            "name": "2-Pentanol",
            "url": "https://haz-map.com/Agents/8529",
            "category": "agents"
          }
        ]
      },
      "category": {
        "original_name": "Category",
        "value": "Alcohols (<C12)",
        "links": [],
        "cross_references": []
      },
      "description": {
        "original_name": "Description",
        "value": "Colorless liquid; [CAMEO]",
        "links": [],
        "cross_references": []
      },
      "sourcesuses": {
        "original_name": "Sources/Uses",
        "value": "Used to make other chemicals; [CAMEO]",
        "links": [],
        "cross_references": [
          {
            "type": "name_match",
            "text": "mica",
            "confidence": 1.0,
            "uuid": "433f26f1-c399-4596-b179-ce3843cfd465",
            "name": "Mica",
            "url": "https://haz-map.com/Agents/621",
            "category": "agents"
          }
        ]
      },
      "comments": {
        "original_name": "Comments",
        "value": "Highly flammable; [CAMEO] A skin and strong eye irritant; [Sigma-Aldrich MSDS] See \"2-Methyl-1-pentanol.\"",
        "links": [],
        "cross_references": [
          {
            "type": "name_match",
            "text": "2-methyl-1-pentanol",
            "confidence": 1.0,
            "uuid": "35195b43-075e-4d18-a826-b02d18936375",
            "name": "2-Methyl-1-pentanol",
            "url": "https://haz-map.com/Agents/3129",
            "category": "agents"
          },
          {
            "type": "name_match",
            "text": "1-pentanol",
            "confidence": 1.0,
            "uuid": "74c9beda-4812-46af-930c-b4b8c6b2cee3",
            "name": "1-Pentanol",
            "url": "https://haz-map.com/Agents/3547",
            "category": "agents"
          }
        ]
      },
      "biomedical_references": {
        "original_name": "Biomedical References",
        "value": "Search PubMed",
        "links": [
          {
            "text": "Search PubMed",
            "url": "https://www.ncbi.nlm.nih.gov/pubmed?term=2-Methyl-2-pentanol%20AND%20human%5Bmh%5D%20AND%20%28Occupational%20Diseases%20%5Bmh%5D%20OR%20Occupational%20Exposure%20%5Bmh%5D%29%20%20AND%20%28tox%5Bsb%5D%29&cmd=search"
          }
        ],
        "cross_references": []
      }
    },
    "exposure_assessment": {
      "vapor_pressure": {
        "original_name": "Vapor Pressure",
        "value": "8.6 mm Hg",
        "links": [],
        "cross_references": []
      },
      "explanatory_notes": {
        "original_name": "Explanatory Notes",
        "value": "VP from ChemIDplus;",
        "links": [],
        "cross_references": []
      }
    },
    "adverse_effects": {
      "neurotoxin": {
        "original_name": "Neurotoxin",
        "value": "Acute solvent syndrome",
        "links": [],
        "cross_references": []
      }
    },
    "diseases_processes_and_activities_linked_to_this_agent": {
      "diseases": {
        "original_name": "Diseases",
        "value": "Occupational diseases associated with exposure to this agent: Solvents, acute toxic effect",
        "links": [
          {
            "text": "Solvents, acute toxic effect",
            "url": "https://haz-map.com/Diseases/326"
          }
        ],
        "cross_references": [
          {
            "type": "url_match",
            "text": "Solvents, acute toxic effect",
            "url": "https://haz-map.com/Diseases/326",
            "confidence": 1.0,
            "uuid": "581e90e3-9d0c-45f0-aa6c-3468c28da129",
            "name": "Solvents, acute toxic effect",
            "category": "diseases"
          }
        ]
      }
    }
  },
  "cross_references": [
    {
      "type": "url_match",
      "text": "Solvents, acute toxic effect",
      "url": "https://haz-map.com/Diseases/326",
      "confidence": 1.0,
      "uuid": "581e90e3-9d0c-45f0-aa6c-3468c28da129",
      "name": "Solvents, acute toxic effect",
      "category": "diseases"
    },
    {
      "type": "name_match",
      "text": "mica",
      "confidence": 1.0,
      "uuid": "433f26f1-c399-4596-b179-ce3843cfd465",
      "name": "Mica",
      "url": "https://haz-map.com/Agents/621",
      "category": "agents"
    },
    {
      "type": "name_match",
      "text": "2-methyl-1-pentanol",
      "confidence": 1.0,
      "uuid": "35195b43-075e-4d18-a826-b02d18936375",
      "name": "2-Methyl-1-pentanol",
      "url": "https://haz-map.com/Agents/3129",
      "category": "agents"
    },
    {
      "type": "name_match",
      "text": "2-methylpentane",
      "confidence": 1.0,
      "uuid": "6520d16d-111b-4f1c-93e1-85d62bf5edd5",
      "name": "2-Methylpentane",
      "url": "https://haz-map.com/Agents/3138",
      "category": "agents"
    },
    {
      "type": "name_match",
      "text": "1-pentanol",
      "confidence": 1.0,
      "uuid": "74c9beda-4812-46af-930c-b4b8c6b2cee3",
      "name": "1-Pentanol",
      "url": "https://haz-map.com/Agents/3547",
      "category": "agents"
    },
    {
      "type": "name_match",
      "text": "2-pentanol",
      "confidence": 1.0,
      "uuid": "50f8d728-2f7d-4c2c-99d6-98c425268e54",
      "name": "2-Pentanol",
      "url": "https://haz-map.com/Agents/8529",
      "category": "agents"
    },
    {
      "type": "name_match",
      "text": "2-methyl-2-pentanol",
      "confidence": 1.0,
      "uuid": "c2745879-b7c0-4ee5-9932-95c7e2f4e69a",
      "name": "2-Methyl-2-pentanol",
      "url": "https://haz-map.com/Agents/10954",
      "category": "agents"
    }
  ],
  "all_links": [
    {
      "text": "Search PubMed",
      "url": "https://www.ncbi.nlm.nih.gov/pubmed?term=2-Methyl-2-pentanol%20AND%20human%5Bmh%5D%20AND%20%28Occupational%20Diseases%20%5Bmh%5D%20OR%20Occupational%20Exposure%20%5Bmh%5D%29%20%20AND%20%28tox%5Bsb%5D%29&cmd=search"
    },
    {
      "text": "Solvents, acute toxic effect",
      "url": "https://haz-map.com/Diseases/326"
    }
  ]
}