{
  "metadata": {
    "scraped_from": "https://haz-map.com/Agents/1595",
    "entity_name": "Acetyl bromide",
    "category": "agents",
    "uuid": "c2a8a510-1a0c-44b2-a4c6-3d07017011de",
    "scraped_at": "2025-07-23T19:01:50.361858"
  },
  "parsed_at": "2025-07-24T00:59:50.805316",
  "title": "Acetyl bromide",
  "sections": {
    "general": {
      "agent_name": {
        "original_name": "Agent Name",
        "value": "Acetyl bromide",
        "links": [],
        "cross_references": [
          {
            "type": "name_match",
            "text": "acetyl bromide",
            "confidence": 1.0,
            "uuid": "c2a8a510-1a0c-44b2-a4c6-3d07017011de",
            "name": "Acetyl bromide",
            "url": "https://haz-map.com/Agents/1595",
            "category": "agents"
          }
        ]
      },
      "cas_number": {
        "original_name": "CAS Number",
        "value": "506-96-7",
        "links": [],
        "cross_references": []
      },
      "formula": {
        "original_name": "Formula",
        "value": "C2-H3-Br-O",
        "links": [],
        "cross_references": []
      },
      "major_category": {
        "original_name": "Major Category",
        "value": "Toxic Gases & Vapors",
        "links": [],
        "cross_references": []
      },
      "synonyms": {
        "original_name": "Synonyms",
        "value": "Acetic acid, bromide; Ethanoyl bromide; [ChemIDplus]",
        "links": [],
        "cross_references": [
          {
            "type": "name_match",
            "text": "acetic acid",
            "confidence": 1.0,
            "uuid": "0905c6e4-df84-4895-a92d-658819239bbd",
            "name": "Acetic acid",
            "url": "https://haz-map.com/Agents/207",
            "category": "agents"
          }
        ]
      },
      "category": {
        "original_name": "Category",
        "value": "Acid Halides",
        "links": [],
        "cross_references": []
      },
      "description": {
        "original_name": "Description",
        "value": "Clear fuming liquid with a pungent odor; [HSDB]",
        "links": [],
        "cross_references": []
      },
      "sourcesuses": {
        "original_name": "Sources/Uses",
        "value": "Used in organic synthesis; [HSDB]",
        "links": [],
        "cross_references": []
      },
      "comments": {
        "original_name": "Comments",
        "value": "Skin contact can cause blisters; Inhalation can cause acute pneumonitis; [CAMEO] See the Process, \"Toxic Gas from Spilling Chemical in Water.\"",
        "links": [],
        "cross_references": [
          {
            "type": "name_match",
            "text": "mica",
            "confidence": 1.0,
            "uuid": "433f26f1-c399-4596-b179-ce3843cfd465",
            "name": "Mica",
            "url": "https://haz-map.com/Agents/621",
            "category": "agents"
          },
          {
            "type": "name_match",
            "text": "water",
            "confidence": 1.0,
            "uuid": "6f2a7557-dfd2-49bc-9b4b-a93cd8e225d4",
            "name": "Water",
            "url": "https://haz-map.com/Agents/18668",
            "category": "agents"
          }
        ]
      },
      "biomedical_references": {
        "original_name": "Biomedical References",
        "value": "Search PubMed",
        "links": [
          {
            "text": "Search PubMed",
            "url": "https://www.ncbi.nlm.nih.gov/pubmed?term=Acetyl+bromide%20AND%20human%5Bmh%5D%20AND%20%28Occupational%20Diseases%20%5Bmh%5D%20OR%20Occupational%20Exposure%20%5Bmh%5D%29%20%20AND%20%28tox%5Bsb%5D%29&cmd=search"
          }
        ],
        "cross_references": []
      }
    },
    "exposure_assessment": {
      "tih": {
        "original_name": "TIH",
        "value": "Yes",
        "links": [],
        "cross_references": []
      },
      "dangerous_when_wet": {
        "original_name": "Dangerous When Wet",
        "value": "Yes",
        "links": [],
        "cross_references": []
      },
      "vapor_pressure": {
        "original_name": "Vapor Pressure",
        "value": "122 mm Hg",
        "links": [],
        "cross_references": []
      },
      "explanatory_notes": {
        "original_name": "Explanatory Notes",
        "value": "Not TIH in land-based spills, but TIH substance released when spilled in water; [ERG 2016] VP from ChemIDplus;",
        "links": [],
        "cross_references": [
          {
            "type": "name_match",
            "text": "water",
            "confidence": 1.0,
            "uuid": "6f2a7557-dfd2-49bc-9b4b-a93cd8e225d4",
            "name": "Water",
            "url": "https://haz-map.com/Agents/18668",
            "category": "agents"
          }
        ]
      }
    },
    "adverse_effects": {
      "toxic_pneumonitis": {
        "original_name": "Toxic Pneumonitis",
        "value": "Yes",
        "links": [],
        "cross_references": []
      },
      "dermatotoxin": {
        "original_name": "Dermatotoxin",
        "value": "Skin burns",
        "links": [],
        "cross_references": [
          {
            "type": "name_match",
            "text": "burn",
            "confidence": 1.0,
            "uuid": "63665de5-6376-4918-8dbf-4c10c4d63837",
            "name": "burn",
            "url": "https://haz-map.com/Findings/204",
            "category": "findings"
          }
        ]
      }
    },
    "diseases_processes_and_activities_linked_to_this_agent": {
      "diseases": {
        "original_name": "Diseases",
        "value": "Occupational diseases associated with exposure to this agent: Pneumonitis, toxic",
        "links": [
          {
            "text": "Pneumonitis, toxic",
            "url": "https://haz-map.com/Diseases/306"
          }
        ],
        "cross_references": [
          {
            "type": "url_match",
            "text": "Pneumonitis, toxic",
            "url": "https://haz-map.com/Diseases/306",
            "confidence": 1.0,
            "uuid": "cd799281-0284-450d-bb82-ed6b675616ac",
            "name": "Pneumonitis, toxic",
            "category": "diseases"
          }
        ]
      },
      "processes": {
        "original_name": "Processes",
        "value": "Industrial Processes with risk of exposure: Toxic Gas from Spilling Chemical in Water",
        "links": [
          {
            "text": "Toxic Gas from Spilling Chemical in Water",
            "url": "https://haz-map.com/Processes/256"
          }
        ],
        "cross_references": [
          {
            "type": "name_match",
            "text": "mica",
            "confidence": 1.0,
            "uuid": "433f26f1-c399-4596-b179-ce3843cfd465",
            "name": "Mica",
            "url": "https://haz-map.com/Agents/621",
            "category": "agents"
          },
          {
            "type": "name_match",
            "text": "water",
            "confidence": 1.0,
            "uuid": "6f2a7557-dfd2-49bc-9b4b-a93cd8e225d4",
            "name": "Water",
            "url": "https://haz-map.com/Agents/18668",
            "category": "agents"
          }
        ]
      }
    }
  },
  "cross_references": [
    {
      "type": "url_match",
      "text": "Pneumonitis, toxic",
      "url": "https://haz-map.com/Diseases/306",
      "confidence": 1.0,
      "uuid": "cd799281-0284-450d-bb82-ed6b675616ac",
      "name": "Pneumonitis, toxic",
      "category": "diseases"
    },
    {
      "type": "name_match",
      "text": "burn",
      "confidence": 1.0,
      "uuid": "63665de5-6376-4918-8dbf-4c10c4d63837",
      "name": "burn",
      "url": "https://haz-map.com/Findings/204",
      "category": "findings"
    },
    {
      "type": "name_match",
      "text": "acetic acid",
      "confidence": 1.0,
      "uuid": "0905c6e4-df84-4895-a92d-658819239bbd",
      "name": "Acetic acid",
      "url": "https://haz-map.com/Agents/207",
      "category": "agents"
    },
    {
      "type": "name_match",
      "text": "mica",
      "confidence": 1.0,
      "uuid": "433f26f1-c399-4596-b179-ce3843cfd465",
      "name": "Mica",
      "url": "https://haz-map.com/Agents/621",
      "category": "agents"
    },
    {
      "type": "name_match",
      "text": "acetyl bromide",
      "confidence": 1.0,
      "uuid": "c2a8a510-1a0c-44b2-a4c6-3d07017011de",
      "name": "Acetyl bromide",
      "url": "https://haz-map.com/Agents/1595",
      "category": "agents"
    },
    {
      "type": "name_match",
      "text": "water",
      "confidence": 1.0,
      "uuid": "6f2a7557-dfd2-49bc-9b4b-a93cd8e225d4",
      "name": "Water",
      "url": "https://haz-map.com/Agents/18668",
      "category": "agents"
    }
  ],
  "all_links": [
    {
      "text": "Search PubMed",
      "url": "https://www.ncbi.nlm.nih.gov/pubmed?term=Acetyl+bromide%20AND%20human%5Bmh%5D%20AND%20%28Occupational%20Diseases%20%5Bmh%5D%20OR%20Occupational%20Exposure%20%5Bmh%5D%29%20%20AND%20%28tox%5Bsb%5D%29&cmd=search"
    },
    {
      "text": "Pneumonitis, toxic",
      "url": "https://haz-map.com/Diseases/306"
    },
    {
      "text": "Toxic Gas from Spilling Chemical in Water",
      "url": "https://haz-map.com/Processes/256"
    }
  ]
}