{
  "metadata": {
    "scraped_from": "https://haz-map.com/Agents/19396",
    "entity_name": "1-Penten-3-ol",
    "category": "agents",
    "uuid": "c2d13ebd-c6cb-4617-a18c-de8e19256622",
    "scraped_at": "2025-07-23T22:05:14.441131"
  },
  "parsed_at": "2025-07-24T00:55:06.772486",
  "title": "1-Penten-3-ol",
  "sections": {
    "general": {
      "agent_name": {
        "original_name": "Agent Name",
        "value": "1-Penten-3-ol",
        "links": [],
        "cross_references": [
          {
            "type": "name_match",
            "text": "1-penten-3-ol",
            "confidence": 1.0,
            "uuid": "c2d13ebd-c6cb-4617-a18c-de8e19256622",
            "name": "1-Penten-3-ol",
            "url": "https://haz-map.com/Agents/19396",
            "category": "agents"
          }
        ]
      },
      "cas_number": {
        "original_name": "CAS Number",
        "value": "616-25-1",
        "links": [],
        "cross_references": []
      },
      "formula": {
        "original_name": "Formula",
        "value": "C5-H10-O",
        "links": [],
        "cross_references": []
      },
      "major_category": {
        "original_name": "Major Category",
        "value": "Other Classes",
        "links": [],
        "cross_references": []
      },
      "synonyms": {
        "original_name": "Synonyms",
        "value": "1-Ethylallyl alcohol; alpha-Ethylallyl alcohol; Ethyl vinyl carbinol; Vinyl ethyl carbinol; [ChemIDplus] Pent-1-en-3-ol; [JECFA] UN1987",
        "links": [],
        "cross_references": [
          {
            "type": "name_match",
            "text": "allyl alcohol",
            "confidence": 1.0,
            "uuid": "c235e99a-777b-43d1-94df-f6ede137022d",
            "name": "Allyl alcohol",
            "url": "https://haz-map.com/Agents/242",
            "category": "agents"
          }
        ]
      },
      "category": {
        "original_name": "Category",
        "value": "Alcohols and Polyols, Other",
        "links": [],
        "cross_references": []
      },
      "description": {
        "original_name": "Description",
        "value": "Colorless liquid; [Alfa Aesar MSDS]",
        "links": [],
        "cross_references": []
      },
      "sourcesuses": {
        "original_name": "Sources/Uses",
        "value": "Used as a flavoring agent; [FDA]",
        "links": [],
        "cross_references": []
      },
      "comments": {
        "original_name": "Comments",
        "value": "Safe when used as a flavoring agent in food; [JECFA] An irritant; [Alfa Aesar MSDS] See \"3-Penten-2-ol.\"",
        "links": [],
        "cross_references": [
          {
            "type": "name_match",
            "text": "3-penten-2-ol",
            "confidence": 1.0,
            "uuid": "a0729ad5-fde0-46f1-995f-4e0a21d2aefe",
            "name": "3-Penten-2-ol",
            "url": "https://haz-map.com/Agents/10822",
            "category": "agents"
          }
        ]
      },
      "biomedical_references": {
        "original_name": "Biomedical References",
        "value": "Search PubMed",
        "links": [
          {
            "text": "Search PubMed",
            "url": "https://www.ncbi.nlm.nih.gov/pubmed?term=1-Penten-3-ol%20AND%20human%5Bmh%5D%20AND%20%28Occupational%20Diseases%20%5Bmh%5D%20OR%20Occupational%20Exposure%20%5Bmh%5D%29%20%20AND%20%28tox%5Bsb%5D%29&cmd=search"
          }
        ],
        "cross_references": []
      }
    },
    "exposure_assessment": {
      "vapor_pressure": {
        "original_name": "Vapor Pressure",
        "value": "9.68 mm Hg",
        "links": [],
        "cross_references": []
      },
      "explanatory_notes": {
        "original_name": "Explanatory Notes",
        "value": "The Guide in the Emergency Response Guidebook is for \"Alcohols, n.o.s.\"",
        "links": [],
        "cross_references": []
      }
    },
    "diseases_processes_and_activities_linked_to_this_agent": {
      "other_information": {
        "original_name": "Other Information",
        "value": "No other related information on this agent was found.",
        "links": [],
        "cross_references": []
      }
    }
  },
  "cross_references": [
    {
      "type": "name_match",
      "text": "allyl alcohol",
      "confidence": 1.0,
      "uuid": "c235e99a-777b-43d1-94df-f6ede137022d",
      "name": "Allyl alcohol",
      "url": "https://haz-map.com/Agents/242",
      "category": "agents"
    },
    {
      "type": "name_match",
      "text": "3-penten-2-ol",
      "confidence": 1.0,
      "uuid": "a0729ad5-fde0-46f1-995f-4e0a21d2aefe",
      "name": "3-Penten-2-ol",
      "url": "https://haz-map.com/Agents/10822",
      "category": "agents"
    },
    {
      "type": "name_match",
      "text": "1-penten-3-ol",
      "confidence": 1.0,
      "uuid": "c2d13ebd-c6cb-4617-a18c-de8e19256622",
      "name": "1-Penten-3-ol",
      "url": "https://haz-map.com/Agents/19396",
      "category": "agents"
    }
  ],
  "all_links": [
    {
      "text": "Search PubMed",
      "url": "https://www.ncbi.nlm.nih.gov/pubmed?term=1-Penten-3-ol%20AND%20human%5Bmh%5D%20AND%20%28Occupational%20Diseases%20%5Bmh%5D%20OR%20Occupational%20Exposure%20%5Bmh%5D%29%20%20AND%20%28tox%5Bsb%5D%29&cmd=search"
    }
  ]
}