{
  "metadata": {
    "scraped_from": "https://haz-map.com/Agents/13214",
    "entity_name": "Dimethylnaphthalene",
    "category": "agents",
    "uuid": "c2d4d035-b0d4-448d-80f2-484216ae99d0",
    "scraped_at": "2025-07-23T21:12:51.920449"
  },
  "parsed_at": "2025-07-24T01:10:18.855079",
  "title": "Dimethylnaphthalene",
  "sections": {
    "general": {
      "agent_name": {
        "original_name": "Agent Name",
        "value": "Dimethylnaphthalene",
        "links": [],
        "cross_references": [
          {
            "type": "name_match",
            "text": "naphthalene",
            "confidence": 1.0,
            "uuid": "433cf489-5423-4297-a38e-6e755a9d458e",
            "name": "Naphthalene",
            "url": "https://haz-map.com/Agents/46",
            "category": "agents"
          },
          {
            "type": "name_match",
            "text": "ht",
            "confidence": 1.0,
            "uuid": "764df367-8d53-4a11-81a2-31ccfe122a8d",
            "name": "HT",
            "url": "https://haz-map.com/Agents/2168",
            "category": "agents"
          },
          {
            "type": "name_match",
            "text": "methylnaphthalene",
            "confidence": 1.0,
            "uuid": "1b7e0963-f004-487e-8b9f-2b9fbbcfa72b",
            "name": "Methylnaphthalene",
            "url": "https://haz-map.com/Agents/6128",
            "category": "agents"
          },
          {
            "type": "name_match",
            "text": "dimethylnaphthalene",
            "confidence": 1.0,
            "uuid": "c2d4d035-b0d4-448d-80f2-484216ae99d0",
            "name": "Dimethylnaphthalene",
            "url": "https://haz-map.com/Agents/13214",
            "category": "agents"
          }
        ]
      },
      "cas_number": {
        "original_name": "CAS Number",
        "value": "28804-88-8",
        "links": [],
        "cross_references": []
      },
      "formula": {
        "original_name": "Formula",
        "value": "C12-H12",
        "links": [],
        "cross_references": []
      },
      "major_category": {
        "original_name": "Major Category",
        "value": "Other Classes",
        "links": [],
        "cross_references": []
      },
      "synonyms": {
        "original_name": "Synonyms",
        "value": "Naphthalene, dimethyl-; [ChemIDplus] Dimethylnaphthalene (Mixture of Isomers); [Acros Organics MSDS]",
        "links": [],
        "cross_references": [
          {
            "type": "name_match",
            "text": "naphthalene",
            "confidence": 1.0,
            "uuid": "433cf489-5423-4297-a38e-6e755a9d458e",
            "name": "Naphthalene",
            "url": "https://haz-map.com/Agents/46",
            "category": "agents"
          },
          {
            "type": "name_match",
            "text": "ht",
            "confidence": 1.0,
            "uuid": "764df367-8d53-4a11-81a2-31ccfe122a8d",
            "name": "HT",
            "url": "https://haz-map.com/Agents/2168",
            "category": "agents"
          },
          {
            "type": "name_match",
            "text": "methylnaphthalene",
            "confidence": 1.0,
            "uuid": "1b7e0963-f004-487e-8b9f-2b9fbbcfa72b",
            "name": "Methylnaphthalene",
            "url": "https://haz-map.com/Agents/6128",
            "category": "agents"
          },
          {
            "type": "name_match",
            "text": "dimethylnaphthalene",
            "confidence": 1.0,
            "uuid": "c2d4d035-b0d4-448d-80f2-484216ae99d0",
            "name": "Dimethylnaphthalene",
            "url": "https://haz-map.com/Agents/13214",
            "category": "agents"
          }
        ]
      },
      "category": {
        "original_name": "Category",
        "value": "Naphthalenes",
        "links": [],
        "cross_references": [
          {
            "type": "name_match",
            "text": "naphthalene",
            "confidence": 1.0,
            "uuid": "433cf489-5423-4297-a38e-6e755a9d458e",
            "name": "Naphthalene",
            "url": "https://haz-map.com/Agents/46",
            "category": "agents"
          },
          {
            "type": "name_match",
            "text": "ht",
            "confidence": 1.0,
            "uuid": "764df367-8d53-4a11-81a2-31ccfe122a8d",
            "name": "HT",
            "url": "https://haz-map.com/Agents/2168",
            "category": "agents"
          }
        ]
      },
      "description": {
        "original_name": "Description",
        "value": "Dark brown liquid; [CAMEO] Clear, nearly colorless liquid; [Acros Organics MSDS]",
        "links": [],
        "cross_references": []
      },
      "sourcesuses": {
        "original_name": "Sources/Uses",
        "value": "Permitted for use as an inert ingredient in non-food pesticide products; [EPA] Formerly registered in the US for use as an insecticide (with methoxychlor and malathion) and to kill freshwater fish for population surveys (with rotenone); [NPIRS]",
        "links": [],
        "cross_references": [
          {
            "type": "name_match",
            "text": "methoxychlor",
            "confidence": 1.0,
            "uuid": "6d529de2-ba54-49a3-8732-c8a34fd94849",
            "name": "Methoxychlor",
            "url": "https://haz-map.com/Agents/239",
            "category": "agents"
          },
          {
            "type": "name_match",
            "text": "malathion",
            "confidence": 1.0,
            "uuid": "3ed37791-6c52-458f-ae75-45a3d1be48a4",
            "name": "Malathion",
            "url": "https://haz-map.com/Agents/252",
            "category": "agents"
          },
          {
            "type": "name_match",
            "text": "rotenone",
            "confidence": 1.0,
            "uuid": "53b641f1-8ca1-4abf-b8fb-b0e4d89f6d63",
            "name": "Rotenone",
            "url": "https://haz-map.com/Agents/618",
            "category": "agents"
          },
          {
            "type": "name_match",
            "text": "water",
            "confidence": 1.0,
            "uuid": "6f2a7557-dfd2-49bc-9b4b-a93cd8e225d4",
            "name": "Water",
            "url": "https://haz-map.com/Agents/18668",
            "category": "agents"
          }
        ]
      },
      "comments": {
        "original_name": "Comments",
        "value": "May cause irritation; [Acros Organics MSDS] See \"Naphthalene.\"",
        "links": [],
        "cross_references": [
          {
            "type": "name_match",
            "text": "naphthalene",
            "confidence": 1.0,
            "uuid": "433cf489-5423-4297-a38e-6e755a9d458e",
            "name": "Naphthalene",
            "url": "https://haz-map.com/Agents/46",
            "category": "agents"
          },
          {
            "type": "name_match",
            "text": "ht",
            "confidence": 1.0,
            "uuid": "764df367-8d53-4a11-81a2-31ccfe122a8d",
            "name": "HT",
            "url": "https://haz-map.com/Agents/2168",
            "category": "agents"
          }
        ]
      },
      "biomedical_references": {
        "original_name": "Biomedical References",
        "value": "Search PubMed",
        "links": [
          {
            "text": "Search PubMed",
            "url": "https://www.ncbi.nlm.nih.gov/pubmed?term=Dimethylnaphthalene%20AND%20human%5Bmh%5D%20AND%20%28Occupational%20Diseases%20%5Bmh%5D%20OR%20Occupational%20Exposure%20%5Bmh%5D%29%20%20AND%20%28tox%5Bsb%5D%29&cmd=search"
          }
        ],
        "cross_references": []
      }
    },
    "exposure_assessment": {
      "vapor_pressure": {
        "original_name": "Vapor Pressure",
        "value": "0.0084 mm Hg",
        "links": [],
        "cross_references": []
      }
    },
    "diseases_processes_and_activities_linked_to_this_agent": {
      "processes": {
        "original_name": "Processes",
        "value": "Industrial Processes with risk of exposure: Farming (Pesticides)",
        "links": [
          {
            "text": "Farming (Pesticides)",
            "url": "https://haz-map.com/Processes/218"
          }
        ],
        "cross_references": [
          {
            "type": "url_match",
            "text": "Farming (Pesticides)",
            "url": "https://haz-map.com/Processes/218",
            "confidence": 1.0,
            "uuid": "cf1e5815-c9bb-4917-82a5-391848170b7e",
            "name": "Farming (Pesticides)",
            "category": "processes"
          }
        ]
      }
    }
  },
  "cross_references": [
    {
      "type": "url_match",
      "text": "Farming (Pesticides)",
      "url": "https://haz-map.com/Processes/218",
      "confidence": 1.0,
      "uuid": "cf1e5815-c9bb-4917-82a5-391848170b7e",
      "name": "Farming (Pesticides)",
      "category": "processes"
    },
    {
      "type": "name_match",
      "text": "naphthalene",
      "confidence": 1.0,
      "uuid": "433cf489-5423-4297-a38e-6e755a9d458e",
      "name": "Naphthalene",
      "url": "https://haz-map.com/Agents/46",
      "category": "agents"
    },
    {
      "type": "name_match",
      "text": "methoxychlor",
      "confidence": 1.0,
      "uuid": "6d529de2-ba54-49a3-8732-c8a34fd94849",
      "name": "Methoxychlor",
      "url": "https://haz-map.com/Agents/239",
      "category": "agents"
    },
    {
      "type": "name_match",
      "text": "malathion",
      "confidence": 1.0,
      "uuid": "3ed37791-6c52-458f-ae75-45a3d1be48a4",
      "name": "Malathion",
      "url": "https://haz-map.com/Agents/252",
      "category": "agents"
    },
    {
      "type": "name_match",
      "text": "rotenone",
      "confidence": 1.0,
      "uuid": "53b641f1-8ca1-4abf-b8fb-b0e4d89f6d63",
      "name": "Rotenone",
      "url": "https://haz-map.com/Agents/618",
      "category": "agents"
    },
    {
      "type": "name_match",
      "text": "ht",
      "confidence": 1.0,
      "uuid": "764df367-8d53-4a11-81a2-31ccfe122a8d",
      "name": "HT",
      "url": "https://haz-map.com/Agents/2168",
      "category": "agents"
    },
    {
      "type": "name_match",
      "text": "methylnaphthalene",
      "confidence": 1.0,
      "uuid": "1b7e0963-f004-487e-8b9f-2b9fbbcfa72b",
      "name": "Methylnaphthalene",
      "url": "https://haz-map.com/Agents/6128",
      "category": "agents"
    },
    {
      "type": "name_match",
      "text": "dimethylnaphthalene",
      "confidence": 1.0,
      "uuid": "c2d4d035-b0d4-448d-80f2-484216ae99d0",
      "name": "Dimethylnaphthalene",
      "url": "https://haz-map.com/Agents/13214",
      "category": "agents"
    },
    {
      "type": "name_match",
      "text": "water",
      "confidence": 1.0,
      "uuid": "6f2a7557-dfd2-49bc-9b4b-a93cd8e225d4",
      "name": "Water",
      "url": "https://haz-map.com/Agents/18668",
      "category": "agents"
    }
  ],
  "all_links": [
    {
      "text": "Search PubMed",
      "url": "https://www.ncbi.nlm.nih.gov/pubmed?term=Dimethylnaphthalene%20AND%20human%5Bmh%5D%20AND%20%28Occupational%20Diseases%20%5Bmh%5D%20OR%20Occupational%20Exposure%20%5Bmh%5D%29%20%20AND%20%28tox%5Bsb%5D%29&cmd=search"
    },
    {
      "text": "Farming (Pesticides)",
      "url": "https://haz-map.com/Processes/218"
    }
  ]
}