{
  "metadata": {
    "scraped_from": "https://haz-map.com/Agents/15774",
    "entity_name": "N,N-Diethylethylenediamine",
    "category": "agents",
    "uuid": "c33fd91d-541f-4731-a20c-21d0657b6952",
    "scraped_at": "2025-07-23T21:32:21.674725"
  },
  "parsed_at": "2025-07-24T00:50:59.785877",
  "title": "N,N-Diethylethylenediamine",
  "sections": {
    "general": {
      "agent_name": {
        "original_name": "Agent Name",
        "value": "N,N-Diethylethylenediamine",
        "links": [],
        "cross_references": [
          {
            "type": "name_match",
            "text": "ethylenediamine",
            "confidence": 1.0,
            "uuid": "64071736-683c-4d60-a83d-83a0e42c3e75",
            "name": "Ethylenediamine",
            "url": "https://haz-map.com/Agents/480",
            "category": "agents"
          },
          {
            "type": "name_match",
            "text": "ethylene",
            "confidence": 1.0,
            "uuid": "958eacc0-5135-4b62-bb93-6df972bf552f",
            "name": "Ethylene",
            "url": "https://haz-map.com/Agents/1076",
            "category": "agents"
          },
          {
            "type": "name_match",
            "text": "n,n-diethylethylenediamine",
            "confidence": 1.0,
            "uuid": "c33fd91d-541f-4731-a20c-21d0657b6952",
            "name": "N,N-Diethylethylenediamine",
            "url": "https://haz-map.com/Agents/15774",
            "category": "agents"
          }
        ]
      },
      "cas_number": {
        "original_name": "CAS Number",
        "value": "100-36-7",
        "links": [],
        "cross_references": []
      },
      "formula": {
        "original_name": "Formula",
        "value": "C6-H16-N2",
        "links": [],
        "cross_references": []
      },
      "major_category": {
        "original_name": "Major Category",
        "value": "Nitrogen Compounds",
        "links": [],
        "cross_references": [
          {
            "type": "name_match",
            "text": "nitrogen",
            "confidence": 1.0,
            "uuid": "db5e90a9-06d2-45b9-8b81-f345a89b0bc0",
            "name": "Nitrogen",
            "url": "https://haz-map.com/Agents/1072",
            "category": "agents"
          }
        ]
      },
      "synonyms": {
        "original_name": "Synonyms",
        "value": "(Diethylamino)ethylamino; 1,2-Ethanediamine, N,N-diethyl-; 1-Amino-2-(N,N-diethylamino)ethane; 1-Amino-2-(diethylamino)ethane; 2-(Diethylamino)ethylamine; 2-(N,N-Diethylamino)ethylamine; N,N-(Diethylamino)ethylamine; N,N-(Diethylethyl)diamine; N,N-(Diethylethylene)diamine; N,N-Diethyl-1,2-diaminoethane; N,N-Diethyl-1,2-ethanediamine; N,N-Diethylethanediamine; N-(2-Aminoethyl)-N,N-diethylamine; N-(2-Diethylaminoethyl)amine; beta-Diethylaminoethylamine; 1,2-Ethanediamine, N1,N1-diethyl-; 2-Aminoethyldiethylamine; Ethylenediamine, N,N-diethyl-; [ChemIDplus] UN2685",
        "links": [],
        "cross_references": [
          {
            "type": "name_match",
            "text": "ethylamine",
            "confidence": 1.0,
            "uuid": "41ca4da8-b990-420a-86b2-3d77404fb7f4",
            "name": "Ethylamine",
            "url": "https://haz-map.com/Agents/220",
            "category": "agents"
          },
          {
            "type": "name_match",
            "text": "diethylamine",
            "confidence": 1.0,
            "uuid": "43abaa2a-ffbe-4f59-90e0-b71989e79e3a",
            "name": "Diethylamine",
            "url": "https://haz-map.com/Agents/221",
            "category": "agents"
          },
          {
            "type": "name_match",
            "text": "ethylenediamine",
            "confidence": 1.0,
            "uuid": "64071736-683c-4d60-a83d-83a0e42c3e75",
            "name": "Ethylenediamine",
            "url": "https://haz-map.com/Agents/480",
            "category": "agents"
          },
          {
            "type": "name_match",
            "text": "ethane",
            "confidence": 1.0,
            "uuid": "5162cc8c-dfb9-4060-81ac-38a8cec7f9dd",
            "name": "Ethane",
            "url": "https://haz-map.com/Agents/1075",
            "category": "agents"
          },
          {
            "type": "name_match",
            "text": "ethylene",
            "confidence": 1.0,
            "uuid": "958eacc0-5135-4b62-bb93-6df972bf552f",
            "name": "Ethylene",
            "url": "https://haz-map.com/Agents/1076",
            "category": "agents"
          }
        ]
      },
      "category": {
        "original_name": "Category",
        "value": "Amines, Aliphatic",
        "links": [],
        "cross_references": []
      },
      "description": {
        "original_name": "Description",
        "value": "Colorless liquid; [Alfa Aesar MSDS]",
        "links": [],
        "cross_references": []
      },
      "comments": {
        "original_name": "Comments",
        "value": "Causes burns; Inhalation may cause corrosive injuries to upper respiratory tract and lungs; Harmful by skin contact; [Alfa Aesar MSDS]",
        "links": [],
        "cross_references": [
          {
            "type": "name_match",
            "text": "burn",
            "confidence": 1.0,
            "uuid": "63665de5-6376-4918-8dbf-4c10c4d63837",
            "name": "burn",
            "url": "https://haz-map.com/Findings/204",
            "category": "findings"
          }
        ]
      },
      "biomedical_references": {
        "original_name": "Biomedical References",
        "value": "Search PubMed",
        "links": [
          {
            "text": "Search PubMed",
            "url": "https://www.ncbi.nlm.nih.gov/pubmed?term=N%2cN-Diethylethylenediamine%20AND%20human%5Bmh%5D%20AND%20%28Occupational%20Diseases%20%5Bmh%5D%20OR%20Occupational%20Exposure%20%5Bmh%5D%29%20%20AND%20%28tox%5Bsb%5D%29&cmd=search"
          }
        ],
        "cross_references": []
      }
    },
    "exposure_assessment": {
      "vapor_pressure": {
        "original_name": "Vapor Pressure",
        "value": "2.97 mm Hg",
        "links": [],
        "cross_references": []
      },
      "explanatory_notes": {
        "original_name": "Explanatory Notes",
        "value": "VP from ChemIDplus;",
        "links": [],
        "cross_references": []
      }
    },
    "adverse_effects": {
      "toxic_pneumonitis": {
        "original_name": "Toxic Pneumonitis",
        "value": "Yes",
        "links": [],
        "cross_references": []
      },
      "dermatotoxin": {
        "original_name": "Dermatotoxin",
        "value": "Skin burns",
        "links": [],
        "cross_references": [
          {
            "type": "name_match",
            "text": "burn",
            "confidence": 1.0,
            "uuid": "63665de5-6376-4918-8dbf-4c10c4d63837",
            "name": "burn",
            "url": "https://haz-map.com/Findings/204",
            "category": "findings"
          }
        ]
      }
    },
    "diseases_processes_and_activities_linked_to_this_agent": {
      "other_information": {
        "original_name": "Other Information",
        "value": "No other related information on this agent was found.",
        "links": [],
        "cross_references": []
      }
    }
  },
  "cross_references": [
    {
      "type": "name_match",
      "text": "burn",
      "confidence": 1.0,
      "uuid": "63665de5-6376-4918-8dbf-4c10c4d63837",
      "name": "burn",
      "url": "https://haz-map.com/Findings/204",
      "category": "findings"
    },
    {
      "type": "name_match",
      "text": "ethylamine",
      "confidence": 1.0,
      "uuid": "41ca4da8-b990-420a-86b2-3d77404fb7f4",
      "name": "Ethylamine",
      "url": "https://haz-map.com/Agents/220",
      "category": "agents"
    },
    {
      "type": "name_match",
      "text": "diethylamine",
      "confidence": 1.0,
      "uuid": "43abaa2a-ffbe-4f59-90e0-b71989e79e3a",
      "name": "Diethylamine",
      "url": "https://haz-map.com/Agents/221",
      "category": "agents"
    },
    {
      "type": "name_match",
      "text": "ethylenediamine",
      "confidence": 1.0,
      "uuid": "64071736-683c-4d60-a83d-83a0e42c3e75",
      "name": "Ethylenediamine",
      "url": "https://haz-map.com/Agents/480",
      "category": "agents"
    },
    {
      "type": "name_match",
      "text": "nitrogen",
      "confidence": 1.0,
      "uuid": "db5e90a9-06d2-45b9-8b81-f345a89b0bc0",
      "name": "Nitrogen",
      "url": "https://haz-map.com/Agents/1072",
      "category": "agents"
    },
    {
      "type": "name_match",
      "text": "ethane",
      "confidence": 1.0,
      "uuid": "5162cc8c-dfb9-4060-81ac-38a8cec7f9dd",
      "name": "Ethane",
      "url": "https://haz-map.com/Agents/1075",
      "category": "agents"
    },
    {
      "type": "name_match",
      "text": "ethylene",
      "confidence": 1.0,
      "uuid": "958eacc0-5135-4b62-bb93-6df972bf552f",
      "name": "Ethylene",
      "url": "https://haz-map.com/Agents/1076",
      "category": "agents"
    },
    {
      "type": "name_match",
      "text": "n,n-diethylethylenediamine",
      "confidence": 1.0,
      "uuid": "c33fd91d-541f-4731-a20c-21d0657b6952",
      "name": "N,N-Diethylethylenediamine",
      "url": "https://haz-map.com/Agents/15774",
      "category": "agents"
    }
  ],
  "all_links": [
    {
      "text": "Search PubMed",
      "url": "https://www.ncbi.nlm.nih.gov/pubmed?term=N%2cN-Diethylethylenediamine%20AND%20human%5Bmh%5D%20AND%20%28Occupational%20Diseases%20%5Bmh%5D%20OR%20Occupational%20Exposure%20%5Bmh%5D%29%20%20AND%20%28tox%5Bsb%5D%29&cmd=search"
    }
  ]
}