{
  "metadata": {
    "scraped_from": "https://haz-map.com/Agents/17392",
    "entity_name": "Tetracontane",
    "category": "agents",
    "uuid": "c3541f30-07de-4d5e-86c2-7602de96d3cb",
    "scraped_at": "2025-07-23T21:46:01.146815"
  },
  "parsed_at": "2025-07-24T01:01:32.064718",
  "title": "Tetracontane",
  "sections": {
    "general": {
      "agent_name": {
        "original_name": "Agent Name",
        "value": "Tetracontane",
        "links": [],
        "cross_references": [
          {
            "type": "name_match",
            "text": "tetracontane",
            "confidence": 1.0,
            "uuid": "c3541f30-07de-4d5e-86c2-7602de96d3cb",
            "name": "Tetracontane",
            "url": "https://haz-map.com/Agents/17392",
            "category": "agents"
          }
        ]
      },
      "cas_number": {
        "original_name": "CAS Number",
        "value": "4181-95-7",
        "links": [],
        "cross_references": []
      },
      "formula": {
        "original_name": "Formula",
        "value": "C40-H82",
        "links": [],
        "cross_references": []
      },
      "major_category": {
        "original_name": "Major Category",
        "value": "Other Classes",
        "links": [],
        "cross_references": []
      },
      "synonyms": {
        "original_name": "Synonyms",
        "value": "n-Tetracontane; [Sigma-Aldrich MSDS]",
        "links": [],
        "cross_references": [
          {
            "type": "name_match",
            "text": "tetracontane",
            "confidence": 1.0,
            "uuid": "c3541f30-07de-4d5e-86c2-7602de96d3cb",
            "name": "Tetracontane",
            "url": "https://haz-map.com/Agents/17392",
            "category": "agents"
          }
        ]
      },
      "category": {
        "original_name": "Category",
        "value": "Aliphatics, Saturated (>C11)",
        "links": [],
        "cross_references": []
      },
      "description": {
        "original_name": "Description",
        "value": "White flakes; [Sigma-Aldrich MSDS]",
        "links": [],
        "cross_references": []
      },
      "comments": {
        "original_name": "Comments",
        "value": "May cause irritation; [Sigma-Aldrich MSDS]",
        "links": [],
        "cross_references": []
      },
      "biomedical_references": {
        "original_name": "Biomedical References",
        "value": "Search PubMed",
        "links": [
          {
            "text": "Search PubMed",
            "url": "https://www.ncbi.nlm.nih.gov/pubmed?term=Tetracontane%20AND%20human%5Bmh%5D%20AND%20%28Occupational%20Diseases%20%5Bmh%5D%20OR%20Occupational%20Exposure%20%5Bmh%5D%29%20%20AND%20%28tox%5Bsb%5D%29&cmd=search"
          }
        ],
        "cross_references": []
      }
    },
    "exposure_assessment": {
      "vapor_pressure": {
        "original_name": "Vapor Pressure",
        "value": "5.98E-10 mm Hg",
        "links": [],
        "cross_references": []
      }
    },
    "diseases_processes_and_activities_linked_to_this_agent": {
      "other_information": {
        "original_name": "Other Information",
        "value": "No other related information on this agent was found.",
        "links": [],
        "cross_references": []
      }
    }
  },
  "cross_references": [
    {
      "type": "name_match",
      "text": "tetracontane",
      "confidence": 1.0,
      "uuid": "c3541f30-07de-4d5e-86c2-7602de96d3cb",
      "name": "Tetracontane",
      "url": "https://haz-map.com/Agents/17392",
      "category": "agents"
    }
  ],
  "all_links": [
    {
      "text": "Search PubMed",
      "url": "https://www.ncbi.nlm.nih.gov/pubmed?term=Tetracontane%20AND%20human%5Bmh%5D%20AND%20%28Occupational%20Diseases%20%5Bmh%5D%20OR%20Occupational%20Exposure%20%5Bmh%5D%29%20%20AND%20%28tox%5Bsb%5D%29&cmd=search"
    }
  ]
}