{
  "metadata": {
    "scraped_from": "https://haz-map.com/Agents/10213",
    "entity_name": "1-Methylxanthine",
    "category": "agents",
    "uuid": "c35bfdbb-b58c-4040-bda9-a89e2997249f",
    "scraped_at": "2025-07-23T20:45:28.223421"
  },
  "parsed_at": "2025-07-24T01:08:43.698983",
  "title": "1-Methylxanthine",
  "sections": {
    "general": {
      "agent_name": {
        "original_name": "Agent Name",
        "value": "1-Methylxanthine",
        "links": [],
        "cross_references": [
          {
            "type": "name_match",
            "text": "1-methylxanthine",
            "confidence": 1.0,
            "uuid": "c35bfdbb-b58c-4040-bda9-a89e2997249f",
            "name": "1-Methylxanthine",
            "url": "https://haz-map.com/Agents/10213",
            "category": "agents"
          },
          {
            "type": "name_match",
            "text": "xanthine",
            "confidence": 1.0,
            "uuid": "6440504f-a48b-4564-b510-e9733c09428b",
            "name": "Xanthine",
            "url": "https://haz-map.com/Agents/18695",
            "category": "agents"
          }
        ]
      },
      "cas_number": {
        "original_name": "CAS Number",
        "value": "6136-37-4",
        "links": [],
        "cross_references": []
      },
      "formula": {
        "original_name": "Formula",
        "value": "C6-H6-N4-O2",
        "links": [],
        "cross_references": []
      },
      "major_category": {
        "original_name": "Major Category",
        "value": "Nitrogen Compounds",
        "links": [],
        "cross_references": [
          {
            "type": "name_match",
            "text": "nitrogen",
            "confidence": 1.0,
            "uuid": "db5e90a9-06d2-45b9-8b81-f345a89b0bc0",
            "name": "Nitrogen",
            "url": "https://haz-map.com/Agents/1072",
            "category": "agents"
          }
        ]
      },
      "synonyms": {
        "original_name": "Synonyms",
        "value": "1H-Purine-2,6-dione, 3,7-dihydro-1-methyl-; 3,7-Dihydro-1-methyl-1H-purine-2,6-dione; Xanthine, 1-methyl-; [ChemIDplus]",
        "links": [],
        "cross_references": [
          {
            "type": "name_match",
            "text": "xanthine",
            "confidence": 1.0,
            "uuid": "6440504f-a48b-4564-b510-e9733c09428b",
            "name": "Xanthine",
            "url": "https://haz-map.com/Agents/18695",
            "category": "agents"
          }
        ]
      },
      "category": {
        "original_name": "Category",
        "value": "Purines",
        "links": [],
        "cross_references": []
      },
      "description": {
        "original_name": "Description",
        "value": "Light yellow powder; [Aldrich MSDS]",
        "links": [],
        "cross_references": [
          {
            "type": "name_match",
            "text": "ht",
            "confidence": 1.0,
            "uuid": "764df367-8d53-4a11-81a2-31ccfe122a8d",
            "name": "HT",
            "url": "https://haz-map.com/Agents/2168",
            "category": "agents"
          }
        ]
      },
      "sourcesuses": {
        "original_name": "Sources/Uses",
        "value": "Caffeine metabolite found in urine; [ChemIDplus]",
        "links": [],
        "cross_references": [
          {
            "type": "name_match",
            "text": "caffeine",
            "confidence": 1.0,
            "uuid": "a7f97853-7b53-4bff-ae6b-5f7d1e70f90f",
            "name": "Caffeine",
            "url": "https://haz-map.com/Agents/4136",
            "category": "agents"
          }
        ]
      },
      "comments": {
        "original_name": "Comments",
        "value": "May cause irritation; Targets nerves, heart, and kidney; [Aldrich MSDS] See \"1,7-Dimethylxanthine.\" See \"Caffeine\" which is 1,3,7-Trimethylxanthine.",
        "links": [],
        "cross_references": [
          {
            "type": "name_match",
            "text": "caffeine",
            "confidence": 1.0,
            "uuid": "a7f97853-7b53-4bff-ae6b-5f7d1e70f90f",
            "name": "Caffeine",
            "url": "https://haz-map.com/Agents/4136",
            "category": "agents"
          },
          {
            "type": "name_match",
            "text": "1,7-dimethylxanthine",
            "confidence": 1.0,
            "uuid": "5f9a1800-8fa5-4002-99f3-6ca11052f233",
            "name": "1,7-Dimethylxanthine",
            "url": "https://haz-map.com/Agents/7932",
            "category": "agents"
          },
          {
            "type": "name_match",
            "text": "xanthine",
            "confidence": 1.0,
            "uuid": "6440504f-a48b-4564-b510-e9733c09428b",
            "name": "Xanthine",
            "url": "https://haz-map.com/Agents/18695",
            "category": "agents"
          }
        ]
      },
      "biomedical_references": {
        "original_name": "Biomedical References",
        "value": "Search PubMed",
        "links": [
          {
            "text": "Search PubMed",
            "url": "https://www.ncbi.nlm.nih.gov/pubmed?term=1-Methylxanthine%20AND%20human%5Bmh%5D%20AND%20%28Occupational%20Diseases%20%5Bmh%5D%20OR%20Occupational%20Exposure%20%5Bmh%5D%29%20%20AND%20%28tox%5Bsb%5D%29&cmd=search"
          }
        ],
        "cross_references": []
      }
    },
    "exposure_assessment": {
      "vapor_pressure": {
        "original_name": "Vapor Pressure",
        "value": "1.17E-09 mm Hg",
        "links": [],
        "cross_references": []
      }
    },
    "diseases_processes_and_activities_linked_to_this_agent": {
      "other_information": {
        "original_name": "Other Information",
        "value": "No other related information on this agent was found.",
        "links": [],
        "cross_references": []
      }
    }
  },
  "cross_references": [
    {
      "type": "name_match",
      "text": "nitrogen",
      "confidence": 1.0,
      "uuid": "db5e90a9-06d2-45b9-8b81-f345a89b0bc0",
      "name": "Nitrogen",
      "url": "https://haz-map.com/Agents/1072",
      "category": "agents"
    },
    {
      "type": "name_match",
      "text": "ht",
      "confidence": 1.0,
      "uuid": "764df367-8d53-4a11-81a2-31ccfe122a8d",
      "name": "HT",
      "url": "https://haz-map.com/Agents/2168",
      "category": "agents"
    },
    {
      "type": "name_match",
      "text": "caffeine",
      "confidence": 1.0,
      "uuid": "a7f97853-7b53-4bff-ae6b-5f7d1e70f90f",
      "name": "Caffeine",
      "url": "https://haz-map.com/Agents/4136",
      "category": "agents"
    },
    {
      "type": "name_match",
      "text": "1,7-dimethylxanthine",
      "confidence": 1.0,
      "uuid": "5f9a1800-8fa5-4002-99f3-6ca11052f233",
      "name": "1,7-Dimethylxanthine",
      "url": "https://haz-map.com/Agents/7932",
      "category": "agents"
    },
    {
      "type": "name_match",
      "text": "1-methylxanthine",
      "confidence": 1.0,
      "uuid": "c35bfdbb-b58c-4040-bda9-a89e2997249f",
      "name": "1-Methylxanthine",
      "url": "https://haz-map.com/Agents/10213",
      "category": "agents"
    },
    {
      "type": "name_match",
      "text": "xanthine",
      "confidence": 1.0,
      "uuid": "6440504f-a48b-4564-b510-e9733c09428b",
      "name": "Xanthine",
      "url": "https://haz-map.com/Agents/18695",
      "category": "agents"
    }
  ],
  "all_links": [
    {
      "text": "Search PubMed",
      "url": "https://www.ncbi.nlm.nih.gov/pubmed?term=1-Methylxanthine%20AND%20human%5Bmh%5D%20AND%20%28Occupational%20Diseases%20%5Bmh%5D%20OR%20Occupational%20Exposure%20%5Bmh%5D%29%20%20AND%20%28tox%5Bsb%5D%29&cmd=search"
    }
  ]
}