{
  "metadata": {
    "scraped_from": "https://haz-map.com/Agents/17011",
    "entity_name": "2,3-Dimethylpyrazine",
    "category": "agents",
    "uuid": "c3b08be6-4a60-4ad6-a50a-0ea3820fefa3",
    "scraped_at": "2025-07-23T21:42:32.029631"
  },
  "parsed_at": "2025-07-24T00:54:03.508749",
  "title": "2,3-Dimethylpyrazine",
  "sections": {
    "general": {
      "agent_name": {
        "original_name": "Agent Name",
        "value": "2,3-Dimethylpyrazine",
        "links": [],
        "cross_references": [
          {
            "type": "name_match",
            "text": "pyrazine",
            "confidence": 1.0,
            "uuid": "de296522-8691-4497-9f6f-9a448cfb6a83",
            "name": "Pyrazine",
            "url": "https://haz-map.com/Agents/17010",
            "category": "agents"
          },
          {
            "type": "name_match",
            "text": "2,3-dimethylpyrazine",
            "confidence": 1.0,
            "uuid": "c3b08be6-4a60-4ad6-a50a-0ea3820fefa3",
            "name": "2,3-Dimethylpyrazine",
            "url": "https://haz-map.com/Agents/17011",
            "category": "agents"
          }
        ]
      },
      "cas_number": {
        "original_name": "CAS Number",
        "value": "5910-89-4",
        "links": [],
        "cross_references": []
      },
      "formula": {
        "original_name": "Formula",
        "value": "C6-H8-N2",
        "links": [],
        "cross_references": []
      },
      "major_category": {
        "original_name": "Major Category",
        "value": "Nitrogen Compounds",
        "links": [],
        "cross_references": [
          {
            "type": "name_match",
            "text": "nitrogen",
            "confidence": 1.0,
            "uuid": "db5e90a9-06d2-45b9-8b81-f345a89b0bc0",
            "name": "Nitrogen",
            "url": "https://haz-map.com/Agents/1072",
            "category": "agents"
          }
        ]
      },
      "synonyms": {
        "original_name": "Synonyms",
        "value": "2,3-Dimethyl-1,4-diazine; 2,3-Dimethylpyrazine (natural); Pyrazine, 2,3-dimethyl-; [ChemIDplus] UN1993",
        "links": [],
        "cross_references": [
          {
            "type": "name_match",
            "text": "pyrazine",
            "confidence": 1.0,
            "uuid": "de296522-8691-4497-9f6f-9a448cfb6a83",
            "name": "Pyrazine",
            "url": "https://haz-map.com/Agents/17010",
            "category": "agents"
          },
          {
            "type": "name_match",
            "text": "2,3-dimethylpyrazine",
            "confidence": 1.0,
            "uuid": "c3b08be6-4a60-4ad6-a50a-0ea3820fefa3",
            "name": "2,3-Dimethylpyrazine",
            "url": "https://haz-map.com/Agents/17011",
            "category": "agents"
          }
        ]
      },
      "category": {
        "original_name": "Category",
        "value": "Pyrazines",
        "links": [],
        "cross_references": [
          {
            "type": "name_match",
            "text": "pyrazine",
            "confidence": 1.0,
            "uuid": "de296522-8691-4497-9f6f-9a448cfb6a83",
            "name": "Pyrazine",
            "url": "https://haz-map.com/Agents/17010",
            "category": "agents"
          }
        ]
      },
      "description": {
        "original_name": "Description",
        "value": "Colorless liquid with a pleasant odor; [Alfa Aesar MSDS]",
        "links": [],
        "cross_references": []
      },
      "sourcesuses": {
        "original_name": "Sources/Uses",
        "value": "Used as a flavoring agent; [FDA]",
        "links": [],
        "cross_references": []
      },
      "comments": {
        "original_name": "Comments",
        "value": "Safe when used as a flavoring agent in food; [JECFA] A skin and strong eye irritant; Harmful by ingestion; [Alfa Aesar MSDS]",
        "links": [],
        "cross_references": []
      },
      "biomedical_references": {
        "original_name": "Biomedical References",
        "value": "Search PubMed",
        "links": [
          {
            "text": "Search PubMed",
            "url": "https://www.ncbi.nlm.nih.gov/pubmed?term=2%2c3-Dimethylpyrazine%20AND%20human%5Bmh%5D%20AND%20%28Occupational%20Diseases%20%5Bmh%5D%20OR%20Occupational%20Exposure%20%5Bmh%5D%29%20%20AND%20%28tox%5Bsb%5D%29&cmd=search"
          }
        ],
        "cross_references": []
      }
    },
    "exposure_assessment": {
      "vapor_pressure": {
        "original_name": "Vapor Pressure",
        "value": "1.5 mm Hg",
        "links": [],
        "cross_references": []
      },
      "explanatory_notes": {
        "original_name": "Explanatory Notes",
        "value": "The Guide in the Emergency Response Guidebook is for \"Flammable liquid, n.o.s.\"",
        "links": [],
        "cross_references": []
      }
    },
    "diseases_processes_and_activities_linked_to_this_agent": {
      "other_information": {
        "original_name": "Other Information",
        "value": "No other related information on this agent was found.",
        "links": [],
        "cross_references": []
      }
    }
  },
  "cross_references": [
    {
      "type": "name_match",
      "text": "nitrogen",
      "confidence": 1.0,
      "uuid": "db5e90a9-06d2-45b9-8b81-f345a89b0bc0",
      "name": "Nitrogen",
      "url": "https://haz-map.com/Agents/1072",
      "category": "agents"
    },
    {
      "type": "name_match",
      "text": "pyrazine",
      "confidence": 1.0,
      "uuid": "de296522-8691-4497-9f6f-9a448cfb6a83",
      "name": "Pyrazine",
      "url": "https://haz-map.com/Agents/17010",
      "category": "agents"
    },
    {
      "type": "name_match",
      "text": "2,3-dimethylpyrazine",
      "confidence": 1.0,
      "uuid": "c3b08be6-4a60-4ad6-a50a-0ea3820fefa3",
      "name": "2,3-Dimethylpyrazine",
      "url": "https://haz-map.com/Agents/17011",
      "category": "agents"
    }
  ],
  "all_links": [
    {
      "text": "Search PubMed",
      "url": "https://www.ncbi.nlm.nih.gov/pubmed?term=2%2c3-Dimethylpyrazine%20AND%20human%5Bmh%5D%20AND%20%28Occupational%20Diseases%20%5Bmh%5D%20OR%20Occupational%20Exposure%20%5Bmh%5D%29%20%20AND%20%28tox%5Bsb%5D%29&cmd=search"
    }
  ]
}