{
  "metadata": {
    "scraped_from": "https://haz-map.com/Agents/7819",
    "entity_name": "Aminotrimethylene phosphonic acid",
    "category": "agents",
    "uuid": "c41267bf-528a-49d8-9a06-29b75a635671",
    "scraped_at": "2025-07-23T20:17:03.067688"
  },
  "parsed_at": "2025-07-24T01:16:47.458850",
  "title": "Aminotrimethylene phosphonic acid",
  "sections": {
    "general": {
      "agent_name": {
        "original_name": "Agent Name",
        "value": "Aminotrimethylene phosphonic acid",
        "links": [],
        "cross_references": [
          {
            "type": "name_match",
            "text": "ethylene",
            "confidence": 1.0,
            "uuid": "958eacc0-5135-4b62-bb93-6df972bf552f",
            "name": "Ethylene",
            "url": "https://haz-map.com/Agents/1076",
            "category": "agents"
          },
          {
            "type": "name_match",
            "text": "aminotrimethylene phosphonic acid",
            "confidence": 1.0,
            "uuid": "c41267bf-528a-49d8-9a06-29b75a635671",
            "name": "Aminotrimethylene phosphonic acid",
            "url": "https://haz-map.com/Agents/7819",
            "category": "agents"
          }
        ]
      },
      "alternative_name": {
        "original_name": "Alternative Name",
        "value": "Aminotris(methylene-phosphonic acid)",
        "links": [],
        "cross_references": [
          {
            "type": "name_match",
            "text": "ethylene",
            "confidence": 1.0,
            "uuid": "958eacc0-5135-4b62-bb93-6df972bf552f",
            "name": "Ethylene",
            "url": "https://haz-map.com/Agents/1076",
            "category": "agents"
          }
        ]
      },
      "cas_number": {
        "original_name": "CAS Number",
        "value": "6419-19-8",
        "links": [],
        "cross_references": []
      },
      "formula": {
        "original_name": "Formula",
        "value": "C3-H12-N-O9-P3",
        "links": [],
        "cross_references": []
      },
      "major_category": {
        "original_name": "Major Category",
        "value": "Other Classes",
        "links": [],
        "cross_references": []
      },
      "synonyms": {
        "original_name": "Synonyms",
        "value": "Aminotris(methylene-phosphonic acid); Phosphonic acid, (nitrilotris(methylene))tris-; (Nitrilotris(methylene))trisphosphonic acid; Amino, tris(methylene phosphonic acid); Aminotri(methylene phosphonic acid); Aminotri(methylenephosphonic acid); Aminotri(methylphosphonic acid); Aminotris(methanephosphonic acid); Aminotris(methylphosphonic acid); Dequest 2000; Dowell L 37; Ferrofos 509; Nitrilotrimethanephosphonic acid; Nitrilotrimethylenephosphonic acid; Nitrilotrimethylphosphonic acid; Nitrilotris(methylphosphonic acid); Tris(phosphonomethyl)amine; Nitrilotrimethylenetris(phosphonic acid); Phosphonic acid, (nitrilotris(methylene))tri-; Phosphonic acid, P,P',P''-(nitrilotris(methylene))tris-; [ChemIDplus]",
        "links": [],
        "cross_references": [
          {
            "type": "name_match",
            "text": "methane",
            "confidence": 1.0,
            "uuid": "5018bf73-24be-4353-8643-c351d5f52186",
            "name": "Methane",
            "url": "https://haz-map.com/Agents/1074",
            "category": "agents"
          },
          {
            "type": "name_match",
            "text": "ethane",
            "confidence": 1.0,
            "uuid": "5162cc8c-dfb9-4060-81ac-38a8cec7f9dd",
            "name": "Ethane",
            "url": "https://haz-map.com/Agents/1075",
            "category": "agents"
          },
          {
            "type": "name_match",
            "text": "ethylene",
            "confidence": 1.0,
            "uuid": "958eacc0-5135-4b62-bb93-6df972bf552f",
            "name": "Ethylene",
            "url": "https://haz-map.com/Agents/1076",
            "category": "agents"
          },
          {
            "type": "name_match",
            "text": "methylphosphonic acid",
            "confidence": 1.0,
            "uuid": "3fb05f69-115d-4eb5-87b4-71aa8574aabc",
            "name": "Methylphosphonic acid",
            "url": "https://haz-map.com/Agents/6137",
            "category": "agents"
          }
        ]
      },
      "category": {
        "original_name": "Category",
        "value": "Phosphate Compounds",
        "links": [],
        "cross_references": []
      },
      "description": {
        "original_name": "Description",
        "value": "Glassy solid; [CHEMINFO] Fine white crystals; [MSDSonline]",
        "links": [],
        "cross_references": []
      },
      "sourcesuses": {
        "original_name": "Sources/Uses",
        "value": "Used mainly as a deflocculant and sequestrant (chelating or complexing agent) in industrial water treatment; Also used in cleaners and in stabilizers (peroxide solutions to bleach cotton, linen, jute, rayon, and paper); [CHEMINFO]",
        "links": [],
        "cross_references": [
          {
            "type": "name_match",
            "text": "water",
            "confidence": 1.0,
            "uuid": "6f2a7557-dfd2-49bc-9b4b-a93cd8e225d4",
            "name": "Water",
            "url": "https://haz-map.com/Agents/18668",
            "category": "agents"
          }
        ]
      },
      "comments": {
        "original_name": "Comments",
        "value": "An eye irritant; [MSDSonline] No adverse effects reported in workers except irritation in >20 years of use; [AIHA]",
        "links": [],
        "cross_references": []
      },
      "biomedical_references": {
        "original_name": "Biomedical References",
        "value": "Search PubMed",
        "links": [
          {
            "text": "Search PubMed",
            "url": "https://www.ncbi.nlm.nih.gov/pubmed?term=Aminotrimethylene+phosphonic+acid%20AND%20human%5Bmh%5D%20AND%20%28Occupational%20Diseases%20%5Bmh%5D%20OR%20Occupational%20Exposure%20%5Bmh%5D%29%20%20AND%20%28tox%5Bsb%5D%29&cmd=search"
          }
        ],
        "cross_references": []
      }
    },
    "exposure_assessment": {
      "vapor_pressure": {
        "original_name": "Vapor Pressure",
        "value": "1E-07 mm Hg",
        "links": [],
        "cross_references": []
      },
      "weel": {
        "original_name": "WEEL",
        "value": "10 mg/m3",
        "links": [],
        "cross_references": []
      }
    },
    "diseases_processes_and_activities_linked_to_this_agent": {
      "processes": {
        "original_name": "Processes",
        "value": "Industrial Processes with risk of exposure: Pulp and Paper Processing Sewer and Wastewater Treatment Textiles (Fiber & Fabric Manufacturing)",
        "links": [
          {
            "text": "Pulp and Paper Processing",
            "url": "https://haz-map.com/Processes/132"
          },
          {
            "text": "Sewer and Wastewater Treatment",
            "url": "https://haz-map.com/Processes/220"
          },
          {
            "text": "Textiles (Fiber & Fabric Manufacturing)",
            "url": "https://haz-map.com/Processes/135"
          }
        ],
        "cross_references": [
          {
            "type": "url_match",
            "text": "Pulp and Paper Processing",
            "url": "https://haz-map.com/Processes/132",
            "confidence": 1.0,
            "uuid": "30075079-d057-47e2-a7d8-e89bfc59d8df",
            "name": "Pulp and Paper Processing",
            "category": "processes"
          },
          {
            "type": "url_match",
            "text": "Sewer and Wastewater Treatment",
            "url": "https://haz-map.com/Processes/220",
            "confidence": 1.0,
            "uuid": "5fcac3ca-db2e-47cc-8175-126a1f3b1e1a",
            "name": "Sewer and Wastewater Treatment",
            "category": "processes"
          },
          {
            "type": "url_match",
            "text": "Textiles (Fiber & Fabric Manufacturing)",
            "url": "https://haz-map.com/Processes/135",
            "confidence": 1.0,
            "uuid": "43ebdcdb-bb09-4402-87b6-ae8cf169dddd",
            "name": "Textiles (Fiber & Fabric Manufacturing)",
            "category": "processes"
          },
          {
            "type": "name_match",
            "text": "water",
            "confidence": 1.0,
            "uuid": "6f2a7557-dfd2-49bc-9b4b-a93cd8e225d4",
            "name": "Water",
            "url": "https://haz-map.com/Agents/18668",
            "category": "agents"
          }
        ]
      }
    }
  },
  "cross_references": [
    {
      "type": "url_match",
      "text": "Pulp and Paper Processing",
      "url": "https://haz-map.com/Processes/132",
      "confidence": 1.0,
      "uuid": "30075079-d057-47e2-a7d8-e89bfc59d8df",
      "name": "Pulp and Paper Processing",
      "category": "processes"
    },
    {
      "type": "url_match",
      "text": "Sewer and Wastewater Treatment",
      "url": "https://haz-map.com/Processes/220",
      "confidence": 1.0,
      "uuid": "5fcac3ca-db2e-47cc-8175-126a1f3b1e1a",
      "name": "Sewer and Wastewater Treatment",
      "category": "processes"
    },
    {
      "type": "url_match",
      "text": "Textiles (Fiber & Fabric Manufacturing)",
      "url": "https://haz-map.com/Processes/135",
      "confidence": 1.0,
      "uuid": "43ebdcdb-bb09-4402-87b6-ae8cf169dddd",
      "name": "Textiles (Fiber & Fabric Manufacturing)",
      "category": "processes"
    },
    {
      "type": "name_match",
      "text": "methane",
      "confidence": 1.0,
      "uuid": "5018bf73-24be-4353-8643-c351d5f52186",
      "name": "Methane",
      "url": "https://haz-map.com/Agents/1074",
      "category": "agents"
    },
    {
      "type": "name_match",
      "text": "ethane",
      "confidence": 1.0,
      "uuid": "5162cc8c-dfb9-4060-81ac-38a8cec7f9dd",
      "name": "Ethane",
      "url": "https://haz-map.com/Agents/1075",
      "category": "agents"
    },
    {
      "type": "name_match",
      "text": "ethylene",
      "confidence": 1.0,
      "uuid": "958eacc0-5135-4b62-bb93-6df972bf552f",
      "name": "Ethylene",
      "url": "https://haz-map.com/Agents/1076",
      "category": "agents"
    },
    {
      "type": "name_match",
      "text": "methylphosphonic acid",
      "confidence": 1.0,
      "uuid": "3fb05f69-115d-4eb5-87b4-71aa8574aabc",
      "name": "Methylphosphonic acid",
      "url": "https://haz-map.com/Agents/6137",
      "category": "agents"
    },
    {
      "type": "name_match",
      "text": "aminotrimethylene phosphonic acid",
      "confidence": 1.0,
      "uuid": "c41267bf-528a-49d8-9a06-29b75a635671",
      "name": "Aminotrimethylene phosphonic acid",
      "url": "https://haz-map.com/Agents/7819",
      "category": "agents"
    },
    {
      "type": "name_match",
      "text": "water",
      "confidence": 1.0,
      "uuid": "6f2a7557-dfd2-49bc-9b4b-a93cd8e225d4",
      "name": "Water",
      "url": "https://haz-map.com/Agents/18668",
      "category": "agents"
    }
  ],
  "all_links": [
    {
      "text": "Search PubMed",
      "url": "https://www.ncbi.nlm.nih.gov/pubmed?term=Aminotrimethylene+phosphonic+acid%20AND%20human%5Bmh%5D%20AND%20%28Occupational%20Diseases%20%5Bmh%5D%20OR%20Occupational%20Exposure%20%5Bmh%5D%29%20%20AND%20%28tox%5Bsb%5D%29&cmd=search"
    },
    {
      "text": "Pulp and Paper Processing",
      "url": "https://haz-map.com/Processes/132"
    },
    {
      "text": "Sewer and Wastewater Treatment",
      "url": "https://haz-map.com/Processes/220"
    },
    {
      "text": "Textiles (Fiber & Fabric Manufacturing)",
      "url": "https://haz-map.com/Processes/135"
    }
  ]
}