{
  "metadata": {
    "scraped_from": "https://haz-map.com/Agents/5200",
    "entity_name": "Ethyl cyanoacetate",
    "category": "agents",
    "uuid": "c4188bed-312b-4292-b7c2-19611bdc29ad",
    "scraped_at": "2025-07-23T19:50:01.320988"
  },
  "parsed_at": "2025-07-24T01:15:51.035592",
  "title": "Ethyl cyanoacetate",
  "sections": {
    "general": {
      "agent_name": {
        "original_name": "Agent Name",
        "value": "Ethyl cyanoacetate",
        "links": [],
        "cross_references": [
          {
            "type": "name_match",
            "text": "ethyl cyanoacetate",
            "confidence": 1.0,
            "uuid": "c4188bed-312b-4292-b7c2-19611bdc29ad",
            "name": "Ethyl cyanoacetate",
            "url": "https://haz-map.com/Agents/5200",
            "category": "agents"
          }
        ]
      },
      "cas_number": {
        "original_name": "CAS Number",
        "value": "105-56-6",
        "links": [],
        "cross_references": []
      },
      "formula": {
        "original_name": "Formula",
        "value": "C5-H7-N-O2",
        "links": [],
        "cross_references": []
      },
      "major_category": {
        "original_name": "Major Category",
        "value": "Nitrogen Compounds",
        "links": [],
        "cross_references": [
          {
            "type": "name_match",
            "text": "nitrogen",
            "confidence": 1.0,
            "uuid": "db5e90a9-06d2-45b9-8b81-f345a89b0bc0",
            "name": "Nitrogen",
            "url": "https://haz-map.com/Agents/1072",
            "category": "agents"
          }
        ]
      },
      "synonyms": {
        "original_name": "Synonyms",
        "value": "Acetic acid, cyano-, ethyl ester; Cyanacetate ethyle [German]; Cyanoacetic acid ethyl ester; Cyanoacetic ester; Estere cianoacetico [Italian]; Ethyl cyanacetate; Ethyl cyanoethanoate; Ethylester kyseliny kyanoctove [Czech]; Malonic acid ethyl ester nitrile; [ChemIDplus] UN2666",
        "links": [],
        "cross_references": [
          {
            "type": "name_match",
            "text": "acetic acid",
            "confidence": 1.0,
            "uuid": "0905c6e4-df84-4895-a92d-658819239bbd",
            "name": "Acetic acid",
            "url": "https://haz-map.com/Agents/207",
            "category": "agents"
          },
          {
            "type": "name_match",
            "text": "tali",
            "confidence": 1.0,
            "uuid": "8c3a0f99-2143-4122-b539-ec5cc49596b0",
            "name": "Tali",
            "url": "https://haz-map.com/Agents/1128",
            "category": "agents"
          },
          {
            "type": "name_match",
            "text": "cyanoacetic acid",
            "confidence": 1.0,
            "uuid": "0638e68e-85b6-4a2e-8a4a-eca5f6d5dcb0",
            "name": "Cyanoacetic acid",
            "url": "https://haz-map.com/Agents/4559",
            "category": "agents"
          },
          {
            "type": "name_match",
            "text": "malonic acid",
            "confidence": 1.0,
            "uuid": "d67025e2-aaf0-441d-ab6b-940568d47708",
            "name": "Malonic acid",
            "url": "https://haz-map.com/Agents/15355",
            "category": "agents"
          }
        ]
      },
      "category": {
        "original_name": "Category",
        "value": "Nitriles",
        "links": [],
        "cross_references": [
          {
            "type": "name_match",
            "text": "nitriles",
            "confidence": 1.0,
            "uuid": "41430895-c07a-4421-888b-3d7122a4cd55",
            "name": "NITRILES",
            "url": "https://haz-map.com/Agents/715",
            "category": "agents"
          }
        ]
      },
      "description": {
        "original_name": "Description",
        "value": "Colorless to pale straw-colored liquid; Insoluble in water; [HSDB] Colorless or pale clear liquid; Evolves toxic gas on contact with water; [MSDSonline]",
        "links": [],
        "cross_references": [
          {
            "type": "name_match",
            "text": "water",
            "confidence": 1.0,
            "uuid": "6f2a7557-dfd2-49bc-9b4b-a93cd8e225d4",
            "name": "Water",
            "url": "https://haz-map.com/Agents/18668",
            "category": "agents"
          }
        ]
      },
      "sourcesuses": {
        "original_name": "Sources/Uses",
        "value": "Used in organic synthesis of pharmaceuticals and dyes; [Hawley]",
        "links": [],
        "cross_references": [
          {
            "type": "name_match",
            "text": "pharmaceuticals",
            "confidence": 1.0,
            "uuid": "713c3c30-b67e-4a2f-a90f-b32f8a306332",
            "name": "PHARMACEUTICALS",
            "url": "https://haz-map.com/Agents/1000",
            "category": "agents"
          }
        ]
      },
      "comments": {
        "original_name": "Comments",
        "value": "A lachrymator; [CHEMINFO] An irritant; [MSDSonline]",
        "links": [],
        "cross_references": []
      },
      "biomedical_references": {
        "original_name": "Biomedical References",
        "value": "Search PubMed",
        "links": [
          {
            "text": "Search PubMed",
            "url": "https://www.ncbi.nlm.nih.gov/pubmed?term=Ethyl+cyanoacetate%20AND%20human%5Bmh%5D%20AND%20%28Occupational%20Diseases%20%5Bmh%5D%20OR%20Occupational%20Exposure%20%5Bmh%5D%29%20%20AND%20%28tox%5Bsb%5D%29&cmd=search"
          }
        ],
        "cross_references": []
      }
    },
    "exposure_assessment": {
      "vapor_pressure": {
        "original_name": "Vapor Pressure",
        "value": "0.0388 mm Hg",
        "links": [],
        "cross_references": []
      },
      "explanatory_notes": {
        "original_name": "Explanatory Notes",
        "value": "VP from ChemIDplus;",
        "links": [],
        "cross_references": []
      },
      "nfpa": {
        "original_name": "NFPA",
        "value": "must be preheated",
        "links": [],
        "cross_references": []
      }
    },
    "adverse_effects": {
      "lachrymator": {
        "original_name": "Lachrymator",
        "value": "Yes",
        "links": [],
        "cross_references": []
      },
      "other_poison": {
        "original_name": "Other Poison",
        "value": "Chemical Asphyxiant",
        "links": [],
        "cross_references": [
          {
            "type": "name_match",
            "text": "mica",
            "confidence": 1.0,
            "uuid": "433f26f1-c399-4596-b179-ce3843cfd465",
            "name": "Mica",
            "url": "https://haz-map.com/Agents/621",
            "category": "agents"
          }
        ]
      }
    },
    "diseases_processes_and_activities_linked_to_this_agent": {
      "other_information": {
        "original_name": "Other Information",
        "value": "No other related information on this agent was found.",
        "links": [],
        "cross_references": []
      }
    }
  },
  "cross_references": [
    {
      "type": "name_match",
      "text": "acetic acid",
      "confidence": 1.0,
      "uuid": "0905c6e4-df84-4895-a92d-658819239bbd",
      "name": "Acetic acid",
      "url": "https://haz-map.com/Agents/207",
      "category": "agents"
    },
    {
      "type": "name_match",
      "text": "mica",
      "confidence": 1.0,
      "uuid": "433f26f1-c399-4596-b179-ce3843cfd465",
      "name": "Mica",
      "url": "https://haz-map.com/Agents/621",
      "category": "agents"
    },
    {
      "type": "name_match",
      "text": "nitriles",
      "confidence": 1.0,
      "uuid": "41430895-c07a-4421-888b-3d7122a4cd55",
      "name": "NITRILES",
      "url": "https://haz-map.com/Agents/715",
      "category": "agents"
    },
    {
      "type": "name_match",
      "text": "pharmaceuticals",
      "confidence": 1.0,
      "uuid": "713c3c30-b67e-4a2f-a90f-b32f8a306332",
      "name": "PHARMACEUTICALS",
      "url": "https://haz-map.com/Agents/1000",
      "category": "agents"
    },
    {
      "type": "name_match",
      "text": "nitrogen",
      "confidence": 1.0,
      "uuid": "db5e90a9-06d2-45b9-8b81-f345a89b0bc0",
      "name": "Nitrogen",
      "url": "https://haz-map.com/Agents/1072",
      "category": "agents"
    },
    {
      "type": "name_match",
      "text": "tali",
      "confidence": 1.0,
      "uuid": "8c3a0f99-2143-4122-b539-ec5cc49596b0",
      "name": "Tali",
      "url": "https://haz-map.com/Agents/1128",
      "category": "agents"
    },
    {
      "type": "name_match",
      "text": "cyanoacetic acid",
      "confidence": 1.0,
      "uuid": "0638e68e-85b6-4a2e-8a4a-eca5f6d5dcb0",
      "name": "Cyanoacetic acid",
      "url": "https://haz-map.com/Agents/4559",
      "category": "agents"
    },
    {
      "type": "name_match",
      "text": "ethyl cyanoacetate",
      "confidence": 1.0,
      "uuid": "c4188bed-312b-4292-b7c2-19611bdc29ad",
      "name": "Ethyl cyanoacetate",
      "url": "https://haz-map.com/Agents/5200",
      "category": "agents"
    },
    {
      "type": "name_match",
      "text": "malonic acid",
      "confidence": 1.0,
      "uuid": "d67025e2-aaf0-441d-ab6b-940568d47708",
      "name": "Malonic acid",
      "url": "https://haz-map.com/Agents/15355",
      "category": "agents"
    },
    {
      "type": "name_match",
      "text": "water",
      "confidence": 1.0,
      "uuid": "6f2a7557-dfd2-49bc-9b4b-a93cd8e225d4",
      "name": "Water",
      "url": "https://haz-map.com/Agents/18668",
      "category": "agents"
    }
  ],
  "all_links": [
    {
      "text": "Search PubMed",
      "url": "https://www.ncbi.nlm.nih.gov/pubmed?term=Ethyl+cyanoacetate%20AND%20human%5Bmh%5D%20AND%20%28Occupational%20Diseases%20%5Bmh%5D%20OR%20Occupational%20Exposure%20%5Bmh%5D%29%20%20AND%20%28tox%5Bsb%5D%29&cmd=search"
    }
  ]
}