{
  "metadata": {
    "scraped_from": "https://haz-map.com/Agents/20874",
    "entity_name": "Benzylideneaniline",
    "category": "agents",
    "uuid": "c444d24a-9457-4d25-be3d-a5f2dda8c8a1",
    "scraped_at": "2025-07-23T22:33:28.312788"
  },
  "parsed_at": "2025-07-24T01:04:09.633007",
  "title": "Benzylideneaniline",
  "sections": {
    "general": {
      "agent_name": {
        "original_name": "Agent Name",
        "value": "Benzylideneaniline",
        "links": [],
        "cross_references": [
          {
            "type": "name_match",
            "text": "aniline",
            "confidence": 1.0,
            "uuid": "e4932692-8d9c-4a98-8c5c-81e55b12aedf",
            "name": "Aniline",
            "url": "https://haz-map.com/Agents/296",
            "category": "agents"
          },
          {
            "type": "name_match",
            "text": "benzylideneaniline",
            "confidence": 1.0,
            "uuid": "c444d24a-9457-4d25-be3d-a5f2dda8c8a1",
            "name": "Benzylideneaniline",
            "url": "https://haz-map.com/Agents/20874",
            "category": "agents"
          }
        ]
      },
      "cas_number": {
        "original_name": "CAS Number",
        "value": "538-51-2",
        "links": [],
        "cross_references": []
      },
      "formula": {
        "original_name": "Formula",
        "value": "C13-H11-N",
        "links": [],
        "cross_references": []
      },
      "major_category": {
        "original_name": "Major Category",
        "value": "Nitrogen Compounds",
        "links": [],
        "cross_references": [
          {
            "type": "name_match",
            "text": "nitrogen",
            "confidence": 1.0,
            "uuid": "db5e90a9-06d2-45b9-8b81-f345a89b0bc0",
            "name": "Nitrogen",
            "url": "https://haz-map.com/Agents/1072",
            "category": "agents"
          }
        ]
      },
      "synonyms": {
        "original_name": "Synonyms",
        "value": "Benzalaniline; Benzaldehyde anil; N-Benzalaniline; N-Benzylidenaniline; N-Benzylideneaniline; Aniline, N-benzylidene- (8CI); Benzenamine, N-(phenylmethylene)-; [ChemIDplus] N-(Phenylmethylene)benzenamine; Benzaldehyde N-phenylimine; N-Phenylbenzaldimine; [Merck Index]",
        "links": [],
        "cross_references": [
          {
            "type": "name_match",
            "text": "aniline",
            "confidence": 1.0,
            "uuid": "e4932692-8d9c-4a98-8c5c-81e55b12aedf",
            "name": "Aniline",
            "url": "https://haz-map.com/Agents/296",
            "category": "agents"
          },
          {
            "type": "name_match",
            "text": "ethylene",
            "confidence": 1.0,
            "uuid": "958eacc0-5135-4b62-bb93-6df972bf552f",
            "name": "Ethylene",
            "url": "https://haz-map.com/Agents/1076",
            "category": "agents"
          },
          {
            "type": "name_match",
            "text": "benzaldehyde",
            "confidence": 1.0,
            "uuid": "8546358a-fcfc-48f8-83d6-bf7adb438729",
            "name": "Benzaldehyde",
            "url": "https://haz-map.com/Agents/1884",
            "category": "agents"
          },
          {
            "type": "name_match",
            "text": "benzylideneaniline",
            "confidence": 1.0,
            "uuid": "c444d24a-9457-4d25-be3d-a5f2dda8c8a1",
            "name": "Benzylideneaniline",
            "url": "https://haz-map.com/Agents/20874",
            "category": "agents"
          }
        ]
      },
      "category": {
        "original_name": "Category",
        "value": "Amines, Polyaromatic",
        "links": [],
        "cross_references": []
      },
      "description": {
        "original_name": "Description",
        "value": "Solid; [Merck Index] Yellow crystalline powder; [Alfa Aesar MSDS]",
        "links": [],
        "cross_references": [
          {
            "type": "fuzzy_match",
            "text": "crystalline",
            "matched_name": "Silica, crystalline",
            "confidence": 0.7061403508771931,
            "uuid": "f920e8a2-46df-41b7-af8d-0368a777251e",
            "category": "agents",
            "url": "https://haz-map.com/Agents/427"
          }
        ]
      },
      "sourcesuses": {
        "original_name": "Sources/Uses",
        "value": "Used as a reagent in organic synthesis; [Merck Index]",
        "links": [],
        "cross_references": []
      },
      "comments": {
        "original_name": "Comments",
        "value": "An irritant; [Merck Index] A skin and strong eye irritant; [Alfa Aesar MSDS] See \"1,2-Diphenylethylene.\" See \"N-Ethyl-N-benzylaniline\" and \"Diphenylamine.\"",
        "links": [],
        "cross_references": [
          {
            "type": "name_match",
            "text": "aniline",
            "confidence": 1.0,
            "uuid": "e4932692-8d9c-4a98-8c5c-81e55b12aedf",
            "name": "Aniline",
            "url": "https://haz-map.com/Agents/296",
            "category": "agents"
          },
          {
            "type": "name_match",
            "text": "diphenylamine",
            "confidence": 1.0,
            "uuid": "3f92d416-f15a-456f-86a5-60c536b4229b",
            "name": "Diphenylamine",
            "url": "https://haz-map.com/Agents/471",
            "category": "agents"
          },
          {
            "type": "name_match",
            "text": "ethylene",
            "confidence": 1.0,
            "uuid": "958eacc0-5135-4b62-bb93-6df972bf552f",
            "name": "Ethylene",
            "url": "https://haz-map.com/Agents/1076",
            "category": "agents"
          },
          {
            "type": "name_match",
            "text": "n-ethyl-n-benzylaniline",
            "confidence": 1.0,
            "uuid": "4cf22fd8-413f-4192-baf5-2fd3627433fc",
            "name": "N-Ethyl-N-benzylaniline",
            "url": "https://haz-map.com/Agents/6232",
            "category": "agents"
          },
          {
            "type": "name_match",
            "text": "1,2-diphenylethylene",
            "confidence": 1.0,
            "uuid": "510e21b0-434c-41c0-b28f-1efee35235bd",
            "name": "1,2-Diphenylethylene",
            "url": "https://haz-map.com/Agents/17732",
            "category": "agents"
          },
          {
            "type": "name_match",
            "text": "benzylaniline",
            "confidence": 1.0,
            "uuid": "e98698db-79df-420b-8109-46c563788c19",
            "name": "Benzylaniline",
            "url": "https://haz-map.com/Agents/21365",
            "category": "agents"
          },
          {
            "type": "fuzzy_match",
            "text": "2-diphenylethylene",
            "matched_name": "cis-1,2-Diphenylethylene",
            "confidence": 0.7416666666666667,
            "uuid": "979c6df7-dcaf-4113-a48e-b5780c67d062",
            "category": "agents",
            "url": "https://haz-map.com/Agents/4431"
          }
        ]
      },
      "biomedical_references": {
        "original_name": "Biomedical References",
        "value": "Search PubMed",
        "links": [
          {
            "text": "Search PubMed",
            "url": "https://www.ncbi.nlm.nih.gov/pubmed?term=Benzylideneaniline%20AND%20human%5Bmh%5D%20AND%20%28Occupational%20Diseases%20%5Bmh%5D%20OR%20Occupational%20Exposure%20%5Bmh%5D%29%20%20AND%20%28tox%5Bsb%5D%29&cmd=search"
          }
        ],
        "cross_references": []
      }
    },
    "exposure_assessment": {
      "vapor_pressure": {
        "original_name": "Vapor Pressure",
        "value": "0.00299 mm Hg",
        "links": [],
        "cross_references": []
      }
    },
    "diseases_processes_and_activities_linked_to_this_agent": {
      "other_information": {
        "original_name": "Other Information",
        "value": "No other related information on this agent was found.",
        "links": [],
        "cross_references": []
      }
    }
  },
  "cross_references": [
    {
      "type": "name_match",
      "text": "aniline",
      "confidence": 1.0,
      "uuid": "e4932692-8d9c-4a98-8c5c-81e55b12aedf",
      "name": "Aniline",
      "url": "https://haz-map.com/Agents/296",
      "category": "agents"
    },
    {
      "type": "name_match",
      "text": "diphenylamine",
      "confidence": 1.0,
      "uuid": "3f92d416-f15a-456f-86a5-60c536b4229b",
      "name": "Diphenylamine",
      "url": "https://haz-map.com/Agents/471",
      "category": "agents"
    },
    {
      "type": "name_match",
      "text": "nitrogen",
      "confidence": 1.0,
      "uuid": "db5e90a9-06d2-45b9-8b81-f345a89b0bc0",
      "name": "Nitrogen",
      "url": "https://haz-map.com/Agents/1072",
      "category": "agents"
    },
    {
      "type": "name_match",
      "text": "ethylene",
      "confidence": 1.0,
      "uuid": "958eacc0-5135-4b62-bb93-6df972bf552f",
      "name": "Ethylene",
      "url": "https://haz-map.com/Agents/1076",
      "category": "agents"
    },
    {
      "type": "name_match",
      "text": "benzaldehyde",
      "confidence": 1.0,
      "uuid": "8546358a-fcfc-48f8-83d6-bf7adb438729",
      "name": "Benzaldehyde",
      "url": "https://haz-map.com/Agents/1884",
      "category": "agents"
    },
    {
      "type": "name_match",
      "text": "n-ethyl-n-benzylaniline",
      "confidence": 1.0,
      "uuid": "4cf22fd8-413f-4192-baf5-2fd3627433fc",
      "name": "N-Ethyl-N-benzylaniline",
      "url": "https://haz-map.com/Agents/6232",
      "category": "agents"
    },
    {
      "type": "name_match",
      "text": "1,2-diphenylethylene",
      "confidence": 1.0,
      "uuid": "510e21b0-434c-41c0-b28f-1efee35235bd",
      "name": "1,2-Diphenylethylene",
      "url": "https://haz-map.com/Agents/17732",
      "category": "agents"
    },
    {
      "type": "name_match",
      "text": "benzylideneaniline",
      "confidence": 1.0,
      "uuid": "c444d24a-9457-4d25-be3d-a5f2dda8c8a1",
      "name": "Benzylideneaniline",
      "url": "https://haz-map.com/Agents/20874",
      "category": "agents"
    },
    {
      "type": "name_match",
      "text": "benzylaniline",
      "confidence": 1.0,
      "uuid": "e98698db-79df-420b-8109-46c563788c19",
      "name": "Benzylaniline",
      "url": "https://haz-map.com/Agents/21365",
      "category": "agents"
    },
    {
      "type": "fuzzy_match",
      "text": "2-diphenylethylene",
      "matched_name": "cis-1,2-Diphenylethylene",
      "confidence": 0.7416666666666667,
      "uuid": "979c6df7-dcaf-4113-a48e-b5780c67d062",
      "category": "agents",
      "url": "https://haz-map.com/Agents/4431"
    },
    {
      "type": "fuzzy_match",
      "text": "crystalline",
      "matched_name": "Silica, crystalline",
      "confidence": 0.7061403508771931,
      "uuid": "f920e8a2-46df-41b7-af8d-0368a777251e",
      "category": "agents",
      "url": "https://haz-map.com/Agents/427"
    }
  ],
  "all_links": [
    {
      "text": "Search PubMed",
      "url": "https://www.ncbi.nlm.nih.gov/pubmed?term=Benzylideneaniline%20AND%20human%5Bmh%5D%20AND%20%28Occupational%20Diseases%20%5Bmh%5D%20OR%20Occupational%20Exposure%20%5Bmh%5D%29%20%20AND%20%28tox%5Bsb%5D%29&cmd=search"
    }
  ]
}