{
  "metadata": {
    "scraped_from": "https://haz-map.com/Agents/10466",
    "entity_name": "1,4-Dichlorobutane",
    "category": "agents",
    "uuid": "c4a0d331-48c7-4e17-b952-59f57e409fcb",
    "scraped_at": "2025-07-23T20:47:51.406509"
  },
  "parsed_at": "2025-07-24T01:07:02.388106",
  "title": "1,4-Dichlorobutane",
  "sections": {
    "general": {
      "agent_name": {
        "original_name": "Agent Name",
        "value": "1,4-Dichlorobutane",
        "links": [],
        "cross_references": [
          {
            "type": "name_match",
            "text": "1,4-dichlorobutane",
            "confidence": 1.0,
            "uuid": "c4a0d331-48c7-4e17-b952-59f57e409fcb",
            "name": "1,4-Dichlorobutane",
            "url": "https://haz-map.com/Agents/10466",
            "category": "agents"
          }
        ]
      },
      "cas_number": {
        "original_name": "CAS Number",
        "value": "110-56-5",
        "links": [],
        "cross_references": []
      },
      "formula": {
        "original_name": "Formula",
        "value": "C4-H8-Cl2",
        "links": [],
        "cross_references": []
      },
      "major_category": {
        "original_name": "Major Category",
        "value": "Other Classes",
        "links": [],
        "cross_references": []
      },
      "synonyms": {
        "original_name": "Synonyms",
        "value": "Butane, 1,4-dichloro-; [ChemIDplus] sym-Dichlorobutane; Tetramethylene dichloride; [CAMEO] UN1993",
        "links": [],
        "cross_references": [
          {
            "type": "name_match",
            "text": "ethylene dichloride",
            "confidence": 1.0,
            "uuid": "eeccb42e-da4e-4454-abf2-27041a104f91",
            "name": "Ethylene dichloride",
            "url": "https://haz-map.com/Agents/35",
            "category": "agents"
          },
          {
            "type": "name_match",
            "text": "ethylene",
            "confidence": 1.0,
            "uuid": "958eacc0-5135-4b62-bb93-6df972bf552f",
            "name": "Ethylene",
            "url": "https://haz-map.com/Agents/1076",
            "category": "agents"
          }
        ]
      },
      "category": {
        "original_name": "Category",
        "value": "Halogenated Aliphatics, Saturated",
        "links": [],
        "cross_references": []
      },
      "description": {
        "original_name": "Description",
        "value": "Colorless liquid with a mild pleasant odor; [CAMEO]",
        "links": [],
        "cross_references": []
      },
      "sourcesuses": {
        "original_name": "Sources/Uses",
        "value": "Used in organic synthesis (including adiponitrile); [NTP]",
        "links": [],
        "cross_references": [
          {
            "type": "name_match",
            "text": "adiponitrile",
            "confidence": 1.0,
            "uuid": "56d0e455-cb70-468e-a9ab-e1448c6618c4",
            "name": "Adiponitrile",
            "url": "https://haz-map.com/Agents/160",
            "category": "agents"
          }
        ]
      },
      "comments": {
        "original_name": "Comments",
        "value": "An irritant; [NTP] May cause eye irritation; [Alfa Aesar MSDS] See \"1,2-Dichlorobutane\" and \"1,3-Dichloropropane.\"",
        "links": [],
        "cross_references": [
          {
            "type": "name_match",
            "text": "propane",
            "confidence": 1.0,
            "uuid": "563a611b-46ea-4bdc-b77b-17d8f7646283",
            "name": "Propane",
            "url": "https://haz-map.com/Agents/607",
            "category": "agents"
          },
          {
            "type": "name_match",
            "text": "1,2-dichlorobutane",
            "confidence": 1.0,
            "uuid": "f07b4649-a95b-417c-98a2-f10adf1f0821",
            "name": "1,2-Dichlorobutane",
            "url": "https://haz-map.com/Agents/2751",
            "category": "agents"
          },
          {
            "type": "name_match",
            "text": "1,3-dichloropropane",
            "confidence": 1.0,
            "uuid": "485a2389-e7df-4985-a35c-6b0108c925fe",
            "name": "1,3-Dichloropropane",
            "url": "https://haz-map.com/Agents/2794",
            "category": "agents"
          }
        ]
      },
      "biomedical_references": {
        "original_name": "Biomedical References",
        "value": "Search PubMed",
        "links": [
          {
            "text": "Search PubMed",
            "url": "https://www.ncbi.nlm.nih.gov/pubmed?term=1%2c4-Dichlorobutane%20AND%20human%5Bmh%5D%20AND%20%28Occupational%20Diseases%20%5Bmh%5D%20OR%20Occupational%20Exposure%20%5Bmh%5D%29%20%20AND%20%28tox%5Bsb%5D%29&cmd=search"
          }
        ],
        "cross_references": []
      }
    },
    "exposure_assessment": {
      "vapor_pressure": {
        "original_name": "Vapor Pressure",
        "value": "4.13 mm Hg",
        "links": [],
        "cross_references": []
      },
      "explanatory_notes": {
        "original_name": "Explanatory Notes",
        "value": "The Guide in the Emergency Response Guidebook is for \"Flammable liquid, n.o.s.\" VP from ChemIDplus;",
        "links": [],
        "cross_references": []
      },
      "nfpa": {
        "original_name": "NFPA",
        "value": "high ambient temp required",
        "links": [],
        "cross_references": []
      }
    },
    "adverse_effects": {
      "neurotoxin": {
        "original_name": "Neurotoxin",
        "value": "Acute solvent syndrome",
        "links": [],
        "cross_references": []
      },
      "hepatotoxin": {
        "original_name": "Hepatotoxin",
        "value": "Hepatoxic (a) from occupational exposure (secondary effect) or (b) in animal studies or in humans after ingestion",
        "links": [],
        "cross_references": []
      }
    },
    "diseases_processes_and_activities_linked_to_this_agent": {
      "diseases": {
        "original_name": "Diseases",
        "value": "Occupational diseases associated with exposure to this agent: Solvents, acute toxic effect",
        "links": [
          {
            "text": "Solvents, acute toxic effect",
            "url": "https://haz-map.com/Diseases/326"
          }
        ],
        "cross_references": [
          {
            "type": "url_match",
            "text": "Solvents, acute toxic effect",
            "url": "https://haz-map.com/Diseases/326",
            "confidence": 1.0,
            "uuid": "581e90e3-9d0c-45f0-aa6c-3468c28da129",
            "name": "Solvents, acute toxic effect",
            "category": "diseases"
          }
        ]
      }
    }
  },
  "cross_references": [
    {
      "type": "url_match",
      "text": "Solvents, acute toxic effect",
      "url": "https://haz-map.com/Diseases/326",
      "confidence": 1.0,
      "uuid": "581e90e3-9d0c-45f0-aa6c-3468c28da129",
      "name": "Solvents, acute toxic effect",
      "category": "diseases"
    },
    {
      "type": "name_match",
      "text": "ethylene dichloride",
      "confidence": 1.0,
      "uuid": "eeccb42e-da4e-4454-abf2-27041a104f91",
      "name": "Ethylene dichloride",
      "url": "https://haz-map.com/Agents/35",
      "category": "agents"
    },
    {
      "type": "name_match",
      "text": "adiponitrile",
      "confidence": 1.0,
      "uuid": "56d0e455-cb70-468e-a9ab-e1448c6618c4",
      "name": "Adiponitrile",
      "url": "https://haz-map.com/Agents/160",
      "category": "agents"
    },
    {
      "type": "name_match",
      "text": "propane",
      "confidence": 1.0,
      "uuid": "563a611b-46ea-4bdc-b77b-17d8f7646283",
      "name": "Propane",
      "url": "https://haz-map.com/Agents/607",
      "category": "agents"
    },
    {
      "type": "name_match",
      "text": "ethylene",
      "confidence": 1.0,
      "uuid": "958eacc0-5135-4b62-bb93-6df972bf552f",
      "name": "Ethylene",
      "url": "https://haz-map.com/Agents/1076",
      "category": "agents"
    },
    {
      "type": "name_match",
      "text": "1,2-dichlorobutane",
      "confidence": 1.0,
      "uuid": "f07b4649-a95b-417c-98a2-f10adf1f0821",
      "name": "1,2-Dichlorobutane",
      "url": "https://haz-map.com/Agents/2751",
      "category": "agents"
    },
    {
      "type": "name_match",
      "text": "1,3-dichloropropane",
      "confidence": 1.0,
      "uuid": "485a2389-e7df-4985-a35c-6b0108c925fe",
      "name": "1,3-Dichloropropane",
      "url": "https://haz-map.com/Agents/2794",
      "category": "agents"
    },
    {
      "type": "name_match",
      "text": "1,4-dichlorobutane",
      "confidence": 1.0,
      "uuid": "c4a0d331-48c7-4e17-b952-59f57e409fcb",
      "name": "1,4-Dichlorobutane",
      "url": "https://haz-map.com/Agents/10466",
      "category": "agents"
    }
  ],
  "all_links": [
    {
      "text": "Search PubMed",
      "url": "https://www.ncbi.nlm.nih.gov/pubmed?term=1%2c4-Dichlorobutane%20AND%20human%5Bmh%5D%20AND%20%28Occupational%20Diseases%20%5Bmh%5D%20OR%20Occupational%20Exposure%20%5Bmh%5D%29%20%20AND%20%28tox%5Bsb%5D%29&cmd=search"
    },
    {
      "text": "Solvents, acute toxic effect",
      "url": "https://haz-map.com/Diseases/326"
    }
  ]
}