{
  "metadata": {
    "scraped_from": "https://haz-map.com/Agents/15624",
    "entity_name": "Methylsuccinic acid",
    "category": "agents",
    "uuid": "c4e027ce-fd9d-454b-be96-8ad47832b153",
    "scraped_at": "2025-07-23T21:31:10.152837"
  },
  "parsed_at": "2025-07-24T01:03:32.923511",
  "title": "Methylsuccinic acid",
  "sections": {
    "general": {
      "agent_name": {
        "original_name": "Agent Name",
        "value": "Methylsuccinic acid",
        "links": [],
        "cross_references": [
          {
            "type": "name_match",
            "text": "succinic acid",
            "confidence": 1.0,
            "uuid": "e01347b0-231d-4c97-8f6d-724da7d58bfb",
            "name": "Succinic acid",
            "url": "https://haz-map.com/Agents/7229",
            "category": "agents"
          },
          {
            "type": "name_match",
            "text": "methylsuccinic acid",
            "confidence": 1.0,
            "uuid": "c4e027ce-fd9d-454b-be96-8ad47832b153",
            "name": "Methylsuccinic acid",
            "url": "https://haz-map.com/Agents/15624",
            "category": "agents"
          }
        ]
      },
      "cas_number": {
        "original_name": "CAS Number",
        "value": "498-21-5",
        "links": [],
        "cross_references": []
      },
      "formula": {
        "original_name": "Formula",
        "value": "C5-H8-O4",
        "links": [],
        "cross_references": []
      },
      "major_category": {
        "original_name": "Major Category",
        "value": "Other Classes",
        "links": [],
        "cross_references": []
      },
      "synonyms": {
        "original_name": "Synonyms",
        "value": "1,2-Propanedicarboxylic acid; 2-Methylsuccinic acid; Butanedioic acid, methyl-; Pyrotartaric acid; Butanedioic acid, 2-methyl-; Succinic acid, methyl- (8CI); [ChemIDplus] 2-Methylbutanedioic acid; Methyl succinic acid; (+-)-Methylsuccinic acid; R,S-2-Methylbutanedioic acid; [CAMEO]",
        "links": [],
        "cross_references": [
          {
            "type": "name_match",
            "text": "propane",
            "confidence": 1.0,
            "uuid": "563a611b-46ea-4bdc-b77b-17d8f7646283",
            "name": "Propane",
            "url": "https://haz-map.com/Agents/607",
            "category": "agents"
          },
          {
            "type": "name_match",
            "text": "succinic acid",
            "confidence": 1.0,
            "uuid": "e01347b0-231d-4c97-8f6d-724da7d58bfb",
            "name": "Succinic acid",
            "url": "https://haz-map.com/Agents/7229",
            "category": "agents"
          },
          {
            "type": "name_match",
            "text": "methylsuccinic acid",
            "confidence": 1.0,
            "uuid": "c4e027ce-fd9d-454b-be96-8ad47832b153",
            "name": "Methylsuccinic acid",
            "url": "https://haz-map.com/Agents/15624",
            "category": "agents"
          }
        ]
      },
      "category": {
        "original_name": "Category",
        "value": "Organic Acids",
        "links": [],
        "cross_references": []
      },
      "description": {
        "original_name": "Description",
        "value": "White, yellowish, or beige solid; [CAMEO] Beige crystalline solid; [Sigma-Aldrich MSDS]",
        "links": [],
        "cross_references": [
          {
            "type": "fuzzy_match",
            "text": "crystalline",
            "matched_name": "Silica, crystalline",
            "confidence": 0.7061403508771931,
            "uuid": "f920e8a2-46df-41b7-af8d-0368a777251e",
            "category": "agents",
            "url": "https://haz-map.com/Agents/427"
          }
        ]
      },
      "sourcesuses": {
        "original_name": "Sources/Uses",
        "value": "Used in organic synthesis; [NTP]",
        "links": [],
        "cross_references": []
      },
      "comments": {
        "original_name": "Comments",
        "value": "A skin and strong eye irritant; [Sigma-Aldrich MSDS] See \"Succinic acid.\"",
        "links": [],
        "cross_references": [
          {
            "type": "name_match",
            "text": "succinic acid",
            "confidence": 1.0,
            "uuid": "e01347b0-231d-4c97-8f6d-724da7d58bfb",
            "name": "Succinic acid",
            "url": "https://haz-map.com/Agents/7229",
            "category": "agents"
          }
        ]
      },
      "biomedical_references": {
        "original_name": "Biomedical References",
        "value": "Search PubMed",
        "links": [
          {
            "text": "Search PubMed",
            "url": "https://www.ncbi.nlm.nih.gov/pubmed?term=Methylsuccinic+acid%20AND%20human%5Bmh%5D%20AND%20%28Occupational%20Diseases%20%5Bmh%5D%20OR%20Occupational%20Exposure%20%5Bmh%5D%29%20%20AND%20%28tox%5Bsb%5D%29&cmd=search"
          }
        ],
        "cross_references": []
      }
    },
    "exposure_assessment": {
      "vapor_pressure": {
        "original_name": "Vapor Pressure",
        "value": "0.00105 mm Hg",
        "links": [],
        "cross_references": []
      }
    },
    "diseases_processes_and_activities_linked_to_this_agent": {
      "other_information": {
        "original_name": "Other Information",
        "value": "No other related information on this agent was found.",
        "links": [],
        "cross_references": []
      }
    }
  },
  "cross_references": [
    {
      "type": "name_match",
      "text": "propane",
      "confidence": 1.0,
      "uuid": "563a611b-46ea-4bdc-b77b-17d8f7646283",
      "name": "Propane",
      "url": "https://haz-map.com/Agents/607",
      "category": "agents"
    },
    {
      "type": "name_match",
      "text": "succinic acid",
      "confidence": 1.0,
      "uuid": "e01347b0-231d-4c97-8f6d-724da7d58bfb",
      "name": "Succinic acid",
      "url": "https://haz-map.com/Agents/7229",
      "category": "agents"
    },
    {
      "type": "name_match",
      "text": "methylsuccinic acid",
      "confidence": 1.0,
      "uuid": "c4e027ce-fd9d-454b-be96-8ad47832b153",
      "name": "Methylsuccinic acid",
      "url": "https://haz-map.com/Agents/15624",
      "category": "agents"
    },
    {
      "type": "fuzzy_match",
      "text": "crystalline",
      "matched_name": "Silica, crystalline",
      "confidence": 0.7061403508771931,
      "uuid": "f920e8a2-46df-41b7-af8d-0368a777251e",
      "category": "agents",
      "url": "https://haz-map.com/Agents/427"
    }
  ],
  "all_links": [
    {
      "text": "Search PubMed",
      "url": "https://www.ncbi.nlm.nih.gov/pubmed?term=Methylsuccinic+acid%20AND%20human%5Bmh%5D%20AND%20%28Occupational%20Diseases%20%5Bmh%5D%20OR%20Occupational%20Exposure%20%5Bmh%5D%29%20%20AND%20%28tox%5Bsb%5D%29&cmd=search"
    }
  ]
}