{
  "metadata": {
    "scraped_from": "https://haz-map.com/Agents/13631",
    "entity_name": "Deoxycytidine",
    "category": "agents",
    "uuid": "c50e87bb-22c3-49e8-be2e-47c840dae5c0",
    "scraped_at": "2025-07-23T21:16:27.600316"
  },
  "parsed_at": "2025-07-24T01:09:46.833438",
  "title": "Deoxycytidine",
  "sections": {
    "general": {
      "agent_name": {
        "original_name": "Agent Name",
        "value": "Deoxycytidine",
        "links": [],
        "cross_references": [
          {
            "type": "name_match",
            "text": "cytidine",
            "confidence": 1.0,
            "uuid": "7fc3c1df-8d24-44ef-a0fb-4e3d2b10f838",
            "name": "Cytidine",
            "url": "https://haz-map.com/Agents/13564",
            "category": "agents"
          },
          {
            "type": "name_match",
            "text": "deoxycytidine",
            "confidence": 1.0,
            "uuid": "c50e87bb-22c3-49e8-be2e-47c840dae5c0",
            "name": "Deoxycytidine",
            "url": "https://haz-map.com/Agents/13631",
            "category": "agents"
          }
        ]
      },
      "cas_number": {
        "original_name": "CAS Number",
        "value": "951-77-9",
        "links": [],
        "cross_references": []
      },
      "formula": {
        "original_name": "Formula",
        "value": "C9-H13-N3-O4",
        "links": [],
        "cross_references": []
      },
      "major_category": {
        "original_name": "Major Category",
        "value": "Biological Agents",
        "links": [],
        "cross_references": []
      },
      "synonyms": {
        "original_name": "Synonyms",
        "value": "1beta-2'-Deoxyribofuranosylcytosine, d-; 2'-Deoxycytidine; Cytosine deoxyriboside; Cytosine, deoxyribonucleoside; Deoxyribose cytidine; Desoxycytidin [German]; dCYD; Cytidine, 2'-deoxy-; [ChemIDplus]",
        "links": [],
        "cross_references": [
          {
            "type": "name_match",
            "text": "furan",
            "confidence": 1.0,
            "uuid": "96da3d2e-f46b-4100-9000-704d1a86985b",
            "name": "Furan",
            "url": "https://haz-map.com/Agents/1477",
            "category": "agents"
          },
          {
            "type": "name_match",
            "text": "cytidine",
            "confidence": 1.0,
            "uuid": "7fc3c1df-8d24-44ef-a0fb-4e3d2b10f838",
            "name": "Cytidine",
            "url": "https://haz-map.com/Agents/13564",
            "category": "agents"
          },
          {
            "type": "name_match",
            "text": "cytosine",
            "confidence": 1.0,
            "uuid": "f72bad68-a746-453b-a774-7e2b6fffd2df",
            "name": "Cytosine",
            "url": "https://haz-map.com/Agents/13568",
            "category": "agents"
          },
          {
            "type": "name_match",
            "text": "deoxycytidine",
            "confidence": 1.0,
            "uuid": "c50e87bb-22c3-49e8-be2e-47c840dae5c0",
            "name": "Deoxycytidine",
            "url": "https://haz-map.com/Agents/13631",
            "category": "agents"
          }
        ]
      },
      "category": {
        "original_name": "Category",
        "value": "Nucleic Acids and Derivatives",
        "links": [],
        "cross_references": []
      },
      "description": {
        "original_name": "Description",
        "value": "White powder; [Sigma-Aldrich MSDS]",
        "links": [],
        "cross_references": []
      },
      "comments": {
        "original_name": "Comments",
        "value": "May cause irritation; [Sigma-Aldrich MSDS]",
        "links": [],
        "cross_references": []
      },
      "biomedical_references": {
        "original_name": "Biomedical References",
        "value": "Search PubMed",
        "links": [
          {
            "text": "Search PubMed",
            "url": "https://www.ncbi.nlm.nih.gov/pubmed?term=Deoxycytidine%20AND%20human%5Bmh%5D%20AND%20%28Occupational%20Diseases%20%5Bmh%5D%20OR%20Occupational%20Exposure%20%5Bmh%5D%29%20%20AND%20%28tox%5Bsb%5D%29&cmd=search"
          }
        ],
        "cross_references": []
      }
    },
    "exposure_assessment": {
      "vapor_pressure": {
        "original_name": "Vapor Pressure",
        "value": "4.22E-11 mm Hg",
        "links": [],
        "cross_references": []
      }
    },
    "diseases_processes_and_activities_linked_to_this_agent": {
      "other_information": {
        "original_name": "Other Information",
        "value": "No other related information on this agent was found.",
        "links": [],
        "cross_references": []
      }
    }
  },
  "cross_references": [
    {
      "type": "name_match",
      "text": "furan",
      "confidence": 1.0,
      "uuid": "96da3d2e-f46b-4100-9000-704d1a86985b",
      "name": "Furan",
      "url": "https://haz-map.com/Agents/1477",
      "category": "agents"
    },
    {
      "type": "name_match",
      "text": "cytidine",
      "confidence": 1.0,
      "uuid": "7fc3c1df-8d24-44ef-a0fb-4e3d2b10f838",
      "name": "Cytidine",
      "url": "https://haz-map.com/Agents/13564",
      "category": "agents"
    },
    {
      "type": "name_match",
      "text": "cytosine",
      "confidence": 1.0,
      "uuid": "f72bad68-a746-453b-a774-7e2b6fffd2df",
      "name": "Cytosine",
      "url": "https://haz-map.com/Agents/13568",
      "category": "agents"
    },
    {
      "type": "name_match",
      "text": "deoxycytidine",
      "confidence": 1.0,
      "uuid": "c50e87bb-22c3-49e8-be2e-47c840dae5c0",
      "name": "Deoxycytidine",
      "url": "https://haz-map.com/Agents/13631",
      "category": "agents"
    }
  ],
  "all_links": [
    {
      "text": "Search PubMed",
      "url": "https://www.ncbi.nlm.nih.gov/pubmed?term=Deoxycytidine%20AND%20human%5Bmh%5D%20AND%20%28Occupational%20Diseases%20%5Bmh%5D%20OR%20Occupational%20Exposure%20%5Bmh%5D%29%20%20AND%20%28tox%5Bsb%5D%29&cmd=search"
    }
  ]
}