{
  "metadata": {
    "scraped_from": "https://haz-map.com/Agents/204",
    "entity_name": "Fluroxene",
    "category": "agents",
    "uuid": "c51da7e6-c37f-4b00-954f-715a5d4cf645",
    "scraped_at": "2025-07-23T18:36:58.561809"
  },
  "parsed_at": "2025-07-24T00:57:48.345935",
  "title": "Fluroxene",
  "sections": {
    "general": {
      "agent_name": {
        "original_name": "Agent Name",
        "value": "Fluroxene",
        "links": [],
        "cross_references": [
          {
            "type": "name_match",
            "text": "fluroxene",
            "confidence": 1.0,
            "uuid": "c51da7e6-c37f-4b00-954f-715a5d4cf645",
            "name": "Fluroxene",
            "url": "https://haz-map.com/Agents/204",
            "category": "agents"
          }
        ]
      },
      "cas_number": {
        "original_name": "CAS Number",
        "value": "406-90-6",
        "links": [],
        "cross_references": []
      },
      "formula": {
        "original_name": "Formula",
        "value": "C4-H5-F3-O",
        "links": [],
        "cross_references": []
      },
      "major_category": {
        "original_name": "Major Category",
        "value": "Other Uses",
        "links": [],
        "cross_references": []
      },
      "synonyms": {
        "original_name": "Synonyms",
        "value": "2,2,2-Trifluoroethoxyethene; 2,2,2-Trifluorethyl vinyl ether; [NIOSH]",
        "links": [],
        "cross_references": [
          {
            "type": "name_match",
            "text": "ethyl vinyl ether",
            "confidence": 1.0,
            "uuid": "d7eab654-c0bd-41c4-ade7-7fb1ef137bbb",
            "name": "Ethyl vinyl ether",
            "url": "https://haz-map.com/Agents/20878",
            "category": "agents"
          }
        ]
      },
      "category": {
        "original_name": "Category",
        "value": "Waste Anesthetic Gases",
        "links": [],
        "cross_references": [
          {
            "type": "name_match",
            "text": "waste anesthetic gases",
            "confidence": 1.0,
            "uuid": "ed0e7600-0cbc-48b1-b81a-f72bfc50bddd",
            "name": "WASTE ANESTHETIC GASES",
            "url": "https://haz-map.com/Agents/684",
            "category": "agents"
          }
        ]
      },
      "description": {
        "original_name": "Description",
        "value": "Liquid. (inhalation anesthetic); Note: A gas above 109 degrees F; [NIOSH]",
        "links": [],
        "cross_references": []
      },
      "sourcesuses": {
        "original_name": "Sources/Uses",
        "value": "Formerly used as a general anesthetic; [CAMEO]",
        "links": [],
        "cross_references": []
      },
      "comments": {
        "original_name": "Comments",
        "value": "See \"WASTE ANESTHETIC GASES\"",
        "links": [],
        "cross_references": [
          {
            "type": "name_match",
            "text": "waste anesthetic gases",
            "confidence": 1.0,
            "uuid": "ed0e7600-0cbc-48b1-b81a-f72bfc50bddd",
            "name": "WASTE ANESTHETIC GASES",
            "url": "https://haz-map.com/Agents/684",
            "category": "agents"
          }
        ]
      },
      "biomedical_references": {
        "original_name": "Biomedical References",
        "value": "Search PubMed",
        "links": [
          {
            "text": "Search PubMed",
            "url": "https://www.ncbi.nlm.nih.gov/pubmed?term=Fluroxene%20AND%20human%5Bmh%5D%20AND%20%28Occupational%20Diseases%20%5Bmh%5D%20OR%20Occupational%20Exposure%20%5Bmh%5D%29%20%20AND%20%28tox%5Bsb%5D%29&cmd=search"
          }
        ],
        "cross_references": []
      }
    },
    "exposure_assessment": {
      "vapor_pressure": {
        "original_name": "Vapor Pressure",
        "value": "286 mm Hg",
        "links": [],
        "cross_references": []
      },
      "explanatory_notes": {
        "original_name": "Explanatory Notes",
        "value": "NIOSH Rel = 60 min. ceiling of 2 ppm;",
        "links": [],
        "cross_references": []
      }
    },
    "adverse_effects": {
      "neurotoxin": {
        "original_name": "Neurotoxin",
        "value": "Acute solvent syndrome",
        "links": [],
        "cross_references": []
      },
      "reproductive_toxin": {
        "original_name": "Reproductive Toxin",
        "value": "Yes",
        "links": [],
        "cross_references": []
      }
    },
    "diseases_processes_and_activities_linked_to_this_agent": {
      "diseases": {
        "original_name": "Diseases",
        "value": "Occupational diseases associated with exposure to this agent: Solvents, acute toxic effect",
        "links": [
          {
            "text": "Solvents, acute toxic effect",
            "url": "https://haz-map.com/Diseases/326"
          }
        ],
        "cross_references": [
          {
            "type": "url_match",
            "text": "Solvents, acute toxic effect",
            "url": "https://haz-map.com/Diseases/326",
            "confidence": 1.0,
            "uuid": "581e90e3-9d0c-45f0-aa6c-3468c28da129",
            "name": "Solvents, acute toxic effect",
            "category": "diseases"
          }
        ]
      }
    }
  },
  "cross_references": [
    {
      "type": "url_match",
      "text": "Solvents, acute toxic effect",
      "url": "https://haz-map.com/Diseases/326",
      "confidence": 1.0,
      "uuid": "581e90e3-9d0c-45f0-aa6c-3468c28da129",
      "name": "Solvents, acute toxic effect",
      "category": "diseases"
    },
    {
      "type": "name_match",
      "text": "fluroxene",
      "confidence": 1.0,
      "uuid": "c51da7e6-c37f-4b00-954f-715a5d4cf645",
      "name": "Fluroxene",
      "url": "https://haz-map.com/Agents/204",
      "category": "agents"
    },
    {
      "type": "name_match",
      "text": "waste anesthetic gases",
      "confidence": 1.0,
      "uuid": "ed0e7600-0cbc-48b1-b81a-f72bfc50bddd",
      "name": "WASTE ANESTHETIC GASES",
      "url": "https://haz-map.com/Agents/684",
      "category": "agents"
    },
    {
      "type": "name_match",
      "text": "ethyl vinyl ether",
      "confidence": 1.0,
      "uuid": "d7eab654-c0bd-41c4-ade7-7fb1ef137bbb",
      "name": "Ethyl vinyl ether",
      "url": "https://haz-map.com/Agents/20878",
      "category": "agents"
    }
  ],
  "all_links": [
    {
      "text": "Search PubMed",
      "url": "https://www.ncbi.nlm.nih.gov/pubmed?term=Fluroxene%20AND%20human%5Bmh%5D%20AND%20%28Occupational%20Diseases%20%5Bmh%5D%20OR%20Occupational%20Exposure%20%5Bmh%5D%29%20%20AND%20%28tox%5Bsb%5D%29&cmd=search"
    },
    {
      "text": "Solvents, acute toxic effect",
      "url": "https://haz-map.com/Diseases/326"
    }
  ]
}