{
  "metadata": {
    "scraped_from": "https://haz-map.com/Agents/12534",
    "entity_name": "cis-2-Hexene",
    "category": "agents",
    "uuid": "c52a2eda-bbf2-4231-b09c-e70a8dc28c5f",
    "scraped_at": "2025-07-23T21:08:31.571223"
  },
  "parsed_at": "2025-07-24T01:15:32.951600",
  "title": "cis-2-Hexene",
  "sections": {
    "general": {
      "agent_name": {
        "original_name": "Agent Name",
        "value": "cis-2-Hexene",
        "links": [],
        "cross_references": [
          {
            "type": "name_match",
            "text": "hexene",
            "confidence": 1.0,
            "uuid": "592a6801-2d0b-441f-b3f6-6d67971256b7",
            "name": "Hexene",
            "url": "https://haz-map.com/Agents/5534",
            "category": "agents"
          },
          {
            "type": "name_match",
            "text": "2-hexene",
            "confidence": 1.0,
            "uuid": "12737f64-d4e6-493d-b45a-eae10fb413f9",
            "name": "2-Hexene",
            "url": "https://haz-map.com/Agents/8525",
            "category": "agents"
          },
          {
            "type": "name_match",
            "text": "cis-2-hexene",
            "confidence": 1.0,
            "uuid": "c52a2eda-bbf2-4231-b09c-e70a8dc28c5f",
            "name": "cis-2-Hexene",
            "url": "https://haz-map.com/Agents/12534",
            "category": "agents"
          }
        ]
      },
      "cas_number": {
        "original_name": "CAS Number",
        "value": "7688-21-3",
        "links": [],
        "cross_references": []
      },
      "formula": {
        "original_name": "Formula",
        "value": "C6-H12",
        "links": [],
        "cross_references": []
      },
      "major_category": {
        "original_name": "Major Category",
        "value": "Other Classes",
        "links": [],
        "cross_references": []
      },
      "synonyms": {
        "original_name": "Synonyms",
        "value": "(Z)-2-Hexene; 2-Hexene, cis-; (Z)-Hex-2-ene; 2-Hexene, (2Z)-; 2-Hexene, (Z)-; 2-Hexene-cis; [ChemIDplus] UN3295",
        "links": [],
        "cross_references": [
          {
            "type": "name_match",
            "text": "hexene",
            "confidence": 1.0,
            "uuid": "592a6801-2d0b-441f-b3f6-6d67971256b7",
            "name": "Hexene",
            "url": "https://haz-map.com/Agents/5534",
            "category": "agents"
          },
          {
            "type": "name_match",
            "text": "2-hexene",
            "confidence": 1.0,
            "uuid": "12737f64-d4e6-493d-b45a-eae10fb413f9",
            "name": "2-Hexene",
            "url": "https://haz-map.com/Agents/8525",
            "category": "agents"
          }
        ]
      },
      "category": {
        "original_name": "Category",
        "value": "Aliphatics, Unsaturated",
        "links": [],
        "cross_references": []
      },
      "description": {
        "original_name": "Description",
        "value": "Clear colorless liquid; [Sigma-Aldrich MSDS]",
        "links": [],
        "cross_references": []
      },
      "comments": {
        "original_name": "Comments",
        "value": "A skin and strong eye irritant; [Sigma-Aldrich MSDS] See \"2-Hexene.\"",
        "links": [],
        "cross_references": [
          {
            "type": "name_match",
            "text": "hexene",
            "confidence": 1.0,
            "uuid": "592a6801-2d0b-441f-b3f6-6d67971256b7",
            "name": "Hexene",
            "url": "https://haz-map.com/Agents/5534",
            "category": "agents"
          },
          {
            "type": "name_match",
            "text": "2-hexene",
            "confidence": 1.0,
            "uuid": "12737f64-d4e6-493d-b45a-eae10fb413f9",
            "name": "2-Hexene",
            "url": "https://haz-map.com/Agents/8525",
            "category": "agents"
          }
        ]
      },
      "biomedical_references": {
        "original_name": "Biomedical References",
        "value": "Search PubMed",
        "links": [
          {
            "text": "Search PubMed",
            "url": "https://www.ncbi.nlm.nih.gov/pubmed?term=cis-2-Hexene%20AND%20human%5Bmh%5D%20AND%20%28Occupational%20Diseases%20%5Bmh%5D%20OR%20Occupational%20Exposure%20%5Bmh%5D%29%20%20AND%20%28tox%5Bsb%5D%29&cmd=search"
          }
        ],
        "cross_references": []
      }
    },
    "exposure_assessment": {
      "vapor_pressure": {
        "original_name": "Vapor Pressure",
        "value": "150 mm Hg",
        "links": [],
        "cross_references": []
      },
      "explanatory_notes": {
        "original_name": "Explanatory Notes",
        "value": "The Guide in the Emergency Response Guidebook is for \"Hydrocarbons, liquid, n.o.s.\" VP from ChemIDplus;",
        "links": [],
        "cross_references": [
          {
            "type": "name_match",
            "text": "carbon",
            "confidence": 1.0,
            "uuid": "b53f8815-ee80-40ef-b4aa-3b000e17dab5",
            "name": "Carbon",
            "url": "https://haz-map.com/Agents/1891",
            "category": "agents"
          },
          {
            "type": "fuzzy_match",
            "text": "hydrocarbons",
            "matched_name": "Hydrocarbons, C>3",
            "confidence": 0.7100840336134454,
            "uuid": "8eaa37ac-3931-44e4-9242-2734127fd661",
            "category": "agents",
            "url": "https://haz-map.com/Agents/14795"
          }
        ]
      }
    },
    "diseases_processes_and_activities_linked_to_this_agent": {
      "other_information": {
        "original_name": "Other Information",
        "value": "No other related information on this agent was found.",
        "links": [],
        "cross_references": []
      }
    }
  },
  "cross_references": [
    {
      "type": "name_match",
      "text": "carbon",
      "confidence": 1.0,
      "uuid": "b53f8815-ee80-40ef-b4aa-3b000e17dab5",
      "name": "Carbon",
      "url": "https://haz-map.com/Agents/1891",
      "category": "agents"
    },
    {
      "type": "name_match",
      "text": "hexene",
      "confidence": 1.0,
      "uuid": "592a6801-2d0b-441f-b3f6-6d67971256b7",
      "name": "Hexene",
      "url": "https://haz-map.com/Agents/5534",
      "category": "agents"
    },
    {
      "type": "name_match",
      "text": "2-hexene",
      "confidence": 1.0,
      "uuid": "12737f64-d4e6-493d-b45a-eae10fb413f9",
      "name": "2-Hexene",
      "url": "https://haz-map.com/Agents/8525",
      "category": "agents"
    },
    {
      "type": "name_match",
      "text": "cis-2-hexene",
      "confidence": 1.0,
      "uuid": "c52a2eda-bbf2-4231-b09c-e70a8dc28c5f",
      "name": "cis-2-Hexene",
      "url": "https://haz-map.com/Agents/12534",
      "category": "agents"
    },
    {
      "type": "fuzzy_match",
      "text": "hydrocarbons",
      "matched_name": "Hydrocarbons, C>3",
      "confidence": 0.7100840336134454,
      "uuid": "8eaa37ac-3931-44e4-9242-2734127fd661",
      "category": "agents",
      "url": "https://haz-map.com/Agents/14795"
    }
  ],
  "all_links": [
    {
      "text": "Search PubMed",
      "url": "https://www.ncbi.nlm.nih.gov/pubmed?term=cis-2-Hexene%20AND%20human%5Bmh%5D%20AND%20%28Occupational%20Diseases%20%5Bmh%5D%20OR%20Occupational%20Exposure%20%5Bmh%5D%29%20%20AND%20%28tox%5Bsb%5D%29&cmd=search"
    }
  ]
}