{
  "metadata": {
    "scraped_from": "https://haz-map.com/Agents/15357",
    "entity_name": "Maltose",
    "category": "agents",
    "uuid": "c541bd96-79d2-4f84-88eb-14eea197cc17",
    "scraped_at": "2025-07-23T21:29:40.282977"
  },
  "parsed_at": "2025-07-24T00:55:32.566905",
  "title": "Maltose",
  "sections": {
    "general": {
      "agent_name": {
        "original_name": "Agent Name",
        "value": "Maltose",
        "links": [],
        "cross_references": [
          {
            "type": "name_match",
            "text": "maltose",
            "confidence": 1.0,
            "uuid": "c541bd96-79d2-4f84-88eb-14eea197cc17",
            "name": "Maltose",
            "url": "https://haz-map.com/Agents/15357",
            "category": "agents"
          }
        ]
      },
      "cas_number": {
        "original_name": "CAS Number",
        "value": "69-79-4",
        "links": [],
        "cross_references": []
      },
      "formula": {
        "original_name": "Formula",
        "value": "C12-H22-O11",
        "links": [],
        "cross_references": []
      },
      "major_category": {
        "original_name": "Major Category",
        "value": "Biological Agents",
        "links": [],
        "cross_references": []
      },
      "synonyms": {
        "original_name": "Synonyms",
        "value": "4-(alpha-D-Glucopyranosido)-alpha-glucopyranose; 4-(alpha-D-Glucosido)-D-glucose; 4-O-alpha-D-Glucopyranosyl-D-glucose; 4-O-alpha-D-Glucopyranosyl-beta-D-glucopyranose; Advanctose 100; Cextromaltose; D-(+)-Maltose; D-Maltose; Finetose; Finetose F; Malt sugar; Maltobiose; Maltodiose; Sunmalt; Sunmalt S; D-Glucose, 4-O-alpha-D-glucopyranosyl-; Maltose, pure; [ChemIDplus] Maltos; Martos-10; [Merck Index]",
        "links": [],
        "cross_references": [
          {
            "type": "name_match",
            "text": "glucose",
            "confidence": 1.0,
            "uuid": "329d86ed-6744-4566-825c-5247ed1a8f75",
            "name": "Glucose",
            "url": "https://haz-map.com/Agents/14413",
            "category": "agents"
          },
          {
            "type": "name_match",
            "text": "maltose",
            "confidence": 1.0,
            "uuid": "c541bd96-79d2-4f84-88eb-14eea197cc17",
            "name": "Maltose",
            "url": "https://haz-map.com/Agents/15357",
            "category": "agents"
          }
        ]
      },
      "category": {
        "original_name": "Category",
        "value": "Disaccharides",
        "links": [],
        "cross_references": []
      },
      "description": {
        "original_name": "Description",
        "value": "White odorless crystals; [Mallinckrodt Baker MSDS]",
        "links": [],
        "cross_references": []
      },
      "sourcesuses": {
        "original_name": "Sources/Uses",
        "value": "Used as a nutrient, sweetener, stabilizer for polysulfides, and in pharmaceuticals; [Merck Index] Used as a nutritive sweetener; [FDA] Permitted for use as an inert ingredient in non-food pesticide products; [EPA]",
        "links": [],
        "cross_references": [
          {
            "type": "name_match",
            "text": "pharmaceuticals",
            "confidence": 1.0,
            "uuid": "713c3c30-b67e-4a2f-a90f-b32f8a306332",
            "name": "PHARMACEUTICALS",
            "url": "https://haz-map.com/Agents/1000",
            "category": "agents"
          },
          {
            "type": "name_match",
            "text": "polysulfide",
            "confidence": 1.0,
            "uuid": "0db34324-d736-4110-b304-e84529e09df8",
            "name": "Polysulfide",
            "url": "https://haz-map.com/Agents/16750",
            "category": "agents"
          }
        ]
      },
      "comments": {
        "original_name": "Comments",
        "value": "No evidence of teratogenicity in rabbits, rats, or mice at extremely high intravenous doses (10, 30, and 10 gm/kg, respectively); [Shepard's Catalog of Teratogenic Agents] May cause irritation; [Mallinckrodt Baker MSDS]",
        "links": [],
        "cross_references": []
      },
      "biomedical_references": {
        "original_name": "Biomedical References",
        "value": "Search PubMed",
        "links": [
          {
            "text": "Search PubMed",
            "url": "https://www.ncbi.nlm.nih.gov/pubmed?term=Maltose%20AND%20human%5Bmh%5D%20AND%20%28Occupational%20Diseases%20%5Bmh%5D%20OR%20Occupational%20Exposure%20%5Bmh%5D%29%20%20AND%20%28tox%5Bsb%5D%29&cmd=search"
          }
        ],
        "cross_references": []
      }
    },
    "exposure_assessment": {
      "vapor_pressure": {
        "original_name": "Vapor Pressure",
        "value": "8.09E-17 mm Hg",
        "links": [],
        "cross_references": []
      }
    },
    "diseases_processes_and_activities_linked_to_this_agent": {
      "other_information": {
        "original_name": "Other Information",
        "value": "No other related information on this agent was found.",
        "links": [],
        "cross_references": []
      }
    }
  },
  "cross_references": [
    {
      "type": "name_match",
      "text": "pharmaceuticals",
      "confidence": 1.0,
      "uuid": "713c3c30-b67e-4a2f-a90f-b32f8a306332",
      "name": "PHARMACEUTICALS",
      "url": "https://haz-map.com/Agents/1000",
      "category": "agents"
    },
    {
      "type": "name_match",
      "text": "glucose",
      "confidence": 1.0,
      "uuid": "329d86ed-6744-4566-825c-5247ed1a8f75",
      "name": "Glucose",
      "url": "https://haz-map.com/Agents/14413",
      "category": "agents"
    },
    {
      "type": "name_match",
      "text": "maltose",
      "confidence": 1.0,
      "uuid": "c541bd96-79d2-4f84-88eb-14eea197cc17",
      "name": "Maltose",
      "url": "https://haz-map.com/Agents/15357",
      "category": "agents"
    },
    {
      "type": "name_match",
      "text": "polysulfide",
      "confidence": 1.0,
      "uuid": "0db34324-d736-4110-b304-e84529e09df8",
      "name": "Polysulfide",
      "url": "https://haz-map.com/Agents/16750",
      "category": "agents"
    }
  ],
  "all_links": [
    {
      "text": "Search PubMed",
      "url": "https://www.ncbi.nlm.nih.gov/pubmed?term=Maltose%20AND%20human%5Bmh%5D%20AND%20%28Occupational%20Diseases%20%5Bmh%5D%20OR%20Occupational%20Exposure%20%5Bmh%5D%29%20%20AND%20%28tox%5Bsb%5D%29&cmd=search"
    }
  ]
}