{
  "metadata": {
    "scraped_from": "https://haz-map.com/Agents/4745",
    "entity_name": "Dibutyl azelate",
    "category": "agents",
    "uuid": "c59e7d66-87d6-465b-a6c9-4547a3748b11",
    "scraped_at": "2025-07-23T19:44:13.568894"
  },
  "parsed_at": "2025-07-24T00:58:01.042762",
  "title": "Dibutyl azelate",
  "sections": {
    "general": {
      "agent_name": {
        "original_name": "Agent Name",
        "value": "Dibutyl azelate",
        "links": [],
        "cross_references": [
          {
            "type": "name_match",
            "text": "dibutyl azelate",
            "confidence": 1.0,
            "uuid": "c59e7d66-87d6-465b-a6c9-4547a3748b11",
            "name": "Dibutyl azelate",
            "url": "https://haz-map.com/Agents/4745",
            "category": "agents"
          }
        ]
      },
      "cas_number": {
        "original_name": "CAS Number",
        "value": "2917-73-9",
        "links": [],
        "cross_references": []
      },
      "formula": {
        "original_name": "Formula",
        "value": "C17-H32-O4",
        "links": [],
        "cross_references": []
      },
      "major_category": {
        "original_name": "Major Category",
        "value": "Plastics & Rubber",
        "links": [],
        "cross_references": []
      },
      "synonyms": {
        "original_name": "Synonyms",
        "value": "1,9-Di-n-butyl nonanedioate; Azelaic acid, dibutyl ester; Dibutyl nonanedioate; Ergoplast AzDB; Nonanedioic acid, dibutyl ester; [ChemIDplus]",
        "links": [],
        "cross_references": [
          {
            "type": "name_match",
            "text": "nonane",
            "confidence": 1.0,
            "uuid": "fe0f019a-d093-4bb9-a7d3-2f2ceaf91953",
            "name": "Nonane",
            "url": "https://haz-map.com/Agents/578",
            "category": "agents"
          },
          {
            "type": "name_match",
            "text": "azelaic acid",
            "confidence": 1.0,
            "uuid": "5ab40d10-a6bb-410e-bb1c-bb930947ba06",
            "name": "Azelaic acid",
            "url": "https://haz-map.com/Agents/12008",
            "category": "agents"
          }
        ]
      },
      "category": {
        "original_name": "Category",
        "value": "Other Plasticizers",
        "links": [],
        "cross_references": []
      },
      "description": {
        "original_name": "Description",
        "value": "Liquid; [HSDB]",
        "links": [],
        "cross_references": []
      },
      "sourcesuses": {
        "original_name": "Sources/Uses",
        "value": "Used as a plasticizer and in contact lenses; [HSDB]",
        "links": [],
        "cross_references": []
      },
      "comments": {
        "original_name": "Comments",
        "value": "A mild skin irritant in animal studies; [HSDB]",
        "links": [],
        "cross_references": []
      },
      "biomedical_references": {
        "original_name": "Biomedical References",
        "value": "Search PubMed",
        "links": [
          {
            "text": "Search PubMed",
            "url": "https://www.ncbi.nlm.nih.gov/pubmed?term=Dibutyl+azelate%20AND%20human%5Bmh%5D%20AND%20%28Occupational%20Diseases%20%5Bmh%5D%20OR%20Occupational%20Exposure%20%5Bmh%5D%29%20%20AND%20%28tox%5Bsb%5D%29&cmd=search"
          }
        ],
        "cross_references": []
      }
    },
    "exposure_assessment": {
      "vapor_pressure": {
        "original_name": "Vapor Pressure",
        "value": "0.0003 mm Hg",
        "links": [],
        "cross_references": []
      }
    },
    "diseases_processes_and_activities_linked_to_this_agent": {
      "other_information": {
        "original_name": "Other Information",
        "value": "No other related information on this agent was found.",
        "links": [],
        "cross_references": []
      }
    }
  },
  "cross_references": [
    {
      "type": "name_match",
      "text": "nonane",
      "confidence": 1.0,
      "uuid": "fe0f019a-d093-4bb9-a7d3-2f2ceaf91953",
      "name": "Nonane",
      "url": "https://haz-map.com/Agents/578",
      "category": "agents"
    },
    {
      "type": "name_match",
      "text": "dibutyl azelate",
      "confidence": 1.0,
      "uuid": "c59e7d66-87d6-465b-a6c9-4547a3748b11",
      "name": "Dibutyl azelate",
      "url": "https://haz-map.com/Agents/4745",
      "category": "agents"
    },
    {
      "type": "name_match",
      "text": "azelaic acid",
      "confidence": 1.0,
      "uuid": "5ab40d10-a6bb-410e-bb1c-bb930947ba06",
      "name": "Azelaic acid",
      "url": "https://haz-map.com/Agents/12008",
      "category": "agents"
    }
  ],
  "all_links": [
    {
      "text": "Search PubMed",
      "url": "https://www.ncbi.nlm.nih.gov/pubmed?term=Dibutyl+azelate%20AND%20human%5Bmh%5D%20AND%20%28Occupational%20Diseases%20%5Bmh%5D%20OR%20Occupational%20Exposure%20%5Bmh%5D%29%20%20AND%20%28tox%5Bsb%5D%29&cmd=search"
    }
  ]
}