{
  "metadata": {
    "scraped_from": "https://haz-map.com/Agents/4599",
    "entity_name": "Cyclohexyl methacrylate",
    "category": "agents",
    "uuid": "c5b91400-e21d-4294-afe9-c830742d276e",
    "scraped_at": "2025-07-23T19:42:38.720091"
  },
  "parsed_at": "2025-07-24T01:08:19.482540",
  "title": "Cyclohexyl methacrylate",
  "sections": {
    "general": {
      "agent_name": {
        "original_name": "Agent Name",
        "value": "Cyclohexyl methacrylate",
        "links": [],
        "cross_references": [
          {
            "type": "name_match",
            "text": "cyclohexyl methacrylate",
            "confidence": 1.0,
            "uuid": "c5b91400-e21d-4294-afe9-c830742d276e",
            "name": "Cyclohexyl methacrylate",
            "url": "https://haz-map.com/Agents/4599",
            "category": "agents"
          }
        ]
      },
      "cas_number": {
        "original_name": "CAS Number",
        "value": "101-43-9",
        "links": [],
        "cross_references": []
      },
      "formula": {
        "original_name": "Formula",
        "value": "C10-H16-O2",
        "links": [],
        "cross_references": []
      },
      "major_category": {
        "original_name": "Major Category",
        "value": "Plastics & Rubber",
        "links": [],
        "cross_references": []
      },
      "synonyms": {
        "original_name": "Synonyms",
        "value": "2-Propenoic acid, 2-methyl-, cyclohexyl ester; Methacrylic acid, cyclohexyl ester; [ChemIDplus]",
        "links": [],
        "cross_references": [
          {
            "type": "name_match",
            "text": "acrylic acid",
            "confidence": 1.0,
            "uuid": "c8e65755-0f00-4e14-91fe-d4fa705d17da",
            "name": "Acrylic acid",
            "url": "https://haz-map.com/Agents/67",
            "category": "agents"
          },
          {
            "type": "name_match",
            "text": "methacrylic acid",
            "confidence": 1.0,
            "uuid": "cbb89ac5-c6fb-4f8e-9a25-8dce1702dff5",
            "name": "Methacrylic acid",
            "url": "https://haz-map.com/Agents/215",
            "category": "agents"
          }
        ]
      },
      "category": {
        "original_name": "Category",
        "value": "(Meth)acrylates",
        "links": [],
        "cross_references": []
      },
      "description": {
        "original_name": "Description",
        "value": "Colorless liquid with a pleasant odor; [Hawley]",
        "links": [],
        "cross_references": []
      },
      "sourcesuses": {
        "original_name": "Sources/Uses",
        "value": "Used in optical lens systems, dental resins, electronics encapsulation, and hydrogel lenses; [HSDB]",
        "links": [],
        "cross_references": []
      },
      "comments": {
        "original_name": "Comments",
        "value": "An irritant; [MSDSonline] See \"ACRYLIC RESINS (MONOMERS).\"",
        "links": [],
        "cross_references": [
          {
            "type": "name_match",
            "text": "acrylic resins (monomers)",
            "confidence": 1.0,
            "uuid": "602c61a5-dc0b-412e-bc40-98ecfee92bc4",
            "name": "ACRYLIC RESINS (MONOMERS)",
            "url": "https://haz-map.com/Agents/1006",
            "category": "agents"
          }
        ]
      },
      "biomedical_references": {
        "original_name": "Biomedical References",
        "value": "Search PubMed",
        "links": [
          {
            "text": "Search PubMed",
            "url": "https://www.ncbi.nlm.nih.gov/pubmed?term=Cyclohexyl+methacrylate%20AND%20human%5Bmh%5D%20AND%20%28Occupational%20Diseases%20%5Bmh%5D%20OR%20Occupational%20Exposure%20%5Bmh%5D%29%20%20AND%20%28tox%5Bsb%5D%29&cmd=search"
          }
        ],
        "cross_references": []
      }
    },
    "exposure_assessment": {
      "vapor_pressure": {
        "original_name": "Vapor Pressure",
        "value": "0.191 mm Hg",
        "links": [],
        "cross_references": []
      },
      "explanatory_notes": {
        "original_name": "Explanatory Notes",
        "value": "VP from ChemIDplus;",
        "links": [],
        "cross_references": []
      }
    },
    "adverse_effects": {
      "skin_sensitizer": {
        "original_name": "Skin Sensitizer",
        "value": "Yes",
        "links": [],
        "cross_references": []
      }
    },
    "diseases_processes_and_activities_linked_to_this_agent": {
      "diseases": {
        "original_name": "Diseases",
        "value": "Occupational diseases associated with exposure to this agent: Contact dermatitis, allergic",
        "links": [
          {
            "text": "Contact dermatitis, allergic",
            "url": "https://haz-map.com/Diseases/18"
          }
        ],
        "cross_references": [
          {
            "type": "url_match",
            "text": "Contact dermatitis, allergic",
            "url": "https://haz-map.com/Diseases/18",
            "confidence": 1.0,
            "uuid": "c9499de0-9aa1-41bf-8753-cd5b28a63e29",
            "name": "Contact dermatitis, allergic",
            "category": "diseases"
          },
          {
            "type": "name_match",
            "text": "dermatitis",
            "confidence": 1.0,
            "uuid": "fe9c05f2-b19f-4ceb-ac7a-ffb7d7a0cae0",
            "name": "dermatitis",
            "url": "https://haz-map.com/Findings/59",
            "category": "findings"
          }
        ]
      },
      "processes": {
        "original_name": "Processes",
        "value": "Industrial Processes with risk of exposure: Plastic Composites Manufacturing Semiconductor Manufacturing",
        "links": [
          {
            "text": "Plastic Composites Manufacturing",
            "url": "https://haz-map.com/Processes/222"
          },
          {
            "text": "Semiconductor Manufacturing",
            "url": "https://haz-map.com/Processes/97"
          }
        ],
        "cross_references": [
          {
            "type": "url_match",
            "text": "Plastic Composites Manufacturing",
            "url": "https://haz-map.com/Processes/222",
            "confidence": 1.0,
            "uuid": "d4461b82-dc77-4172-8e3d-0a5e3b213911",
            "name": "Plastic Composites Manufacturing",
            "category": "processes"
          },
          {
            "type": "url_match",
            "text": "Semiconductor Manufacturing",
            "url": "https://haz-map.com/Processes/97",
            "confidence": 1.0,
            "uuid": "a1adedb7-a724-4539-9aff-c43b42706b89",
            "name": "Semiconductor Manufacturing",
            "category": "processes"
          }
        ]
      }
    }
  },
  "cross_references": [
    {
      "type": "url_match",
      "text": "Contact dermatitis, allergic",
      "url": "https://haz-map.com/Diseases/18",
      "confidence": 1.0,
      "uuid": "c9499de0-9aa1-41bf-8753-cd5b28a63e29",
      "name": "Contact dermatitis, allergic",
      "category": "diseases"
    },
    {
      "type": "url_match",
      "text": "Plastic Composites Manufacturing",
      "url": "https://haz-map.com/Processes/222",
      "confidence": 1.0,
      "uuid": "d4461b82-dc77-4172-8e3d-0a5e3b213911",
      "name": "Plastic Composites Manufacturing",
      "category": "processes"
    },
    {
      "type": "url_match",
      "text": "Semiconductor Manufacturing",
      "url": "https://haz-map.com/Processes/97",
      "confidence": 1.0,
      "uuid": "a1adedb7-a724-4539-9aff-c43b42706b89",
      "name": "Semiconductor Manufacturing",
      "category": "processes"
    },
    {
      "type": "name_match",
      "text": "dermatitis",
      "confidence": 1.0,
      "uuid": "fe9c05f2-b19f-4ceb-ac7a-ffb7d7a0cae0",
      "name": "dermatitis",
      "url": "https://haz-map.com/Findings/59",
      "category": "findings"
    },
    {
      "type": "name_match",
      "text": "acrylic acid",
      "confidence": 1.0,
      "uuid": "c8e65755-0f00-4e14-91fe-d4fa705d17da",
      "name": "Acrylic acid",
      "url": "https://haz-map.com/Agents/67",
      "category": "agents"
    },
    {
      "type": "name_match",
      "text": "methacrylic acid",
      "confidence": 1.0,
      "uuid": "cbb89ac5-c6fb-4f8e-9a25-8dce1702dff5",
      "name": "Methacrylic acid",
      "url": "https://haz-map.com/Agents/215",
      "category": "agents"
    },
    {
      "type": "name_match",
      "text": "acrylic resins (monomers)",
      "confidence": 1.0,
      "uuid": "602c61a5-dc0b-412e-bc40-98ecfee92bc4",
      "name": "ACRYLIC RESINS (MONOMERS)",
      "url": "https://haz-map.com/Agents/1006",
      "category": "agents"
    },
    {
      "type": "name_match",
      "text": "cyclohexyl methacrylate",
      "confidence": 1.0,
      "uuid": "c5b91400-e21d-4294-afe9-c830742d276e",
      "name": "Cyclohexyl methacrylate",
      "url": "https://haz-map.com/Agents/4599",
      "category": "agents"
    }
  ],
  "all_links": [
    {
      "text": "Search PubMed",
      "url": "https://www.ncbi.nlm.nih.gov/pubmed?term=Cyclohexyl+methacrylate%20AND%20human%5Bmh%5D%20AND%20%28Occupational%20Diseases%20%5Bmh%5D%20OR%20Occupational%20Exposure%20%5Bmh%5D%29%20%20AND%20%28tox%5Bsb%5D%29&cmd=search"
    },
    {
      "text": "Contact dermatitis, allergic",
      "url": "https://haz-map.com/Diseases/18"
    },
    {
      "text": "Plastic Composites Manufacturing",
      "url": "https://haz-map.com/Processes/222"
    },
    {
      "text": "Semiconductor Manufacturing",
      "url": "https://haz-map.com/Processes/97"
    }
  ]
}