{
  "metadata": {
    "scraped_from": "https://haz-map.com/Agents/15888",
    "entity_name": "Hexatriacontane",
    "category": "agents",
    "uuid": "c5e2ac2c-715e-4b72-a0b8-4c3b14f2361a",
    "scraped_at": "2025-07-23T21:33:07.632315"
  },
  "parsed_at": "2025-07-24T01:15:12.641483",
  "title": "Hexatriacontane",
  "sections": {
    "general": {
      "agent_name": {
        "original_name": "Agent Name",
        "value": "Hexatriacontane",
        "links": [],
        "cross_references": [
          {
            "type": "name_match",
            "text": "hexatriacontane",
            "confidence": 1.0,
            "uuid": "c5e2ac2c-715e-4b72-a0b8-4c3b14f2361a",
            "name": "Hexatriacontane",
            "url": "https://haz-map.com/Agents/15888",
            "category": "agents"
          },
          {
            "type": "name_match",
            "text": "triacontane",
            "confidence": 1.0,
            "uuid": "da103eb0-2b1a-44ff-8885-7c470d8e9d3f",
            "name": "Triacontane",
            "url": "https://haz-map.com/Agents/18132",
            "category": "agents"
          }
        ]
      },
      "cas_number": {
        "original_name": "CAS Number",
        "value": "630-06-8",
        "links": [],
        "cross_references": []
      },
      "formula": {
        "original_name": "Formula",
        "value": "C36-H74",
        "links": [],
        "cross_references": []
      },
      "major_category": {
        "original_name": "Major Category",
        "value": "Other Classes",
        "links": [],
        "cross_references": []
      },
      "synonyms": {
        "original_name": "Synonyms",
        "value": "n-Hexatriacontane; [ChemIDplus]",
        "links": [],
        "cross_references": [
          {
            "type": "name_match",
            "text": "hexatriacontane",
            "confidence": 1.0,
            "uuid": "c5e2ac2c-715e-4b72-a0b8-4c3b14f2361a",
            "name": "Hexatriacontane",
            "url": "https://haz-map.com/Agents/15888",
            "category": "agents"
          },
          {
            "type": "name_match",
            "text": "triacontane",
            "confidence": 1.0,
            "uuid": "da103eb0-2b1a-44ff-8885-7c470d8e9d3f",
            "name": "Triacontane",
            "url": "https://haz-map.com/Agents/18132",
            "category": "agents"
          }
        ]
      },
      "category": {
        "original_name": "Category",
        "value": "Aliphatics, Saturated (>C11)",
        "links": [],
        "cross_references": []
      },
      "description": {
        "original_name": "Description",
        "value": "Off-white solidified mass; Odorless; [Alfa Aesar MSDS]",
        "links": [],
        "cross_references": []
      },
      "comments": {
        "original_name": "Comments",
        "value": "May cause irritation; [Alfa Aesar MSDS]",
        "links": [],
        "cross_references": []
      },
      "biomedical_references": {
        "original_name": "Biomedical References",
        "value": "Search PubMed",
        "links": [
          {
            "text": "Search PubMed",
            "url": "https://www.ncbi.nlm.nih.gov/pubmed?term=Hexatriacontane%20AND%20human%5Bmh%5D%20AND%20%28Occupational%20Diseases%20%5Bmh%5D%20OR%20Occupational%20Exposure%20%5Bmh%5D%29%20%20AND%20%28tox%5Bsb%5D%29&cmd=search"
          }
        ],
        "cross_references": []
      }
    },
    "exposure_assessment": {
      "vapor_pressure": {
        "original_name": "Vapor Pressure",
        "value": "1.34E-23 mm Hg",
        "links": [],
        "cross_references": []
      }
    },
    "diseases_processes_and_activities_linked_to_this_agent": {
      "other_information": {
        "original_name": "Other Information",
        "value": "No other related information on this agent was found.",
        "links": [],
        "cross_references": []
      }
    }
  },
  "cross_references": [
    {
      "type": "name_match",
      "text": "hexatriacontane",
      "confidence": 1.0,
      "uuid": "c5e2ac2c-715e-4b72-a0b8-4c3b14f2361a",
      "name": "Hexatriacontane",
      "url": "https://haz-map.com/Agents/15888",
      "category": "agents"
    },
    {
      "type": "name_match",
      "text": "triacontane",
      "confidence": 1.0,
      "uuid": "da103eb0-2b1a-44ff-8885-7c470d8e9d3f",
      "name": "Triacontane",
      "url": "https://haz-map.com/Agents/18132",
      "category": "agents"
    }
  ],
  "all_links": [
    {
      "text": "Search PubMed",
      "url": "https://www.ncbi.nlm.nih.gov/pubmed?term=Hexatriacontane%20AND%20human%5Bmh%5D%20AND%20%28Occupational%20Diseases%20%5Bmh%5D%20OR%20Occupational%20Exposure%20%5Bmh%5D%29%20%20AND%20%28tox%5Bsb%5D%29&cmd=search"
    }
  ]
}