{
  "metadata": {
    "scraped_from": "https://haz-map.com/Agents/2806",
    "entity_name": "1,3-Epoxybutane",
    "category": "agents",
    "uuid": "c636e511-6d8b-45ca-aac3-fe946a90fc40",
    "scraped_at": "2025-07-23T19:19:13.121623"
  },
  "parsed_at": "2025-07-24T01:01:40.851987",
  "title": "1,3-Epoxybutane",
  "sections": {
    "general": {
      "agent_name": {
        "original_name": "Agent Name",
        "value": "1,3-Epoxybutane",
        "links": [],
        "cross_references": [
          {
            "type": "name_match",
            "text": "1,3-epoxybutane",
            "confidence": 1.0,
            "uuid": "c636e511-6d8b-45ca-aac3-fe946a90fc40",
            "name": "1,3-Epoxybutane",
            "url": "https://haz-map.com/Agents/2806",
            "category": "agents"
          }
        ]
      },
      "alternative_name": {
        "original_name": "Alternative Name",
        "value": "1,3-Butylene oxide",
        "links": [],
        "cross_references": []
      },
      "cas_number": {
        "original_name": "CAS Number",
        "value": "2167-39-7",
        "links": [],
        "cross_references": []
      },
      "formula": {
        "original_name": "Formula",
        "value": "C4-H8-O",
        "links": [],
        "cross_references": []
      },
      "major_category": {
        "original_name": "Major Category",
        "value": "Other Classes",
        "links": [],
        "cross_references": []
      },
      "synonyms": {
        "original_name": "Synonyms",
        "value": "1,3-Butylene oxide; 1-Methyltrimethylene oxide; 2-Methyloxetan; 2-Methyloxetane; Butane, 1,3-epoxy-; Oxetane, 2-methyl; [ChemIDplus]",
        "links": [],
        "cross_references": [
          {
            "type": "name_match",
            "text": "ethylene oxide",
            "confidence": 1.0,
            "uuid": "df29ee36-6345-4c09-b2c3-e3501b1449ec",
            "name": "Ethylene oxide",
            "url": "https://haz-map.com/Agents/21",
            "category": "agents"
          },
          {
            "type": "name_match",
            "text": "ethylene",
            "confidence": 1.0,
            "uuid": "958eacc0-5135-4b62-bb93-6df972bf552f",
            "name": "Ethylene",
            "url": "https://haz-map.com/Agents/1076",
            "category": "agents"
          },
          {
            "type": "name_match",
            "text": "oxetane",
            "confidence": 1.0,
            "uuid": "641aa6bb-d5b3-4877-b6f1-42a7862fb400",
            "name": "Oxetane",
            "url": "https://haz-map.com/Agents/2807",
            "category": "agents"
          }
        ]
      },
      "category": {
        "original_name": "Category",
        "value": "Other Organic Compounds",
        "links": [],
        "cross_references": [
          {
            "type": "fuzzy_match",
            "text": "organic compounds",
            "matched_name": "Tin, organic compounds",
            "confidence": 0.8196969696969697,
            "uuid": "e027d413-8869-4308-9eb2-27d768b011ea",
            "category": "agents",
            "url": "https://haz-map.com/Agents/656"
          }
        ]
      },
      "comments": {
        "original_name": "Comments",
        "value": "Emergency treatment: \"irritants\"; [HSDB] Acts as general anesthetic with intraperitoneal LDLo (mouse) = 1500 mg/kg; [RTECS]",
        "links": [],
        "cross_references": [
          {
            "type": "name_match",
            "text": "irritants",
            "confidence": 1.0,
            "uuid": "9d2b9572-8c3e-48a4-ac68-63d6e2eb6f49",
            "name": "Irritants",
            "url": "https://haz-map.com/Agents/2063",
            "category": "agents"
          }
        ]
      },
      "biomedical_references": {
        "original_name": "Biomedical References",
        "value": "Search PubMed",
        "links": [
          {
            "text": "Search PubMed",
            "url": "https://www.ncbi.nlm.nih.gov/pubmed?term=1%2c3-Epoxybutane%20AND%20human%5Bmh%5D%20AND%20%28Occupational%20Diseases%20%5Bmh%5D%20OR%20Occupational%20Exposure%20%5Bmh%5D%29%20%20AND%20%28tox%5Bsb%5D%29&cmd=search"
          }
        ],
        "cross_references": []
      }
    },
    "exposure_assessment": {
      "vapor_pressure": {
        "original_name": "Vapor Pressure",
        "value": "218 mm Hg",
        "links": [],
        "cross_references": []
      },
      "nfpa": {
        "original_name": "NFPA",
        "value": "may ignite at ambient temp",
        "links": [],
        "cross_references": []
      }
    },
    "adverse_effects": {
      "neurotoxin": {
        "original_name": "Neurotoxin",
        "value": "Acute solvent syndrome",
        "links": [],
        "cross_references": []
      }
    },
    "diseases_processes_and_activities_linked_to_this_agent": {
      "diseases": {
        "original_name": "Diseases",
        "value": "Occupational diseases associated with exposure to this agent: Solvents, acute toxic effect",
        "links": [
          {
            "text": "Solvents, acute toxic effect",
            "url": "https://haz-map.com/Diseases/326"
          }
        ],
        "cross_references": [
          {
            "type": "url_match",
            "text": "Solvents, acute toxic effect",
            "url": "https://haz-map.com/Diseases/326",
            "confidence": 1.0,
            "uuid": "581e90e3-9d0c-45f0-aa6c-3468c28da129",
            "name": "Solvents, acute toxic effect",
            "category": "diseases"
          }
        ]
      }
    }
  },
  "cross_references": [
    {
      "type": "url_match",
      "text": "Solvents, acute toxic effect",
      "url": "https://haz-map.com/Diseases/326",
      "confidence": 1.0,
      "uuid": "581e90e3-9d0c-45f0-aa6c-3468c28da129",
      "name": "Solvents, acute toxic effect",
      "category": "diseases"
    },
    {
      "type": "name_match",
      "text": "ethylene oxide",
      "confidence": 1.0,
      "uuid": "df29ee36-6345-4c09-b2c3-e3501b1449ec",
      "name": "Ethylene oxide",
      "url": "https://haz-map.com/Agents/21",
      "category": "agents"
    },
    {
      "type": "name_match",
      "text": "ethylene",
      "confidence": 1.0,
      "uuid": "958eacc0-5135-4b62-bb93-6df972bf552f",
      "name": "Ethylene",
      "url": "https://haz-map.com/Agents/1076",
      "category": "agents"
    },
    {
      "type": "name_match",
      "text": "irritants",
      "confidence": 1.0,
      "uuid": "9d2b9572-8c3e-48a4-ac68-63d6e2eb6f49",
      "name": "Irritants",
      "url": "https://haz-map.com/Agents/2063",
      "category": "agents"
    },
    {
      "type": "name_match",
      "text": "1,3-epoxybutane",
      "confidence": 1.0,
      "uuid": "c636e511-6d8b-45ca-aac3-fe946a90fc40",
      "name": "1,3-Epoxybutane",
      "url": "https://haz-map.com/Agents/2806",
      "category": "agents"
    },
    {
      "type": "name_match",
      "text": "oxetane",
      "confidence": 1.0,
      "uuid": "641aa6bb-d5b3-4877-b6f1-42a7862fb400",
      "name": "Oxetane",
      "url": "https://haz-map.com/Agents/2807",
      "category": "agents"
    },
    {
      "type": "fuzzy_match",
      "text": "organic compounds",
      "matched_name": "Tin, organic compounds",
      "confidence": 0.8196969696969697,
      "uuid": "e027d413-8869-4308-9eb2-27d768b011ea",
      "category": "agents",
      "url": "https://haz-map.com/Agents/656"
    }
  ],
  "all_links": [
    {
      "text": "Search PubMed",
      "url": "https://www.ncbi.nlm.nih.gov/pubmed?term=1%2c3-Epoxybutane%20AND%20human%5Bmh%5D%20AND%20%28Occupational%20Diseases%20%5Bmh%5D%20OR%20Occupational%20Exposure%20%5Bmh%5D%29%20%20AND%20%28tox%5Bsb%5D%29&cmd=search"
    },
    {
      "text": "Solvents, acute toxic effect",
      "url": "https://haz-map.com/Diseases/326"
    }
  ]
}