{
  "metadata": {
    "scraped_from": "https://haz-map.com/Agents/16953",
    "entity_name": "1-Propene, 1,1,2,3,3,3-hexafluoro-, oxidized, polymerized",
    "category": "agents",
    "uuid": "c64b2dde-fd92-4bfe-8536-eceb9c26f29c",
    "scraped_at": "2025-07-23T21:42:16.629851"
  },
  "parsed_at": "2025-07-24T00:54:37.954859",
  "title": "1-Propene, 1,1,2,3,3,3-hexafluoro-, oxidized, polymerized",
  "sections": {
    "general": {
      "agent_name": {
        "original_name": "Agent Name",
        "value": "1-Propene, 1,1,2,3,3,3-hexafluoro-, oxidized, polymerized",
        "links": [],
        "cross_references": [
          {
            "type": "name_match",
            "text": "1-propene, 1,1,2,3,3,3-hexafluoro-, oxidized, polymerized",
            "confidence": 1.0,
            "uuid": "c64b2dde-fd92-4bfe-8536-eceb9c26f29c",
            "name": "1-Propene, 1,1,2,3,3,3-hexafluoro-, oxidized, polymerized",
            "url": "https://haz-map.com/Agents/16953",
            "category": "agents"
          }
        ]
      },
      "cas_number": {
        "original_name": "CAS Number",
        "value": "69991-67-9",
        "links": [],
        "cross_references": []
      },
      "formula": {
        "original_name": "Formula",
        "value": "Unspecified",
        "links": [],
        "cross_references": []
      },
      "major_category": {
        "original_name": "Major Category",
        "value": "Plastics & Rubber",
        "links": [],
        "cross_references": []
      },
      "synonyms": {
        "original_name": "Synonyms",
        "value": "1-Propene, 1,1,2,3,3,3-hexafluoro-, oxidized, polymd; [ChemIDplus] LEYBONOL LVO 410; [Oerlikon Leybold Vacuum MSDS]",
        "links": [],
        "cross_references": []
      },
      "category": {
        "original_name": "Category",
        "value": "Polymers",
        "links": [],
        "cross_references": []
      },
      "description": {
        "original_name": "Description",
        "value": "Colorless odorless liquid; [Oerlikon Leybold Vacuum MSDS]",
        "links": [],
        "cross_references": []
      },
      "sourcesuses": {
        "original_name": "Sources/Uses",
        "value": "Used as a vacuum pump oil for the electronic, electrical, and chemical industries; [Oerlikon Leybold Vacuum MSDS]",
        "links": [],
        "cross_references": [
          {
            "type": "name_match",
            "text": "mica",
            "confidence": 1.0,
            "uuid": "433f26f1-c399-4596-b179-ce3843cfd465",
            "name": "Mica",
            "url": "https://haz-map.com/Agents/621",
            "category": "agents"
          }
        ]
      },
      "comments": {
        "original_name": "Comments",
        "value": "Biologically inert; May cause eye irritation; [Oerlikon Leybold Vacuum MSDS]",
        "links": [],
        "cross_references": []
      },
      "biomedical_references": {
        "original_name": "Biomedical References",
        "value": "Search PubMed",
        "links": [
          {
            "text": "Search PubMed",
            "url": "https://www.ncbi.nlm.nih.gov/pubmed?term=1-Propene%2c+1%2c1%2c2%2c3%2c3%2c3-hexafluoro-%2c+oxidized%2c+polymerized%20AND%20human%5Bmh%5D%20AND%20%28Occupational%20Diseases%20%5Bmh%5D%20OR%20Occupational%20Exposure%20%5Bmh%5D%29%20%20AND%20%28tox%5Bsb%5D%29&cmd=search"
          }
        ],
        "cross_references": []
      }
    },
    "exposure_assessment": {
      "vapor_pressure": {
        "original_name": "Vapor Pressure",
        "value": "4.5E-08 mm Hg",
        "links": [],
        "cross_references": []
      }
    },
    "diseases_processes_and_activities_linked_to_this_agent": {
      "other_information": {
        "original_name": "Other Information",
        "value": "No other related information on this agent was found.",
        "links": [],
        "cross_references": []
      }
    }
  },
  "cross_references": [
    {
      "type": "name_match",
      "text": "mica",
      "confidence": 1.0,
      "uuid": "433f26f1-c399-4596-b179-ce3843cfd465",
      "name": "Mica",
      "url": "https://haz-map.com/Agents/621",
      "category": "agents"
    },
    {
      "type": "name_match",
      "text": "1-propene, 1,1,2,3,3,3-hexafluoro-, oxidized, polymerized",
      "confidence": 1.0,
      "uuid": "c64b2dde-fd92-4bfe-8536-eceb9c26f29c",
      "name": "1-Propene, 1,1,2,3,3,3-hexafluoro-, oxidized, polymerized",
      "url": "https://haz-map.com/Agents/16953",
      "category": "agents"
    }
  ],
  "all_links": [
    {
      "text": "Search PubMed",
      "url": "https://www.ncbi.nlm.nih.gov/pubmed?term=1-Propene%2c+1%2c1%2c2%2c3%2c3%2c3-hexafluoro-%2c+oxidized%2c+polymerized%20AND%20human%5Bmh%5D%20AND%20%28Occupational%20Diseases%20%5Bmh%5D%20OR%20Occupational%20Exposure%20%5Bmh%5D%29%20%20AND%20%28tox%5Bsb%5D%29&cmd=search"
    }
  ]
}