{
  "metadata": {
    "scraped_from": "https://haz-map.com/Agents/19423",
    "entity_name": "2,2,2-Trifluoroacetophenone",
    "category": "agents",
    "uuid": "c64ef6f1-49bb-48de-9ec7-d8bef8228054",
    "scraped_at": "2025-07-23T22:05:47.919572"
  },
  "parsed_at": "2025-07-24T01:07:11.463753",
  "title": "2,2,2-Trifluoroacetophenone",
  "sections": {
    "general": {
      "agent_name": {
        "original_name": "Agent Name",
        "value": "2,2,2-Trifluoroacetophenone",
        "links": [],
        "cross_references": [
          {
            "type": "name_match",
            "text": "acetophenone",
            "confidence": 1.0,
            "uuid": "ea2f7a13-5a06-4d04-88db-0d365933a3ec",
            "name": "Acetophenone",
            "url": "https://haz-map.com/Agents/2193",
            "category": "agents"
          },
          {
            "type": "name_match",
            "text": "2,2,2-trifluoroacetophenone",
            "confidence": 1.0,
            "uuid": "c64ef6f1-49bb-48de-9ec7-d8bef8228054",
            "name": "2,2,2-Trifluoroacetophenone",
            "url": "https://haz-map.com/Agents/19423",
            "category": "agents"
          }
        ]
      },
      "cas_number": {
        "original_name": "CAS Number",
        "value": "434-45-7",
        "links": [],
        "cross_references": []
      },
      "formula": {
        "original_name": "Formula",
        "value": "C8-H5-F3-O",
        "links": [],
        "cross_references": []
      },
      "major_category": {
        "original_name": "Major Category",
        "value": "Toxic Gases & Vapors",
        "links": [],
        "cross_references": []
      },
      "synonyms": {
        "original_name": "Synonyms",
        "value": "2,2,2-Trifluoro-1-phenylethanone; alpha,alpha,alpha-Trifluoroacetophenone; Phenyl trifluoromethyl ketone; Trifluoromethyl phenyl ketone; Acetophenone, 2,2,2-trifluoro- (8CI); Ethanone, 2,2,2-trifluoro-1-phenyl-; [ChemIDplus] UN1224",
        "links": [],
        "cross_references": [
          {
            "type": "name_match",
            "text": "acetophenone",
            "confidence": 1.0,
            "uuid": "ea2f7a13-5a06-4d04-88db-0d365933a3ec",
            "name": "Acetophenone",
            "url": "https://haz-map.com/Agents/2193",
            "category": "agents"
          }
        ]
      },
      "category": {
        "original_name": "Category",
        "value": "Tear Gas Agents",
        "links": [],
        "cross_references": [
          {
            "type": "name_match",
            "text": "tea",
            "confidence": 1.0,
            "uuid": "773409e5-ac1a-4c9e-9470-9667ca82091c",
            "name": "Tea",
            "url": "https://haz-map.com/Agents/878",
            "category": "agents"
          }
        ]
      },
      "description": {
        "original_name": "Description",
        "value": "Colorless liquid; [Alfa Aesar MSDS]",
        "links": [],
        "cross_references": []
      },
      "comments": {
        "original_name": "Comments",
        "value": "An irritant and lachrymator; [Alfa Aesar MSDS] See \"alpha-Chloroacetophenone.\"",
        "links": [],
        "cross_references": [
          {
            "type": "name_match",
            "text": "alpha-chloroacetophenone",
            "confidence": 1.0,
            "uuid": "dd56f1fb-0e88-4c49-912f-2ff304fa8d18",
            "name": "alpha-Chloroacetophenone",
            "url": "https://haz-map.com/Agents/353",
            "category": "agents"
          },
          {
            "type": "name_match",
            "text": "acetophenone",
            "confidence": 1.0,
            "uuid": "ea2f7a13-5a06-4d04-88db-0d365933a3ec",
            "name": "Acetophenone",
            "url": "https://haz-map.com/Agents/2193",
            "category": "agents"
          }
        ]
      },
      "biomedical_references": {
        "original_name": "Biomedical References",
        "value": "Search PubMed",
        "links": [
          {
            "text": "Search PubMed",
            "url": "https://www.ncbi.nlm.nih.gov/pubmed?term=2%2c2%2c2-Trifluoroacetophenone%20AND%20human%5Bmh%5D%20AND%20%28Occupational%20Diseases%20%5Bmh%5D%20OR%20Occupational%20Exposure%20%5Bmh%5D%29%20%20AND%20%28tox%5Bsb%5D%29&cmd=search"
          }
        ],
        "cross_references": []
      }
    },
    "exposure_assessment": {
      "vapor_pressure": {
        "original_name": "Vapor Pressure",
        "value": "1.22 mm Hg",
        "links": [],
        "cross_references": []
      },
      "explanatory_notes": {
        "original_name": "Explanatory Notes",
        "value": "The Guide in the Emergency Response Guidebook is for \"Ketones, liquid, n.o.s.\"",
        "links": [],
        "cross_references": []
      }
    },
    "adverse_effects": {
      "lachrymator": {
        "original_name": "Lachrymator",
        "value": "Yes",
        "links": [],
        "cross_references": []
      }
    },
    "diseases_processes_and_activities_linked_to_this_agent": {
      "other_information": {
        "original_name": "Other Information",
        "value": "No other related information on this agent was found.",
        "links": [],
        "cross_references": []
      }
    }
  },
  "cross_references": [
    {
      "type": "name_match",
      "text": "alpha-chloroacetophenone",
      "confidence": 1.0,
      "uuid": "dd56f1fb-0e88-4c49-912f-2ff304fa8d18",
      "name": "alpha-Chloroacetophenone",
      "url": "https://haz-map.com/Agents/353",
      "category": "agents"
    },
    {
      "type": "name_match",
      "text": "tea",
      "confidence": 1.0,
      "uuid": "773409e5-ac1a-4c9e-9470-9667ca82091c",
      "name": "Tea",
      "url": "https://haz-map.com/Agents/878",
      "category": "agents"
    },
    {
      "type": "name_match",
      "text": "acetophenone",
      "confidence": 1.0,
      "uuid": "ea2f7a13-5a06-4d04-88db-0d365933a3ec",
      "name": "Acetophenone",
      "url": "https://haz-map.com/Agents/2193",
      "category": "agents"
    },
    {
      "type": "name_match",
      "text": "2,2,2-trifluoroacetophenone",
      "confidence": 1.0,
      "uuid": "c64ef6f1-49bb-48de-9ec7-d8bef8228054",
      "name": "2,2,2-Trifluoroacetophenone",
      "url": "https://haz-map.com/Agents/19423",
      "category": "agents"
    }
  ],
  "all_links": [
    {
      "text": "Search PubMed",
      "url": "https://www.ncbi.nlm.nih.gov/pubmed?term=2%2c2%2c2-Trifluoroacetophenone%20AND%20human%5Bmh%5D%20AND%20%28Occupational%20Diseases%20%5Bmh%5D%20OR%20Occupational%20Exposure%20%5Bmh%5D%29%20%20AND%20%28tox%5Bsb%5D%29&cmd=search"
    }
  ]
}