{
  "metadata": {
    "scraped_from": "https://haz-map.com/Agents/1515",
    "entity_name": "Diethyl zinc",
    "category": "agents",
    "uuid": "c6dbe0aa-f0e4-46bd-aff3-24b872c055ee",
    "scraped_at": "2025-07-23T19:00:31.181091"
  },
  "parsed_at": "2025-07-24T01:03:15.319118",
  "title": "Diethyl zinc",
  "sections": {
    "general": {
      "agent_name": {
        "original_name": "Agent Name",
        "value": "Diethyl zinc",
        "links": [],
        "cross_references": [
          {
            "type": "name_match",
            "text": "diethyl zinc",
            "confidence": 1.0,
            "uuid": "c6dbe0aa-f0e4-46bd-aff3-24b872c055ee",
            "name": "Diethyl zinc",
            "url": "https://haz-map.com/Agents/1515",
            "category": "agents"
          },
          {
            "type": "name_match",
            "text": "zinc",
            "confidence": 1.0,
            "uuid": "4fdb846b-d1fc-4677-99fd-bdbabeadebdc",
            "name": "Zinc",
            "url": "https://haz-map.com/Agents/1920",
            "category": "agents"
          }
        ]
      },
      "cas_number": {
        "original_name": "CAS Number",
        "value": "557-20-0",
        "links": [],
        "cross_references": []
      },
      "formula": {
        "original_name": "Formula",
        "value": "C4-H10-Zn",
        "links": [],
        "cross_references": []
      },
      "major_category": {
        "original_name": "Major Category",
        "value": "Metals",
        "links": [],
        "cross_references": []
      },
      "synonyms": {
        "original_name": "Synonyms",
        "value": "Diethylzinc; Zinc ethide; Zinc, diethyl-; UN1366; [ChemIDplus]",
        "links": [],
        "cross_references": [
          {
            "type": "name_match",
            "text": "zinc",
            "confidence": 1.0,
            "uuid": "4fdb846b-d1fc-4677-99fd-bdbabeadebdc",
            "name": "Zinc",
            "url": "https://haz-map.com/Agents/1920",
            "category": "agents"
          }
        ]
      },
      "category": {
        "original_name": "Category",
        "value": "Metals, Organic Compounds",
        "links": [],
        "cross_references": [
          {
            "type": "fuzzy_match",
            "text": "organic compounds",
            "matched_name": "Tin, organic compounds",
            "confidence": 0.8196969696969697,
            "uuid": "e027d413-8869-4308-9eb2-27d768b011ea",
            "category": "agents",
            "url": "https://haz-map.com/Agents/656"
          }
        ]
      },
      "description": {
        "original_name": "Description",
        "value": "Colorless liquid with a garlic-like odor; [HSDB] Highly flammable in air and reactive with water; [Sullivan, p. 979]",
        "links": [],
        "cross_references": [
          {
            "type": "name_match",
            "text": "garlic",
            "confidence": 1.0,
            "uuid": "b7d2adf7-e077-462e-ad96-e04fd354df5f",
            "name": "Garlic",
            "url": "https://haz-map.com/Agents/892",
            "category": "agents"
          },
          {
            "type": "name_match",
            "text": "water",
            "confidence": 1.0,
            "uuid": "6f2a7557-dfd2-49bc-9b4b-a93cd8e225d4",
            "name": "Water",
            "url": "https://haz-map.com/Agents/18668",
            "category": "agents"
          }
        ]
      },
      "sourcesuses": {
        "original_name": "Sources/Uses",
        "value": "Used as a chemical intermediate, a catalyst, an aerospace fuel, and a deacidification agent in paper manufacturing; [HSDB]",
        "links": [],
        "cross_references": [
          {
            "type": "name_match",
            "text": "mica",
            "confidence": 1.0,
            "uuid": "433f26f1-c399-4596-b179-ce3843cfd465",
            "name": "Mica",
            "url": "https://haz-map.com/Agents/621",
            "category": "agents"
          }
        ]
      },
      "comments": {
        "original_name": "Comments",
        "value": "Inhalation exposure can cause metal fume fever; Can cause burns of the skin and cornea; [HSDB] Ignites when exposed to air; [CHRIS] See \"Zinc.\" See \"ORGANOMETALS.\"",
        "links": [],
        "cross_references": [
          {
            "type": "name_match",
            "text": "metal fume fever",
            "confidence": 1.0,
            "uuid": "df2e8b18-0a58-4678-bc77-c354eb447fc7",
            "name": "Metal fume fever",
            "url": "https://haz-map.com/Diseases/69",
            "category": "diseases"
          },
          {
            "type": "name_match",
            "text": "fever",
            "confidence": 1.0,
            "uuid": "1343a59f-55bb-4311-9967-7a76a6b4cb58",
            "name": "fever",
            "url": "https://haz-map.com/Findings/28",
            "category": "findings"
          },
          {
            "type": "name_match",
            "text": "burn",
            "confidence": 1.0,
            "uuid": "63665de5-6376-4918-8dbf-4c10c4d63837",
            "name": "burn",
            "url": "https://haz-map.com/Findings/204",
            "category": "findings"
          },
          {
            "type": "name_match",
            "text": "zinc",
            "confidence": 1.0,
            "uuid": "4fdb846b-d1fc-4677-99fd-bdbabeadebdc",
            "name": "Zinc",
            "url": "https://haz-map.com/Agents/1920",
            "category": "agents"
          },
          {
            "type": "name_match",
            "text": "organometals",
            "confidence": 1.0,
            "uuid": "f4489535-f363-488b-b47b-39a88e27caf4",
            "name": "ORGANOMETALS",
            "url": "https://haz-map.com/Agents/7869",
            "category": "agents"
          }
        ]
      },
      "biomedical_references": {
        "original_name": "Biomedical References",
        "value": "Search PubMed",
        "links": [
          {
            "text": "Search PubMed",
            "url": "https://www.ncbi.nlm.nih.gov/pubmed?term=Diethyl+zinc%20AND%20human%5Bmh%5D%20AND%20%28Occupational%20Diseases%20%5Bmh%5D%20OR%20Occupational%20Exposure%20%5Bmh%5D%29%20%20AND%20%28tox%5Bsb%5D%29&cmd=search"
          }
        ],
        "cross_references": []
      }
    },
    "exposure_assessment": {
      "vapor_pressure": {
        "original_name": "Vapor Pressure",
        "value": "20.8 mm Hg",
        "links": [],
        "cross_references": []
      },
      "explanatory_notes": {
        "original_name": "Explanatory Notes",
        "value": "VP from ChemIDplus;",
        "links": [],
        "cross_references": []
      },
      "nfpa": {
        "original_name": "NFPA",
        "value": "burn readily",
        "links": [],
        "cross_references": [
          {
            "type": "name_match",
            "text": "burn",
            "confidence": 1.0,
            "uuid": "63665de5-6376-4918-8dbf-4c10c4d63837",
            "name": "burn",
            "url": "https://haz-map.com/Findings/204",
            "category": "findings"
          }
        ]
      }
    },
    "adverse_effects": {
      "dermatotoxin": {
        "original_name": "Dermatotoxin",
        "value": "Skin burns",
        "links": [],
        "cross_references": [
          {
            "type": "name_match",
            "text": "burn",
            "confidence": 1.0,
            "uuid": "63665de5-6376-4918-8dbf-4c10c4d63837",
            "name": "burn",
            "url": "https://haz-map.com/Findings/204",
            "category": "findings"
          }
        ]
      }
    },
    "diseases_processes_and_activities_linked_to_this_agent": {
      "diseases": {
        "original_name": "Diseases",
        "value": "Occupational diseases associated with exposure to this agent: Metal fume fever",
        "links": [
          {
            "text": "Metal fume fever",
            "url": "https://haz-map.com/Diseases/69"
          }
        ],
        "cross_references": [
          {
            "type": "url_match",
            "text": "Metal fume fever",
            "url": "https://haz-map.com/Diseases/69",
            "confidence": 1.0,
            "uuid": "df2e8b18-0a58-4678-bc77-c354eb447fc7",
            "name": "Metal fume fever",
            "category": "diseases"
          },
          {
            "type": "name_match",
            "text": "fever",
            "confidence": 1.0,
            "uuid": "1343a59f-55bb-4311-9967-7a76a6b4cb58",
            "name": "fever",
            "url": "https://haz-map.com/Findings/28",
            "category": "findings"
          }
        ]
      },
      "processes": {
        "original_name": "Processes",
        "value": "Industrial Processes with risk of exposure: Pulp and Paper Processing",
        "links": [
          {
            "text": "Pulp and Paper Processing",
            "url": "https://haz-map.com/Processes/132"
          }
        ],
        "cross_references": [
          {
            "type": "url_match",
            "text": "Pulp and Paper Processing",
            "url": "https://haz-map.com/Processes/132",
            "confidence": 1.0,
            "uuid": "30075079-d057-47e2-a7d8-e89bfc59d8df",
            "name": "Pulp and Paper Processing",
            "category": "processes"
          }
        ]
      }
    }
  },
  "cross_references": [
    {
      "type": "url_match",
      "text": "Metal fume fever",
      "url": "https://haz-map.com/Diseases/69",
      "confidence": 1.0,
      "uuid": "df2e8b18-0a58-4678-bc77-c354eb447fc7",
      "name": "Metal fume fever",
      "category": "diseases"
    },
    {
      "type": "url_match",
      "text": "Pulp and Paper Processing",
      "url": "https://haz-map.com/Processes/132",
      "confidence": 1.0,
      "uuid": "30075079-d057-47e2-a7d8-e89bfc59d8df",
      "name": "Pulp and Paper Processing",
      "category": "processes"
    },
    {
      "type": "name_match",
      "text": "fever",
      "confidence": 1.0,
      "uuid": "1343a59f-55bb-4311-9967-7a76a6b4cb58",
      "name": "fever",
      "url": "https://haz-map.com/Findings/28",
      "category": "findings"
    },
    {
      "type": "name_match",
      "text": "burn",
      "confidence": 1.0,
      "uuid": "63665de5-6376-4918-8dbf-4c10c4d63837",
      "name": "burn",
      "url": "https://haz-map.com/Findings/204",
      "category": "findings"
    },
    {
      "type": "name_match",
      "text": "mica",
      "confidence": 1.0,
      "uuid": "433f26f1-c399-4596-b179-ce3843cfd465",
      "name": "Mica",
      "url": "https://haz-map.com/Agents/621",
      "category": "agents"
    },
    {
      "type": "name_match",
      "text": "garlic",
      "confidence": 1.0,
      "uuid": "b7d2adf7-e077-462e-ad96-e04fd354df5f",
      "name": "Garlic",
      "url": "https://haz-map.com/Agents/892",
      "category": "agents"
    },
    {
      "type": "name_match",
      "text": "diethyl zinc",
      "confidence": 1.0,
      "uuid": "c6dbe0aa-f0e4-46bd-aff3-24b872c055ee",
      "name": "Diethyl zinc",
      "url": "https://haz-map.com/Agents/1515",
      "category": "agents"
    },
    {
      "type": "name_match",
      "text": "zinc",
      "confidence": 1.0,
      "uuid": "4fdb846b-d1fc-4677-99fd-bdbabeadebdc",
      "name": "Zinc",
      "url": "https://haz-map.com/Agents/1920",
      "category": "agents"
    },
    {
      "type": "name_match",
      "text": "organometals",
      "confidence": 1.0,
      "uuid": "f4489535-f363-488b-b47b-39a88e27caf4",
      "name": "ORGANOMETALS",
      "url": "https://haz-map.com/Agents/7869",
      "category": "agents"
    },
    {
      "type": "name_match",
      "text": "water",
      "confidence": 1.0,
      "uuid": "6f2a7557-dfd2-49bc-9b4b-a93cd8e225d4",
      "name": "Water",
      "url": "https://haz-map.com/Agents/18668",
      "category": "agents"
    },
    {
      "type": "fuzzy_match",
      "text": "organic compounds",
      "matched_name": "Tin, organic compounds",
      "confidence": 0.8196969696969697,
      "uuid": "e027d413-8869-4308-9eb2-27d768b011ea",
      "category": "agents",
      "url": "https://haz-map.com/Agents/656"
    }
  ],
  "all_links": [
    {
      "text": "Search PubMed",
      "url": "https://www.ncbi.nlm.nih.gov/pubmed?term=Diethyl+zinc%20AND%20human%5Bmh%5D%20AND%20%28Occupational%20Diseases%20%5Bmh%5D%20OR%20Occupational%20Exposure%20%5Bmh%5D%29%20%20AND%20%28tox%5Bsb%5D%29&cmd=search"
    },
    {
      "text": "Metal fume fever",
      "url": "https://haz-map.com/Diseases/69"
    },
    {
      "text": "Pulp and Paper Processing",
      "url": "https://haz-map.com/Processes/132"
    }
  ]
}