{
  "metadata": {
    "scraped_from": "https://haz-map.com/Agents/7480",
    "entity_name": "trans-1,3-Dichloropropene",
    "category": "agents",
    "uuid": "c6e05010-d5de-49e3-9ba2-7eac949320c1",
    "scraped_at": "2025-07-23T20:13:06.791918"
  },
  "parsed_at": "2025-07-24T01:11:55.032953",
  "title": "trans-1,3-Dichloropropene",
  "sections": {
    "general": {
      "agent_name": {
        "original_name": "Agent Name",
        "value": "trans-1,3-Dichloropropene",
        "links": [],
        "cross_references": [
          {
            "type": "name_match",
            "text": "1,3-dichloropropene",
            "confidence": 1.0,
            "uuid": "e140b45a-f881-4030-863e-0370336b43d7",
            "name": "1,3-Dichloropropene",
            "url": "https://haz-map.com/Agents/404",
            "category": "agents"
          },
          {
            "type": "name_match",
            "text": "trans-1,3-dichloropropene",
            "confidence": 1.0,
            "uuid": "c6e05010-d5de-49e3-9ba2-7eac949320c1",
            "name": "trans-1,3-Dichloropropene",
            "url": "https://haz-map.com/Agents/7480",
            "category": "agents"
          }
        ]
      },
      "cas_number": {
        "original_name": "CAS Number",
        "value": "10061-02-6",
        "links": [],
        "cross_references": []
      },
      "formula": {
        "original_name": "Formula",
        "value": "C3-H4-Cl2",
        "links": [],
        "cross_references": []
      },
      "major_category": {
        "original_name": "Major Category",
        "value": "Pesticides",
        "links": [],
        "cross_references": []
      },
      "synonyms": {
        "original_name": "Synonyms",
        "value": "(E)-1,3-Dichloro-1-propene; (E)-1,3-Dichloropropene; 1-Propene, 1,3-dichloro-, (E)-; Propene, 1,3-dichloro-, (E)-; Propylene, 1,3-dichloro-, (trans); trans-1,3-Dichloro-1-propene; trans-1,3-Dichloropropylene; trans-3-Chloroallyl chloride; trans-Telone; 1,3-Dichloropropene, trans-; [ChemIDplus] UN2047",
        "links": [],
        "cross_references": [
          {
            "type": "name_match",
            "text": "allyl chloride",
            "confidence": 1.0,
            "uuid": "159ace2f-3188-475b-894e-f4ce12bc235b",
            "name": "Allyl chloride",
            "url": "https://haz-map.com/Agents/284",
            "category": "agents"
          },
          {
            "type": "name_match",
            "text": "1,3-dichloropropene",
            "confidence": 1.0,
            "uuid": "e140b45a-f881-4030-863e-0370336b43d7",
            "name": "1,3-Dichloropropene",
            "url": "https://haz-map.com/Agents/404",
            "category": "agents"
          },
          {
            "type": "name_match",
            "text": "propylene",
            "confidence": 1.0,
            "uuid": "78ac73a1-0029-4a50-b283-561134c72041",
            "name": "Propylene",
            "url": "https://haz-map.com/Agents/1078",
            "category": "agents"
          },
          {
            "type": "fuzzy_match",
            "text": "3-dichloro-1-propene",
            "matched_name": "2,3-Dichloro-1-propene",
            "confidence": 0.8878787878787879,
            "uuid": "4f4d798c-cf6d-4827-8644-298663ab5749",
            "category": "agents",
            "url": "https://haz-map.com/Agents/2635"
          }
        ]
      },
      "category": {
        "original_name": "Category",
        "value": "Fumigants",
        "links": [],
        "cross_references": [
          {
            "type": "name_match",
            "text": "fumigants",
            "confidence": 1.0,
            "uuid": "01ad5510-2dbd-4a10-8a54-0defa348e7db",
            "name": "FUMIGANTS",
            "url": "https://haz-map.com/Agents/707",
            "category": "agents"
          }
        ]
      },
      "description": {
        "original_name": "Description",
        "value": "1,3-Dichloropropene: Colorless to amber liquid with an odor like chloroform; [HSDB] Clear colorless liquid; [CAMEO]",
        "links": [],
        "cross_references": [
          {
            "type": "name_match",
            "text": "chloroform",
            "confidence": 1.0,
            "uuid": "c05794fb-7374-465e-8219-dc071fdda4a7",
            "name": "Chloroform",
            "url": "https://haz-map.com/Agents/53",
            "category": "agents"
          },
          {
            "type": "name_match",
            "text": "1,3-dichloropropene",
            "confidence": 1.0,
            "uuid": "e140b45a-f881-4030-863e-0370336b43d7",
            "name": "1,3-Dichloropropene",
            "url": "https://haz-map.com/Agents/404",
            "category": "agents"
          }
        ]
      },
      "sourcesuses": {
        "original_name": "Sources/Uses",
        "value": "1,3-Dichloropropene is a mixture of cis and trans isomers used as a nematocide to fumigate soil before planting; [Reference #1]",
        "links": [],
        "cross_references": [
          {
            "type": "name_match",
            "text": "1,3-dichloropropene",
            "confidence": 1.0,
            "uuid": "e140b45a-f881-4030-863e-0370336b43d7",
            "name": "1,3-Dichloropropene",
            "url": "https://haz-map.com/Agents/404",
            "category": "agents"
          }
        ]
      },
      "comments": {
        "original_name": "Comments",
        "value": "A skin, eye, and respiratory tract irritant; May cause burns and lacrimation; May cause injury to liver, kidneys, and heart; [Merck Index] A strong irritant; May cause lacrimation, severe respiratory distress, CNS depression, and GI distress with pulmonary congestion and edema; May cause liver, kidney, and heart damage; [CAMEO] May cause irritation; Targets kidneys and liver; [MSDSonline] See \"1,3-Dichloropropene.\" See \"Dichloropropene, all isomers.\"",
        "links": [],
        "cross_references": [
          {
            "type": "name_match",
            "text": "lacrimation",
            "confidence": 1.0,
            "uuid": "392ff8e7-90fa-4d6d-8f67-3e49d053ffac",
            "name": "lacrimation",
            "url": "https://haz-map.com/Findings/199",
            "category": "findings"
          },
          {
            "type": "name_match",
            "text": "burn",
            "confidence": 1.0,
            "uuid": "63665de5-6376-4918-8dbf-4c10c4d63837",
            "name": "burn",
            "url": "https://haz-map.com/Findings/204",
            "category": "findings"
          },
          {
            "type": "name_match",
            "text": "1,3-dichloropropene",
            "confidence": 1.0,
            "uuid": "e140b45a-f881-4030-863e-0370336b43d7",
            "name": "1,3-Dichloropropene",
            "url": "https://haz-map.com/Agents/404",
            "category": "agents"
          },
          {
            "type": "name_match",
            "text": "dichloropropene, all isomers",
            "confidence": 1.0,
            "uuid": "e4769837-cc80-4958-984b-985c33810056",
            "name": "Dichloropropene, all isomers",
            "url": "https://haz-map.com/Agents/4790",
            "category": "agents"
          }
        ]
      },
      "reference_link_1": {
        "original_name": "Reference Link #1",
        "value": "ATSDR - ToxFAQs: Dichloropropenes",
        "links": [
          {
            "text": "ATSDR - ToxFAQs: Dichloropropenes",
            "url": "http://www.atsdr.cdc.gov/toxfaqs/tf.asp?id=835&tid=163"
          }
        ],
        "cross_references": []
      },
      "biomedical_references": {
        "original_name": "Biomedical References",
        "value": "Search PubMed",
        "links": [
          {
            "text": "Search PubMed",
            "url": "https://www.ncbi.nlm.nih.gov/pubmed?term=trans-1%2c3-Dichloropropene%20AND%20human%5Bmh%5D%20AND%20%28Occupational%20Diseases%20%5Bmh%5D%20OR%20Occupational%20Exposure%20%5Bmh%5D%29%20%20AND%20%28tox%5Bsb%5D%29&cmd=search"
          }
        ],
        "cross_references": []
      }
    },
    "exposure_assessment": {
      "vapor_pressure": {
        "original_name": "Vapor Pressure",
        "value": "34 mm Hg",
        "links": [],
        "cross_references": []
      },
      "explanatory_notes": {
        "original_name": "Explanatory Notes",
        "value": "The Guide in the Emergency Response Guidebook is for \"Dichloropropenes.\" VP from ChemIDplus;",
        "links": [],
        "cross_references": []
      },
      "nfpa": {
        "original_name": "NFPA",
        "value": "may ignite at ambient temp",
        "links": [],
        "cross_references": []
      }
    },
    "adverse_effects": {
      "lachrymator": {
        "original_name": "Lachrymator",
        "value": "Yes",
        "links": [],
        "cross_references": []
      },
      "neurotoxin": {
        "original_name": "Neurotoxin",
        "value": "Acute solvent syndrome",
        "links": [],
        "cross_references": []
      },
      "hepatotoxin": {
        "original_name": "Hepatotoxin",
        "value": "Hepatoxic (a) from occupational exposure (secondary effect) or (b) in animal studies or in humans after ingestion",
        "links": [],
        "cross_references": []
      },
      "nephrotoxin": {
        "original_name": "Nephrotoxin",
        "value": "Yes",
        "links": [],
        "cross_references": []
      },
      "dermatotoxin": {
        "original_name": "Dermatotoxin",
        "value": "Skin burns",
        "links": [],
        "cross_references": [
          {
            "type": "name_match",
            "text": "burn",
            "confidence": 1.0,
            "uuid": "63665de5-6376-4918-8dbf-4c10c4d63837",
            "name": "burn",
            "url": "https://haz-map.com/Findings/204",
            "category": "findings"
          }
        ]
      }
    },
    "diseases_processes_and_activities_linked_to_this_agent": {
      "diseases": {
        "original_name": "Diseases",
        "value": "Occupational diseases associated with exposure to this agent: Solvents, acute toxic effect",
        "links": [
          {
            "text": "Solvents, acute toxic effect",
            "url": "https://haz-map.com/Diseases/326"
          }
        ],
        "cross_references": [
          {
            "type": "url_match",
            "text": "Solvents, acute toxic effect",
            "url": "https://haz-map.com/Diseases/326",
            "confidence": 1.0,
            "uuid": "581e90e3-9d0c-45f0-aa6c-3468c28da129",
            "name": "Solvents, acute toxic effect",
            "category": "diseases"
          }
        ]
      },
      "processes": {
        "original_name": "Processes",
        "value": "Industrial Processes with risk of exposure: Farming (Pesticides)",
        "links": [
          {
            "text": "Farming (Pesticides)",
            "url": "https://haz-map.com/Processes/218"
          }
        ],
        "cross_references": [
          {
            "type": "url_match",
            "text": "Farming (Pesticides)",
            "url": "https://haz-map.com/Processes/218",
            "confidence": 1.0,
            "uuid": "cf1e5815-c9bb-4917-82a5-391848170b7e",
            "name": "Farming (Pesticides)",
            "category": "processes"
          }
        ]
      }
    }
  },
  "cross_references": [
    {
      "type": "url_match",
      "text": "Solvents, acute toxic effect",
      "url": "https://haz-map.com/Diseases/326",
      "confidence": 1.0,
      "uuid": "581e90e3-9d0c-45f0-aa6c-3468c28da129",
      "name": "Solvents, acute toxic effect",
      "category": "diseases"
    },
    {
      "type": "url_match",
      "text": "Farming (Pesticides)",
      "url": "https://haz-map.com/Processes/218",
      "confidence": 1.0,
      "uuid": "cf1e5815-c9bb-4917-82a5-391848170b7e",
      "name": "Farming (Pesticides)",
      "category": "processes"
    },
    {
      "type": "name_match",
      "text": "lacrimation",
      "confidence": 1.0,
      "uuid": "392ff8e7-90fa-4d6d-8f67-3e49d053ffac",
      "name": "lacrimation",
      "url": "https://haz-map.com/Findings/199",
      "category": "findings"
    },
    {
      "type": "name_match",
      "text": "burn",
      "confidence": 1.0,
      "uuid": "63665de5-6376-4918-8dbf-4c10c4d63837",
      "name": "burn",
      "url": "https://haz-map.com/Findings/204",
      "category": "findings"
    },
    {
      "type": "name_match",
      "text": "chloroform",
      "confidence": 1.0,
      "uuid": "c05794fb-7374-465e-8219-dc071fdda4a7",
      "name": "Chloroform",
      "url": "https://haz-map.com/Agents/53",
      "category": "agents"
    },
    {
      "type": "name_match",
      "text": "allyl chloride",
      "confidence": 1.0,
      "uuid": "159ace2f-3188-475b-894e-f4ce12bc235b",
      "name": "Allyl chloride",
      "url": "https://haz-map.com/Agents/284",
      "category": "agents"
    },
    {
      "type": "name_match",
      "text": "1,3-dichloropropene",
      "confidence": 1.0,
      "uuid": "e140b45a-f881-4030-863e-0370336b43d7",
      "name": "1,3-Dichloropropene",
      "url": "https://haz-map.com/Agents/404",
      "category": "agents"
    },
    {
      "type": "name_match",
      "text": "fumigants",
      "confidence": 1.0,
      "uuid": "01ad5510-2dbd-4a10-8a54-0defa348e7db",
      "name": "FUMIGANTS",
      "url": "https://haz-map.com/Agents/707",
      "category": "agents"
    },
    {
      "type": "name_match",
      "text": "propylene",
      "confidence": 1.0,
      "uuid": "78ac73a1-0029-4a50-b283-561134c72041",
      "name": "Propylene",
      "url": "https://haz-map.com/Agents/1078",
      "category": "agents"
    },
    {
      "type": "name_match",
      "text": "dichloropropene, all isomers",
      "confidence": 1.0,
      "uuid": "e4769837-cc80-4958-984b-985c33810056",
      "name": "Dichloropropene, all isomers",
      "url": "https://haz-map.com/Agents/4790",
      "category": "agents"
    },
    {
      "type": "name_match",
      "text": "trans-1,3-dichloropropene",
      "confidence": 1.0,
      "uuid": "c6e05010-d5de-49e3-9ba2-7eac949320c1",
      "name": "trans-1,3-Dichloropropene",
      "url": "https://haz-map.com/Agents/7480",
      "category": "agents"
    },
    {
      "type": "fuzzy_match",
      "text": "3-dichloro-1-propene",
      "matched_name": "2,3-Dichloro-1-propene",
      "confidence": 0.8878787878787879,
      "uuid": "4f4d798c-cf6d-4827-8644-298663ab5749",
      "category": "agents",
      "url": "https://haz-map.com/Agents/2635"
    }
  ],
  "all_links": [
    {
      "text": "ATSDR - ToxFAQs: Dichloropropenes",
      "url": "http://www.atsdr.cdc.gov/toxfaqs/tf.asp?id=835&tid=163"
    },
    {
      "text": "Search PubMed",
      "url": "https://www.ncbi.nlm.nih.gov/pubmed?term=trans-1%2c3-Dichloropropene%20AND%20human%5Bmh%5D%20AND%20%28Occupational%20Diseases%20%5Bmh%5D%20OR%20Occupational%20Exposure%20%5Bmh%5D%29%20%20AND%20%28tox%5Bsb%5D%29&cmd=search"
    },
    {
      "text": "Solvents, acute toxic effect",
      "url": "https://haz-map.com/Diseases/326"
    },
    {
      "text": "Farming (Pesticides)",
      "url": "https://haz-map.com/Processes/218"
    }
  ]
}