{
  "metadata": {
    "scraped_from": "https://haz-map.com/Agents/21095",
    "entity_name": "(-)-Bornyl acetate",
    "category": "agents",
    "uuid": "c70a1a9a-8739-4144-9c2e-f011919951f9",
    "scraped_at": "2025-07-23T22:37:26.854369"
  },
  "parsed_at": "2025-07-24T01:16:05.047952",
  "title": "(-)-Bornyl acetate",
  "sections": {
    "general": {
      "agent_name": {
        "original_name": "Agent Name",
        "value": "(-)-Bornyl acetate",
        "links": [],
        "cross_references": [
          {
            "type": "name_match",
            "text": "(-)-bornyl acetate",
            "confidence": 1.0,
            "uuid": "c70a1a9a-8739-4144-9c2e-f011919951f9",
            "name": "(-)-Bornyl acetate",
            "url": "https://haz-map.com/Agents/21095",
            "category": "agents"
          }
        ]
      },
      "cas_number": {
        "original_name": "CAS Number",
        "value": "5655-61-8",
        "links": [],
        "cross_references": []
      },
      "formula": {
        "original_name": "Formula",
        "value": "C12-H20-O2",
        "links": [],
        "cross_references": []
      },
      "major_category": {
        "original_name": "Major Category",
        "value": "Other Classes",
        "links": [],
        "cross_references": []
      },
      "synonyms": {
        "original_name": "Synonyms",
        "value": "Bornyl acetate, (-)-; Bicyclo(2.2.1)heptan-2-ol, 1,7,7-trimethyl-, 2-acetate, (1S,2R,4S)-; Bicyclo(2.2.1)heptan-2-ol, 1,7,7-trimethyl-, acetate, (1S,2R,4S)-; L-Born-2-yl acetate; [ChemIDplus] l-Bornyl acetate; (1S,2R,4S)-Bornyl acetate; [Merck Index] (1S-endo)-1,7,7-Trimethylbicyclo[2.2.1]heptan-2-ol acetate; [EFSA] laevo-Bornyl acetate; [Good Scents MSDS]",
        "links": [],
        "cross_references": [
          {
            "type": "fuzzy_match",
            "text": "bornyl acetate",
            "matched_name": "(-)-Bornyl acetate",
            "confidence": 0.7817460317460317,
            "uuid": "c70a1a9a-8739-4144-9c2e-f011919951f9",
            "category": "agents",
            "url": "https://haz-map.com/Agents/21095"
          }
        ]
      },
      "category": {
        "original_name": "Category",
        "value": "Esters, Other",
        "links": [],
        "cross_references": []
      },
      "description": {
        "original_name": "Description",
        "value": "Solid; mp = 24 or 27 deg C; [Merck Index] Colorless or white clear liquid or crystals with a sweet, woody, fresh pine needle odor; mp = 27-29 deg C; [Good Scents MSDS]",
        "links": [],
        "cross_references": []
      },
      "sourcesuses": {
        "original_name": "Sources/Uses",
        "value": "Naturally occurring bornyl acetate--occurs in the essential oils of some plants; Used in fragrances and flavors; [Merck Index] Used as a flavoring agent; [FDA]",
        "links": [],
        "cross_references": [
          {
            "type": "fuzzy_match",
            "text": "bornyl acetate",
            "matched_name": "(-)-Bornyl acetate",
            "confidence": 0.7817460317460317,
            "uuid": "c70a1a9a-8739-4144-9c2e-f011919951f9",
            "category": "agents",
            "url": "https://haz-map.com/Agents/21095"
          }
        ]
      },
      "comments": {
        "original_name": "Comments",
        "value": "Safe when used as a flavoring agent in food; [EFSA] An irritant; [Good Scents MSDS] See \"Borneol.\"",
        "links": [],
        "cross_references": [
          {
            "type": "name_match",
            "text": "borneol",
            "confidence": 1.0,
            "uuid": "97282e41-118b-4373-9621-d9d230e06c38",
            "name": "Borneol",
            "url": "https://haz-map.com/Agents/3979",
            "category": "agents"
          }
        ]
      },
      "biomedical_references": {
        "original_name": "Biomedical References",
        "value": "Search PubMed",
        "links": [
          {
            "text": "Search PubMed",
            "url": "https://www.ncbi.nlm.nih.gov/pubmed?term=(-)-Bornyl+acetate%20AND%20human%5Bmh%5D%20AND%20%28Occupational%20Diseases%20%5Bmh%5D%20OR%20Occupational%20Exposure%20%5Bmh%5D%29%20%20AND%20%28tox%5Bsb%5D%29&cmd=search"
          }
        ],
        "cross_references": []
      }
    },
    "exposure_assessment": {
      "vapor_pressure": {
        "original_name": "Vapor Pressure",
        "value": "0.6 mm Hg",
        "links": [],
        "cross_references": []
      }
    },
    "diseases_processes_and_activities_linked_to_this_agent": {
      "other_information": {
        "original_name": "Other Information",
        "value": "No other related information on this agent was found.",
        "links": [],
        "cross_references": []
      }
    }
  },
  "cross_references": [
    {
      "type": "name_match",
      "text": "borneol",
      "confidence": 1.0,
      "uuid": "97282e41-118b-4373-9621-d9d230e06c38",
      "name": "Borneol",
      "url": "https://haz-map.com/Agents/3979",
      "category": "agents"
    },
    {
      "type": "name_match",
      "text": "(-)-bornyl acetate",
      "confidence": 1.0,
      "uuid": "c70a1a9a-8739-4144-9c2e-f011919951f9",
      "name": "(-)-Bornyl acetate",
      "url": "https://haz-map.com/Agents/21095",
      "category": "agents"
    }
  ],
  "all_links": [
    {
      "text": "Search PubMed",
      "url": "https://www.ncbi.nlm.nih.gov/pubmed?term=(-)-Bornyl+acetate%20AND%20human%5Bmh%5D%20AND%20%28Occupational%20Diseases%20%5Bmh%5D%20OR%20Occupational%20Exposure%20%5Bmh%5D%29%20%20AND%20%28tox%5Bsb%5D%29&cmd=search"
    }
  ]
}