{
  "metadata": {
    "scraped_from": "https://haz-map.com/Agents/8539",
    "entity_name": "Cyclobutanone",
    "category": "agents",
    "uuid": "c71df360-5800-473d-b442-98717de1983e",
    "scraped_at": "2025-07-23T20:28:32.327465"
  },
  "parsed_at": "2025-07-24T00:53:01.062096",
  "title": "Cyclobutanone",
  "sections": {
    "general": {
      "agent_name": {
        "original_name": "Agent Name",
        "value": "Cyclobutanone",
        "links": [],
        "cross_references": [
          {
            "type": "name_match",
            "text": "cyclobutanone",
            "confidence": 1.0,
            "uuid": "c71df360-5800-473d-b442-98717de1983e",
            "name": "Cyclobutanone",
            "url": "https://haz-map.com/Agents/8539",
            "category": "agents"
          }
        ]
      },
      "cas_number": {
        "original_name": "CAS Number",
        "value": "1191-95-3",
        "links": [],
        "cross_references": []
      },
      "formula": {
        "original_name": "Formula",
        "value": "C4-H6-O",
        "links": [],
        "cross_references": []
      },
      "major_category": {
        "original_name": "Major Category",
        "value": "Solvents",
        "links": [],
        "cross_references": []
      },
      "synonyms": {
        "original_name": "Synonyms",
        "value": "UN1224",
        "links": [],
        "cross_references": []
      },
      "category": {
        "original_name": "Category",
        "value": "Ketones (<C12)",
        "links": [],
        "cross_references": []
      },
      "description": {
        "original_name": "Description",
        "value": "Colorless liquid; [MSDSonline]",
        "links": [],
        "cross_references": []
      },
      "comments": {
        "original_name": "Comments",
        "value": "May cause irritation; [MSDSonline] See \"Cyclohexanone\" and \"Cyclopentanone.\"",
        "links": [],
        "cross_references": [
          {
            "type": "name_match",
            "text": "cyclohexanone",
            "confidence": 1.0,
            "uuid": "cadadacc-fd16-4dd4-9b2c-b1d70f77d75e",
            "name": "Cyclohexanone",
            "url": "https://haz-map.com/Agents/139",
            "category": "agents"
          },
          {
            "type": "name_match",
            "text": "cyclopentanone",
            "confidence": 1.0,
            "uuid": "f22be935-5e85-4d01-b445-c021e74d004b",
            "name": "Cyclopentanone",
            "url": "https://haz-map.com/Agents/4606",
            "category": "agents"
          }
        ]
      },
      "biomedical_references": {
        "original_name": "Biomedical References",
        "value": "Search PubMed",
        "links": [
          {
            "text": "Search PubMed",
            "url": "https://www.ncbi.nlm.nih.gov/pubmed?term=Cyclobutanone%20AND%20human%5Bmh%5D%20AND%20%28Occupational%20Diseases%20%5Bmh%5D%20OR%20Occupational%20Exposure%20%5Bmh%5D%29%20%20AND%20%28tox%5Bsb%5D%29&cmd=search"
          }
        ],
        "cross_references": []
      }
    },
    "exposure_assessment": {
      "vapor_pressure": {
        "original_name": "Vapor Pressure",
        "value": "43 mm Hg",
        "links": [],
        "cross_references": []
      },
      "explanatory_notes": {
        "original_name": "Explanatory Notes",
        "value": "The Guide in the Emergency Response Guidebook is for \"Ketones, liquid, n.o.s.\" VP from ChemIDplus;",
        "links": [],
        "cross_references": []
      }
    },
    "adverse_effects": {
      "neurotoxin": {
        "original_name": "Neurotoxin",
        "value": "Acute solvent syndrome",
        "links": [],
        "cross_references": []
      }
    },
    "diseases_processes_and_activities_linked_to_this_agent": {
      "diseases": {
        "original_name": "Diseases",
        "value": "Occupational diseases associated with exposure to this agent: Solvents, acute toxic effect",
        "links": [
          {
            "text": "Solvents, acute toxic effect",
            "url": "https://haz-map.com/Diseases/326"
          }
        ],
        "cross_references": [
          {
            "type": "url_match",
            "text": "Solvents, acute toxic effect",
            "url": "https://haz-map.com/Diseases/326",
            "confidence": 1.0,
            "uuid": "581e90e3-9d0c-45f0-aa6c-3468c28da129",
            "name": "Solvents, acute toxic effect",
            "category": "diseases"
          }
        ]
      }
    }
  },
  "cross_references": [
    {
      "type": "url_match",
      "text": "Solvents, acute toxic effect",
      "url": "https://haz-map.com/Diseases/326",
      "confidence": 1.0,
      "uuid": "581e90e3-9d0c-45f0-aa6c-3468c28da129",
      "name": "Solvents, acute toxic effect",
      "category": "diseases"
    },
    {
      "type": "name_match",
      "text": "cyclohexanone",
      "confidence": 1.0,
      "uuid": "cadadacc-fd16-4dd4-9b2c-b1d70f77d75e",
      "name": "Cyclohexanone",
      "url": "https://haz-map.com/Agents/139",
      "category": "agents"
    },
    {
      "type": "name_match",
      "text": "cyclopentanone",
      "confidence": 1.0,
      "uuid": "f22be935-5e85-4d01-b445-c021e74d004b",
      "name": "Cyclopentanone",
      "url": "https://haz-map.com/Agents/4606",
      "category": "agents"
    },
    {
      "type": "name_match",
      "text": "cyclobutanone",
      "confidence": 1.0,
      "uuid": "c71df360-5800-473d-b442-98717de1983e",
      "name": "Cyclobutanone",
      "url": "https://haz-map.com/Agents/8539",
      "category": "agents"
    }
  ],
  "all_links": [
    {
      "text": "Search PubMed",
      "url": "https://www.ncbi.nlm.nih.gov/pubmed?term=Cyclobutanone%20AND%20human%5Bmh%5D%20AND%20%28Occupational%20Diseases%20%5Bmh%5D%20OR%20Occupational%20Exposure%20%5Bmh%5D%29%20%20AND%20%28tox%5Bsb%5D%29&cmd=search"
    },
    {
      "text": "Solvents, acute toxic effect",
      "url": "https://haz-map.com/Diseases/326"
    }
  ]
}