{
  "metadata": {
    "scraped_from": "https://haz-map.com/Agents/2916",
    "entity_name": "1-Octanol",
    "category": "agents",
    "uuid": "c73abd5d-2b7c-4354-92c8-91ab1b01d982",
    "scraped_at": "2025-07-23T19:20:55.809422"
  },
  "parsed_at": "2025-07-24T00:58:10.706460",
  "title": "1-Octanol",
  "sections": {
    "general": {
      "agent_name": {
        "original_name": "Agent Name",
        "value": "1-Octanol",
        "links": [],
        "cross_references": [
          {
            "type": "name_match",
            "text": "1-octanol",
            "confidence": 1.0,
            "uuid": "c73abd5d-2b7c-4354-92c8-91ab1b01d982",
            "name": "1-Octanol",
            "url": "https://haz-map.com/Agents/2916",
            "category": "agents"
          }
        ]
      },
      "cas_number": {
        "original_name": "CAS Number",
        "value": "111-87-5",
        "links": [],
        "cross_references": []
      },
      "formula": {
        "original_name": "Formula",
        "value": "C8-H18-O",
        "links": [],
        "cross_references": []
      },
      "major_category": {
        "original_name": "Major Category",
        "value": "Solvents",
        "links": [],
        "cross_references": []
      },
      "synonyms": {
        "original_name": "Synonyms",
        "value": "1-Hydroxyoctane; Alcohol C-8; Alfol 8; C8 alcohol; Caprylic alcohol; Dytol M-83; EPAL 8; Fatty alcohol(C8); Heptyl carbinol; Lorol 20; Octanol; Octilin; Octyl alcohol (natural); Octyl alcohol, normal-primary; Octyl alcohol, primary; Primary octyl alcohol; Sipol L8; n-Caprylic alcohol; n-Octan-1-ol; n-Octanol; n-Octyl alcohol; [ChemIDplus] UN1993",
        "links": [],
        "cross_references": [
          {
            "type": "name_match",
            "text": "octane",
            "confidence": 1.0,
            "uuid": "feb2932c-69c5-4142-b6b6-bde017998940",
            "name": "Octane",
            "url": "https://haz-map.com/Agents/106",
            "category": "agents"
          }
        ]
      },
      "category": {
        "original_name": "Category",
        "value": "Alcohols (<C12)",
        "links": [],
        "cross_references": []
      },
      "description": {
        "original_name": "Description",
        "value": "Colorless liquid with a rose-like or lemon-like odor; [AIHA]",
        "links": [],
        "cross_references": []
      },
      "sourcesuses": {
        "original_name": "Sources/Uses",
        "value": "Used in perfumery, cosmetics, shampoos, emulsifiers, detergents, and food flavors; Also used as a solvent (esters, coatings, lacquers, printing inks, textile additives, and pesticides), citric acid extractant, frothing agent, antifoaming agent in drilling muds, and growth inhibitor in tobacco production; [HSDB]",
        "links": [],
        "cross_references": [
          {
            "type": "name_match",
            "text": "citric acid",
            "confidence": 1.0,
            "uuid": "13f2d590-365a-4d84-9496-41fb4b91c714",
            "name": "Citric acid",
            "url": "https://haz-map.com/Agents/2025",
            "category": "agents"
          }
        ]
      },
      "comments": {
        "original_name": "Comments",
        "value": "A skin and eye irritant; [CAMEO] Inhalation of high concentrations can cause CNS depression; [CHEMINFO] An eye and respiratory tract irritant; A mild skin irritant; [ICSC] An irritant; May cause CNS depression; Targets kidneys, nerves, and liver; [MSDSonline]",
        "links": [],
        "cross_references": []
      },
      "biomedical_references": {
        "original_name": "Biomedical References",
        "value": "Search PubMed",
        "links": [
          {
            "text": "Search PubMed",
            "url": "https://www.ncbi.nlm.nih.gov/pubmed?term=1-Octanol%20AND%20human%5Bmh%5D%20AND%20%28Occupational%20Diseases%20%5Bmh%5D%20OR%20Occupational%20Exposure%20%5Bmh%5D%29%20%20AND%20%28tox%5Bsb%5D%29&cmd=search"
          }
        ],
        "cross_references": []
      }
    },
    "exposure_assessment": {
      "mak": {
        "original_name": "MAK",
        "value": "10 ppm",
        "links": [],
        "cross_references": []
      },
      "vapor_pressure": {
        "original_name": "Vapor Pressure",
        "value": "0.0794 mm Hg",
        "links": [],
        "cross_references": []
      },
      "lethal_concentration": {
        "original_name": "Lethal Concentration",
        "value": "LCLo (rat) = 5,600 mg/m3/4h",
        "links": [],
        "cross_references": []
      },
      "explanatory_notes": {
        "original_name": "Explanatory Notes",
        "value": "Flash point = 81.1 deg C; [Hawley] Odor threshold low = 0.69 mg/m3; High = 0.69 mg/m3; [HSDB] The Guide in the Emergency Response Guidebook is for \"Combustible liquid, n.o.s.\" VP from ChemIDplus;",
        "links": [],
        "cross_references": [
          {
            "type": "name_match",
            "text": "ash",
            "confidence": 1.0,
            "uuid": "68b360f1-5ad0-4337-bea0-d7adca2961b5",
            "name": "Ash",
            "url": "https://haz-map.com/Agents/965",
            "category": "agents"
          }
        ]
      },
      "nfpa": {
        "original_name": "NFPA",
        "value": "high ambient temp required",
        "links": [],
        "cross_references": []
      },
      "erpg1": {
        "original_name": "ERPG-1",
        "value": "5 ppm",
        "links": [],
        "cross_references": []
      },
      "erpg2": {
        "original_name": "ERPG-2",
        "value": "20 ppm",
        "links": [],
        "cross_references": []
      },
      "erpg3": {
        "original_name": "ERPG-3",
        "value": "150 ppm",
        "links": [],
        "cross_references": []
      },
      "weel": {
        "original_name": "WEEL",
        "value": "50 ppm",
        "links": [],
        "cross_references": []
      }
    },
    "adverse_effects": {
      "neurotoxin": {
        "original_name": "Neurotoxin",
        "value": "Acute solvent syndrome",
        "links": [],
        "cross_references": []
      },
      "hepatotoxin": {
        "original_name": "Hepatotoxin",
        "value": "Hepatoxic (a) from occupational exposure (secondary effect) or (b) in animal studies or in humans after ingestion",
        "links": [],
        "cross_references": []
      }
    },
    "diseases_processes_and_activities_linked_to_this_agent": {
      "diseases": {
        "original_name": "Diseases",
        "value": "Occupational diseases associated with exposure to this agent: Solvents, acute toxic effect",
        "links": [
          {
            "text": "Solvents, acute toxic effect",
            "url": "https://haz-map.com/Diseases/326"
          }
        ],
        "cross_references": [
          {
            "type": "url_match",
            "text": "Solvents, acute toxic effect",
            "url": "https://haz-map.com/Diseases/326",
            "confidence": 1.0,
            "uuid": "581e90e3-9d0c-45f0-aa6c-3468c28da129",
            "name": "Solvents, acute toxic effect",
            "category": "diseases"
          }
        ]
      }
    }
  },
  "cross_references": [
    {
      "type": "url_match",
      "text": "Solvents, acute toxic effect",
      "url": "https://haz-map.com/Diseases/326",
      "confidence": 1.0,
      "uuid": "581e90e3-9d0c-45f0-aa6c-3468c28da129",
      "name": "Solvents, acute toxic effect",
      "category": "diseases"
    },
    {
      "type": "name_match",
      "text": "octane",
      "confidence": 1.0,
      "uuid": "feb2932c-69c5-4142-b6b6-bde017998940",
      "name": "Octane",
      "url": "https://haz-map.com/Agents/106",
      "category": "agents"
    },
    {
      "type": "name_match",
      "text": "ash",
      "confidence": 1.0,
      "uuid": "68b360f1-5ad0-4337-bea0-d7adca2961b5",
      "name": "Ash",
      "url": "https://haz-map.com/Agents/965",
      "category": "agents"
    },
    {
      "type": "name_match",
      "text": "citric acid",
      "confidence": 1.0,
      "uuid": "13f2d590-365a-4d84-9496-41fb4b91c714",
      "name": "Citric acid",
      "url": "https://haz-map.com/Agents/2025",
      "category": "agents"
    },
    {
      "type": "name_match",
      "text": "1-octanol",
      "confidence": 1.0,
      "uuid": "c73abd5d-2b7c-4354-92c8-91ab1b01d982",
      "name": "1-Octanol",
      "url": "https://haz-map.com/Agents/2916",
      "category": "agents"
    }
  ],
  "all_links": [
    {
      "text": "Search PubMed",
      "url": "https://www.ncbi.nlm.nih.gov/pubmed?term=1-Octanol%20AND%20human%5Bmh%5D%20AND%20%28Occupational%20Diseases%20%5Bmh%5D%20OR%20Occupational%20Exposure%20%5Bmh%5D%29%20%20AND%20%28tox%5Bsb%5D%29&cmd=search"
    },
    {
      "text": "Solvents, acute toxic effect",
      "url": "https://haz-map.com/Diseases/326"
    }
  ]
}