{
  "metadata": {
    "scraped_from": "https://haz-map.com/Agents/21407",
    "entity_name": "2-Vanillin",
    "category": "agents",
    "uuid": "c762ba14-f23d-409e-9db7-c00bad26b7f7",
    "scraped_at": "2025-07-23T22:43:24.020992"
  },
  "parsed_at": "2025-07-24T00:50:56.964378",
  "title": "2-Vanillin",
  "sections": {
    "general": {
      "agent_name": {
        "original_name": "Agent Name",
        "value": "2-Vanillin",
        "links": [],
        "cross_references": [
          {
            "type": "name_match",
            "text": "vanillin",
            "confidence": 1.0,
            "uuid": "b18209ef-a08d-4dca-8b00-7907c33bb340",
            "name": "Vanillin",
            "url": "https://haz-map.com/Agents/18622",
            "category": "agents"
          },
          {
            "type": "name_match",
            "text": "2-vanillin",
            "confidence": 1.0,
            "uuid": "c762ba14-f23d-409e-9db7-c00bad26b7f7",
            "name": "2-Vanillin",
            "url": "https://haz-map.com/Agents/21407",
            "category": "agents"
          }
        ]
      },
      "cas_number": {
        "original_name": "CAS Number",
        "value": "148-53-8",
        "links": [],
        "cross_references": []
      },
      "formula": {
        "original_name": "Formula",
        "value": "C8-H8-O3",
        "links": [],
        "cross_references": []
      },
      "major_category": {
        "original_name": "Major Category",
        "value": "Biological Agents",
        "links": [],
        "cross_references": []
      },
      "synonyms": {
        "original_name": "Synonyms",
        "value": "2-Hydroxy-m-anisaldehyde; 3-Methoxy-2-hydroxybenzaldehyde; 3-Methoxysalicylaldehyde; 6-Formyl-2-methoxyphenol; 6-Formylguaiacol; o-Vanillin; o-Vanilline; Orthovanilline; Oxy-2 methoxy-3 benzaldehyde [French]; Benzaldehyde, 2-hydroxy-3-methoxy-; m-Anisaldehyde, 2-hydroxy- (8CI); [ChemIDplus]",
        "links": [],
        "cross_references": [
          {
            "type": "name_match",
            "text": "phenol",
            "confidence": 1.0,
            "uuid": "03141a03-a7df-4f51-9a37-adde1a7c4b31",
            "name": "Phenol",
            "url": "https://haz-map.com/Agents/84",
            "category": "agents"
          },
          {
            "type": "name_match",
            "text": "benzaldehyde",
            "confidence": 1.0,
            "uuid": "8546358a-fcfc-48f8-83d6-bf7adb438729",
            "name": "Benzaldehyde",
            "url": "https://haz-map.com/Agents/1884",
            "category": "agents"
          },
          {
            "type": "name_match",
            "text": "guaiac",
            "confidence": 1.0,
            "uuid": "121d7143-e460-418d-aee6-b4968271b421",
            "name": "Guaiac",
            "url": "https://haz-map.com/Agents/5470",
            "category": "agents"
          },
          {
            "type": "name_match",
            "text": "guaiacol",
            "confidence": 1.0,
            "uuid": "b09c0f2d-8789-4e66-bba9-b8c01e4aab62",
            "name": "Guaiacol",
            "url": "https://haz-map.com/Agents/6413",
            "category": "agents"
          },
          {
            "type": "name_match",
            "text": "salicylaldehyde",
            "confidence": 1.0,
            "uuid": "61c0cfdd-d600-47d8-8f57-b5cddff20633",
            "name": "Salicylaldehyde",
            "url": "https://haz-map.com/Agents/6989",
            "category": "agents"
          },
          {
            "type": "name_match",
            "text": "vanillin",
            "confidence": 1.0,
            "uuid": "b18209ef-a08d-4dca-8b00-7907c33bb340",
            "name": "Vanillin",
            "url": "https://haz-map.com/Agents/18622",
            "category": "agents"
          }
        ]
      },
      "category": {
        "original_name": "Category",
        "value": "Plant Oils and Extracts",
        "links": [],
        "cross_references": []
      },
      "description": {
        "original_name": "Description",
        "value": "Light yellow crystalline solid; [Sigma-Aldrich MSDS]",
        "links": [],
        "cross_references": [
          {
            "type": "name_match",
            "text": "ht",
            "confidence": 1.0,
            "uuid": "764df367-8d53-4a11-81a2-31ccfe122a8d",
            "name": "HT",
            "url": "https://haz-map.com/Agents/2168",
            "category": "agents"
          },
          {
            "type": "fuzzy_match",
            "text": "crystalline",
            "matched_name": "Silica, crystalline",
            "confidence": 0.7061403508771931,
            "uuid": "f920e8a2-46df-41b7-af8d-0368a777251e",
            "category": "agents",
            "url": "https://haz-map.com/Agents/427"
          }
        ]
      },
      "comments": {
        "original_name": "Comments",
        "value": "A mild eye irritant; Causes convulsions in intraperitoneal lethal-dose studies of guinea pigs and mice; [RTECS] A skin and strong eye irritant; Harmful by ingestion; [Sigma-Aldrich MSDS] See \"Vanillin.\"",
        "links": [],
        "cross_references": [
          {
            "type": "name_match",
            "text": "convulsion",
            "confidence": 1.0,
            "uuid": "af2c36f8-707a-48e3-a62b-1aa07adc9b72",
            "name": "convulsion",
            "url": "https://haz-map.com/Findings/14",
            "category": "findings"
          },
          {
            "type": "name_match",
            "text": "vanillin",
            "confidence": 1.0,
            "uuid": "b18209ef-a08d-4dca-8b00-7907c33bb340",
            "name": "Vanillin",
            "url": "https://haz-map.com/Agents/18622",
            "category": "agents"
          }
        ]
      },
      "biomedical_references": {
        "original_name": "Biomedical References",
        "value": "Search PubMed",
        "links": [
          {
            "text": "Search PubMed",
            "url": "https://www.ncbi.nlm.nih.gov/pubmed?term=2-Vanillin%20AND%20human%5Bmh%5D%20AND%20%28Occupational%20Diseases%20%5Bmh%5D%20OR%20Occupational%20Exposure%20%5Bmh%5D%29%20%20AND%20%28tox%5Bsb%5D%29&cmd=search"
          }
        ],
        "cross_references": []
      }
    },
    "exposure_assessment": {
      "vapor_pressure": {
        "original_name": "Vapor Pressure",
        "value": "0.00103 mm Hg",
        "links": [],
        "cross_references": []
      }
    },
    "diseases_processes_and_activities_linked_to_this_agent": {
      "other_information": {
        "original_name": "Other Information",
        "value": "No other related information on this agent was found.",
        "links": [],
        "cross_references": []
      }
    }
  },
  "cross_references": [
    {
      "type": "name_match",
      "text": "convulsion",
      "confidence": 1.0,
      "uuid": "af2c36f8-707a-48e3-a62b-1aa07adc9b72",
      "name": "convulsion",
      "url": "https://haz-map.com/Findings/14",
      "category": "findings"
    },
    {
      "type": "name_match",
      "text": "phenol",
      "confidence": 1.0,
      "uuid": "03141a03-a7df-4f51-9a37-adde1a7c4b31",
      "name": "Phenol",
      "url": "https://haz-map.com/Agents/84",
      "category": "agents"
    },
    {
      "type": "name_match",
      "text": "benzaldehyde",
      "confidence": 1.0,
      "uuid": "8546358a-fcfc-48f8-83d6-bf7adb438729",
      "name": "Benzaldehyde",
      "url": "https://haz-map.com/Agents/1884",
      "category": "agents"
    },
    {
      "type": "name_match",
      "text": "ht",
      "confidence": 1.0,
      "uuid": "764df367-8d53-4a11-81a2-31ccfe122a8d",
      "name": "HT",
      "url": "https://haz-map.com/Agents/2168",
      "category": "agents"
    },
    {
      "type": "name_match",
      "text": "guaiac",
      "confidence": 1.0,
      "uuid": "121d7143-e460-418d-aee6-b4968271b421",
      "name": "Guaiac",
      "url": "https://haz-map.com/Agents/5470",
      "category": "agents"
    },
    {
      "type": "name_match",
      "text": "guaiacol",
      "confidence": 1.0,
      "uuid": "b09c0f2d-8789-4e66-bba9-b8c01e4aab62",
      "name": "Guaiacol",
      "url": "https://haz-map.com/Agents/6413",
      "category": "agents"
    },
    {
      "type": "name_match",
      "text": "salicylaldehyde",
      "confidence": 1.0,
      "uuid": "61c0cfdd-d600-47d8-8f57-b5cddff20633",
      "name": "Salicylaldehyde",
      "url": "https://haz-map.com/Agents/6989",
      "category": "agents"
    },
    {
      "type": "name_match",
      "text": "vanillin",
      "confidence": 1.0,
      "uuid": "b18209ef-a08d-4dca-8b00-7907c33bb340",
      "name": "Vanillin",
      "url": "https://haz-map.com/Agents/18622",
      "category": "agents"
    },
    {
      "type": "name_match",
      "text": "2-vanillin",
      "confidence": 1.0,
      "uuid": "c762ba14-f23d-409e-9db7-c00bad26b7f7",
      "name": "2-Vanillin",
      "url": "https://haz-map.com/Agents/21407",
      "category": "agents"
    },
    {
      "type": "fuzzy_match",
      "text": "crystalline",
      "matched_name": "Silica, crystalline",
      "confidence": 0.7061403508771931,
      "uuid": "f920e8a2-46df-41b7-af8d-0368a777251e",
      "category": "agents",
      "url": "https://haz-map.com/Agents/427"
    }
  ],
  "all_links": [
    {
      "text": "Search PubMed",
      "url": "https://www.ncbi.nlm.nih.gov/pubmed?term=2-Vanillin%20AND%20human%5Bmh%5D%20AND%20%28Occupational%20Diseases%20%5Bmh%5D%20OR%20Occupational%20Exposure%20%5Bmh%5D%29%20%20AND%20%28tox%5Bsb%5D%29&cmd=search"
    }
  ]
}