{
  "metadata": {
    "scraped_from": "https://haz-map.com/Agents/13323",
    "entity_name": "Creatinine",
    "category": "agents",
    "uuid": "c7666d7f-1833-440d-aa4b-af286e0bdd66",
    "scraped_at": "2025-07-23T21:13:42.932801"
  },
  "parsed_at": "2025-07-24T00:59:09.548775",
  "title": "Creatinine",
  "sections": {
    "general": {
      "agent_name": {
        "original_name": "Agent Name",
        "value": "Creatinine",
        "links": [],
        "cross_references": [
          {
            "type": "name_match",
            "text": "creatinine",
            "confidence": 1.0,
            "uuid": "c7666d7f-1833-440d-aa4b-af286e0bdd66",
            "name": "Creatinine",
            "url": "https://haz-map.com/Agents/13323",
            "category": "agents"
          }
        ]
      },
      "cas_number": {
        "original_name": "CAS Number",
        "value": "60-27-5",
        "links": [],
        "cross_references": []
      },
      "formula": {
        "original_name": "Formula",
        "value": "C4-H7-N3-O",
        "links": [],
        "cross_references": []
      },
      "major_category": {
        "original_name": "Major Category",
        "value": "Biological Agents",
        "links": [],
        "cross_references": []
      },
      "synonyms": {
        "original_name": "Synonyms",
        "value": "2-Imino-1-methylimidazolidin-4-one; 4H-Imidazol-4-one, 2-amino-1,5-dihydro-1-methyl-; 1-Methylglycocyamidine; 1-Methylhydantoin-2-imide; Creatinine,heated; [ChemIDplus] 2-Amino-1,5-dihydro-1-methyl-4H-imidazol-4-one; 2-Amino-1-methyl-4-imidazolidinone; [Merck Index]",
        "links": [],
        "cross_references": [
          {
            "type": "name_match",
            "text": "creatinine",
            "confidence": 1.0,
            "uuid": "c7666d7f-1833-440d-aa4b-af286e0bdd66",
            "name": "Creatinine",
            "url": "https://haz-map.com/Agents/13323",
            "category": "agents"
          },
          {
            "type": "name_match",
            "text": "hydantoin",
            "confidence": 1.0,
            "uuid": "d6180823-0373-45ff-b5ac-d9034f17fb80",
            "name": "Hydantoin",
            "url": "https://haz-map.com/Agents/14779",
            "category": "agents"
          }
        ]
      },
      "category": {
        "original_name": "Category",
        "value": "Other Biomolecules",
        "links": [],
        "cross_references": []
      },
      "description": {
        "original_name": "Description",
        "value": "Solid; [Merck Index] White crystalline powder; [Alfa Aesar MSDS]",
        "links": [],
        "cross_references": [
          {
            "type": "fuzzy_match",
            "text": "crystalline",
            "matched_name": "Silica, crystalline",
            "confidence": 0.7061403508771931,
            "uuid": "f920e8a2-46df-41b7-af8d-0368a777251e",
            "category": "agents",
            "url": "https://haz-map.com/Agents/427"
          }
        ]
      },
      "sourcesuses": {
        "original_name": "Sources/Uses",
        "value": "Used as a bulking agent for freeze drying; [ChemIDplus] Final metabolic product of creatine that is found in all bodily fluids; Used in determination of renal function; [Merck Index] \"Creatinine is a breakdown product of creatine phosphate in muscle, and is usually produced at a fairly constant rate by the body (depending on muscle mass).\" [Wikipedia]",
        "links": [],
        "cross_references": [
          {
            "type": "name_match",
            "text": "creatine",
            "confidence": 1.0,
            "uuid": "be4f35ef-7f3a-4256-878f-d982256aaa85",
            "name": "Creatine",
            "url": "https://haz-map.com/Agents/13322",
            "category": "agents"
          },
          {
            "type": "name_match",
            "text": "creatinine",
            "confidence": 1.0,
            "uuid": "c7666d7f-1833-440d-aa4b-af286e0bdd66",
            "name": "Creatinine",
            "url": "https://haz-map.com/Agents/13323",
            "category": "agents"
          }
        ]
      },
      "comments": {
        "original_name": "Comments",
        "value": "A skin and strong eye irritant; [Alfa Aesar MSDS]",
        "links": [],
        "cross_references": []
      },
      "biomedical_references": {
        "original_name": "Biomedical References",
        "value": "Search PubMed",
        "links": [
          {
            "text": "Search PubMed",
            "url": "https://www.ncbi.nlm.nih.gov/pubmed?term=Creatinine%20AND%20human%5Bmh%5D%20AND%20%28Occupational%20Diseases%20%5Bmh%5D%20OR%20Occupational%20Exposure%20%5Bmh%5D%29%20%20AND%20%28tox%5Bsb%5D%29&cmd=search"
          }
        ],
        "cross_references": []
      }
    },
    "exposure_assessment": {
      "vapor_pressure": {
        "original_name": "Vapor Pressure",
        "value": "0.000217 mm Hg",
        "links": [],
        "cross_references": []
      }
    },
    "diseases_processes_and_activities_linked_to_this_agent": {
      "other_information": {
        "original_name": "Other Information",
        "value": "No other related information on this agent was found.",
        "links": [],
        "cross_references": []
      }
    }
  },
  "cross_references": [
    {
      "type": "name_match",
      "text": "creatine",
      "confidence": 1.0,
      "uuid": "be4f35ef-7f3a-4256-878f-d982256aaa85",
      "name": "Creatine",
      "url": "https://haz-map.com/Agents/13322",
      "category": "agents"
    },
    {
      "type": "name_match",
      "text": "creatinine",
      "confidence": 1.0,
      "uuid": "c7666d7f-1833-440d-aa4b-af286e0bdd66",
      "name": "Creatinine",
      "url": "https://haz-map.com/Agents/13323",
      "category": "agents"
    },
    {
      "type": "name_match",
      "text": "hydantoin",
      "confidence": 1.0,
      "uuid": "d6180823-0373-45ff-b5ac-d9034f17fb80",
      "name": "Hydantoin",
      "url": "https://haz-map.com/Agents/14779",
      "category": "agents"
    },
    {
      "type": "fuzzy_match",
      "text": "crystalline",
      "matched_name": "Silica, crystalline",
      "confidence": 0.7061403508771931,
      "uuid": "f920e8a2-46df-41b7-af8d-0368a777251e",
      "category": "agents",
      "url": "https://haz-map.com/Agents/427"
    }
  ],
  "all_links": [
    {
      "text": "Search PubMed",
      "url": "https://www.ncbi.nlm.nih.gov/pubmed?term=Creatinine%20AND%20human%5Bmh%5D%20AND%20%28Occupational%20Diseases%20%5Bmh%5D%20OR%20Occupational%20Exposure%20%5Bmh%5D%29%20%20AND%20%28tox%5Bsb%5D%29&cmd=search"
    }
  ]
}