{
  "metadata": {
    "scraped_from": "https://haz-map.com/Agents/6436",
    "entity_name": "Octinoxate",
    "category": "agents",
    "uuid": "c79636de-dae2-4aed-9a43-049871156100",
    "scraped_at": "2025-07-23T20:01:58.796852"
  },
  "parsed_at": "2025-07-24T01:14:48.956834",
  "title": "Octinoxate",
  "sections": {
    "general": {
      "agent_name": {
        "original_name": "Agent Name",
        "value": "Octinoxate",
        "links": [],
        "cross_references": [
          {
            "type": "name_match",
            "text": "octinoxate",
            "confidence": 1.0,
            "uuid": "c79636de-dae2-4aed-9a43-049871156100",
            "name": "Octinoxate",
            "url": "https://haz-map.com/Agents/6436",
            "category": "agents"
          }
        ]
      },
      "cas_number": {
        "original_name": "CAS Number",
        "value": "5466-77-3",
        "links": [],
        "cross_references": []
      },
      "formula": {
        "original_name": "Formula",
        "value": "C18-H26-O3",
        "links": [],
        "cross_references": []
      },
      "major_category": {
        "original_name": "Major Category",
        "value": "Other Uses",
        "links": [],
        "cross_references": []
      },
      "synonyms": {
        "original_name": "Synonyms",
        "value": "2-Ethylhexyl methoxycinnamate; 2-Ethylhexyl-4-methoxycinnamate; 3-(4-Methoxyphenyl)-2-propenoic acid, 2-ethylhexyl ester; Octyl methoxycinnamate; 2-Ethylhexyl p-methoxycinnamate; 2-Propenoic acid, 3-(4-methoxyphenyl)-, 2-ethylhexyl ester; Escalol; Neo Heliopan; Parsol MOX; [ChemIDplus]",
        "links": [],
        "cross_references": []
      },
      "category": {
        "original_name": "Category",
        "value": "Sunscreens",
        "links": [],
        "cross_references": [
          {
            "type": "name_match",
            "text": "sunscreens",
            "confidence": 1.0,
            "uuid": "7527d0ea-c1e0-4597-897e-e7f8794ae03b",
            "name": "SUNSCREENS",
            "url": "https://haz-map.com/Agents/1167",
            "category": "agents"
          }
        ]
      },
      "description": {
        "original_name": "Description",
        "value": "Colorless to pale yellow liquid; [CAMEO] Pale yellow liquid; [MSDSonline]",
        "links": [],
        "cross_references": []
      },
      "sourcesuses": {
        "original_name": "Sources/Uses",
        "value": "Used as ultraviolet sunscreen; [Merck Index]",
        "links": [],
        "cross_references": []
      },
      "comments": {
        "original_name": "Comments",
        "value": "May cause photoallergic contact dermatitis in certain individuals; [HSDB] It is patch tested at 7.5% concentration in petrolatum; It is a very low-level sensitizer: 1/108 patients tested photo-patch test positive; In another series, 1/280 and 1/280 tested positive for patch or photo patch, respectively; Octinoxate may be found in cosmetics, shampoos, and lip balms; [Marks, p. 219] May cause photosensitivity and irritation; [MSDSonline]",
        "links": [],
        "cross_references": [
          {
            "type": "name_match",
            "text": "dermatitis",
            "confidence": 1.0,
            "uuid": "fe9c05f2-b19f-4ceb-ac7a-ffb7d7a0cae0",
            "name": "dermatitis",
            "url": "https://haz-map.com/Findings/59",
            "category": "findings"
          },
          {
            "type": "name_match",
            "text": "octinoxate",
            "confidence": 1.0,
            "uuid": "c79636de-dae2-4aed-9a43-049871156100",
            "name": "Octinoxate",
            "url": "https://haz-map.com/Agents/6436",
            "category": "agents"
          },
          {
            "type": "name_match",
            "text": "petrolatum",
            "confidence": 1.0,
            "uuid": "3aa16d92-e402-405d-86f0-246be9009b2b",
            "name": "Petrolatum",
            "url": "https://haz-map.com/Agents/6605",
            "category": "agents"
          },
          {
            "type": "fuzzy_match",
            "text": "contact dermatitis",
            "matched_name": "Contact dermatitis, allergic",
            "confidence": 0.7214285714285715,
            "uuid": "c9499de0-9aa1-41bf-8753-cd5b28a63e29",
            "category": "diseases",
            "url": "https://haz-map.com/Diseases/18"
          }
        ]
      },
      "biomedical_references": {
        "original_name": "Biomedical References",
        "value": "Search PubMed",
        "links": [
          {
            "text": "Search PubMed",
            "url": "https://www.ncbi.nlm.nih.gov/pubmed?term=Octinoxate%20AND%20human%5Bmh%5D%20AND%20%28Occupational%20Diseases%20%5Bmh%5D%20OR%20Occupational%20Exposure%20%5Bmh%5D%29%20%20AND%20%28tox%5Bsb%5D%29&cmd=search"
          }
        ],
        "cross_references": []
      }
    },
    "exposure_assessment": {
      "vapor_pressure": {
        "original_name": "Vapor Pressure",
        "value": "1.4E-05 mm Hg",
        "links": [],
        "cross_references": []
      }
    },
    "adverse_effects": {
      "skin_sensitizer": {
        "original_name": "Skin Sensitizer",
        "value": "Yes",
        "links": [],
        "cross_references": []
      },
      "dermatotoxin": {
        "original_name": "Dermatotoxin",
        "value": "PACD (photoallergic contact dermatitis)",
        "links": [],
        "cross_references": [
          {
            "type": "name_match",
            "text": "dermatitis",
            "confidence": 1.0,
            "uuid": "fe9c05f2-b19f-4ceb-ac7a-ffb7d7a0cae0",
            "name": "dermatitis",
            "url": "https://haz-map.com/Findings/59",
            "category": "findings"
          },
          {
            "type": "fuzzy_match",
            "text": "contact dermatitis",
            "matched_name": "Contact dermatitis, allergic",
            "confidence": 0.7214285714285715,
            "uuid": "c9499de0-9aa1-41bf-8753-cd5b28a63e29",
            "category": "diseases",
            "url": "https://haz-map.com/Diseases/18"
          }
        ]
      }
    },
    "diseases_processes_and_activities_linked_to_this_agent": {
      "diseases": {
        "original_name": "Diseases",
        "value": "Occupational diseases associated with exposure to this agent: Contact dermatitis, allergic Contact dermatitis, photoallergic",
        "links": [
          {
            "text": "Contact dermatitis, allergic",
            "url": "https://haz-map.com/Diseases/18"
          },
          {
            "text": "Contact dermatitis, photoallergic",
            "url": "https://haz-map.com/Diseases/267"
          }
        ],
        "cross_references": [
          {
            "type": "url_match",
            "text": "Contact dermatitis, allergic",
            "url": "https://haz-map.com/Diseases/18",
            "confidence": 1.0,
            "uuid": "c9499de0-9aa1-41bf-8753-cd5b28a63e29",
            "name": "Contact dermatitis, allergic",
            "category": "diseases"
          },
          {
            "type": "url_match",
            "text": "Contact dermatitis, photoallergic",
            "url": "https://haz-map.com/Diseases/267",
            "confidence": 1.0,
            "uuid": "fdc85231-99c5-48ea-8f71-fbd9ad09e496",
            "name": "Contact dermatitis, photoallergic",
            "category": "diseases"
          },
          {
            "type": "name_match",
            "text": "dermatitis",
            "confidence": 1.0,
            "uuid": "fe9c05f2-b19f-4ceb-ac7a-ffb7d7a0cae0",
            "name": "dermatitis",
            "url": "https://haz-map.com/Findings/59",
            "category": "findings"
          }
        ]
      }
    }
  },
  "cross_references": [
    {
      "type": "url_match",
      "text": "Contact dermatitis, allergic",
      "url": "https://haz-map.com/Diseases/18",
      "confidence": 1.0,
      "uuid": "c9499de0-9aa1-41bf-8753-cd5b28a63e29",
      "name": "Contact dermatitis, allergic",
      "category": "diseases"
    },
    {
      "type": "url_match",
      "text": "Contact dermatitis, photoallergic",
      "url": "https://haz-map.com/Diseases/267",
      "confidence": 1.0,
      "uuid": "fdc85231-99c5-48ea-8f71-fbd9ad09e496",
      "name": "Contact dermatitis, photoallergic",
      "category": "diseases"
    },
    {
      "type": "name_match",
      "text": "dermatitis",
      "confidence": 1.0,
      "uuid": "fe9c05f2-b19f-4ceb-ac7a-ffb7d7a0cae0",
      "name": "dermatitis",
      "url": "https://haz-map.com/Findings/59",
      "category": "findings"
    },
    {
      "type": "name_match",
      "text": "sunscreens",
      "confidence": 1.0,
      "uuid": "7527d0ea-c1e0-4597-897e-e7f8794ae03b",
      "name": "SUNSCREENS",
      "url": "https://haz-map.com/Agents/1167",
      "category": "agents"
    },
    {
      "type": "name_match",
      "text": "octinoxate",
      "confidence": 1.0,
      "uuid": "c79636de-dae2-4aed-9a43-049871156100",
      "name": "Octinoxate",
      "url": "https://haz-map.com/Agents/6436",
      "category": "agents"
    },
    {
      "type": "name_match",
      "text": "petrolatum",
      "confidence": 1.0,
      "uuid": "3aa16d92-e402-405d-86f0-246be9009b2b",
      "name": "Petrolatum",
      "url": "https://haz-map.com/Agents/6605",
      "category": "agents"
    }
  ],
  "all_links": [
    {
      "text": "Search PubMed",
      "url": "https://www.ncbi.nlm.nih.gov/pubmed?term=Octinoxate%20AND%20human%5Bmh%5D%20AND%20%28Occupational%20Diseases%20%5Bmh%5D%20OR%20Occupational%20Exposure%20%5Bmh%5D%29%20%20AND%20%28tox%5Bsb%5D%29&cmd=search"
    },
    {
      "text": "Contact dermatitis, allergic",
      "url": "https://haz-map.com/Diseases/18"
    },
    {
      "text": "Contact dermatitis, photoallergic",
      "url": "https://haz-map.com/Diseases/267"
    }
  ]
}