{
  "metadata": {
    "scraped_from": "https://haz-map.com/Agents/21375",
    "entity_name": "2-Aminobenzhydrazide",
    "category": "agents",
    "uuid": "c7a9b98b-dea5-440e-8944-56ace30d6d5a",
    "scraped_at": "2025-07-23T22:42:47.919979"
  },
  "parsed_at": "2025-07-24T01:12:41.121642",
  "title": "2-Aminobenzhydrazide",
  "sections": {
    "general": {
      "agent_name": {
        "original_name": "Agent Name",
        "value": "2-Aminobenzhydrazide",
        "links": [],
        "cross_references": [
          {
            "type": "name_match",
            "text": "benzhydrazide",
            "confidence": 1.0,
            "uuid": "ea2f6d9c-ef94-4465-bbb0-59f692783671",
            "name": "Benzhydrazide",
            "url": "https://haz-map.com/Agents/3846",
            "category": "agents"
          },
          {
            "type": "name_match",
            "text": "2-aminobenzhydrazide",
            "confidence": 1.0,
            "uuid": "c7a9b98b-dea5-440e-8944-56ace30d6d5a",
            "name": "2-Aminobenzhydrazide",
            "url": "https://haz-map.com/Agents/21375",
            "category": "agents"
          }
        ]
      },
      "cas_number": {
        "original_name": "CAS Number",
        "value": "1904-58-1",
        "links": [],
        "cross_references": []
      },
      "formula": {
        "original_name": "Formula",
        "value": "C7-H9-N3-O",
        "links": [],
        "cross_references": []
      },
      "major_category": {
        "original_name": "Major Category",
        "value": "Nitrogen Compounds",
        "links": [],
        "cross_references": [
          {
            "type": "name_match",
            "text": "nitrogen",
            "confidence": 1.0,
            "uuid": "db5e90a9-06d2-45b9-8b81-f345a89b0bc0",
            "name": "Nitrogen",
            "url": "https://haz-map.com/Agents/1072",
            "category": "agents"
          }
        ]
      },
      "synonyms": {
        "original_name": "Synonyms",
        "value": "2-Aminobenzoic acid hydrazide; 2-Aminobenzoylhydrazine; Anthranilic acid hydrazide; Anthranilic hydrazide; Anthraniloyl hydrazide; Benzoic acid, 2-amino-, hydrazide; o-Aminobenzhydrazide; o-Aminobenzoic acid hydrazide; o-Aminobenzoic hydrazide; Anthranilohydrazide; [ChemIDplus]",
        "links": [],
        "cross_references": [
          {
            "type": "name_match",
            "text": "hydrazine",
            "confidence": 1.0,
            "uuid": "72217956-0601-43f2-9d74-0d90d38fd09d",
            "name": "Hydrazine",
            "url": "https://haz-map.com/Agents/55",
            "category": "agents"
          },
          {
            "type": "name_match",
            "text": "benzoic acid",
            "confidence": 1.0,
            "uuid": "d2c5d3be-d826-4f55-bc32-7b16821aef40",
            "name": "Benzoic acid",
            "url": "https://haz-map.com/Agents/1883",
            "category": "agents"
          },
          {
            "type": "name_match",
            "text": "anthranilic acid",
            "confidence": 1.0,
            "uuid": "8912c66e-c272-4ed8-9b29-b25a22d08647",
            "name": "Anthranilic acid",
            "url": "https://haz-map.com/Agents/3712",
            "category": "agents"
          },
          {
            "type": "name_match",
            "text": "benzhydrazide",
            "confidence": 1.0,
            "uuid": "ea2f6d9c-ef94-4465-bbb0-59f692783671",
            "name": "Benzhydrazide",
            "url": "https://haz-map.com/Agents/3846",
            "category": "agents"
          }
        ]
      },
      "category": {
        "original_name": "Category",
        "value": "Hydrazides",
        "links": [],
        "cross_references": [
          {
            "type": "name_match",
            "text": "azides",
            "confidence": 1.0,
            "uuid": "4b502973-6d9a-4097-9366-4ff373e92c85",
            "name": "AZIDES",
            "url": "https://haz-map.com/Agents/1948",
            "category": "agents"
          }
        ]
      },
      "description": {
        "original_name": "Description",
        "value": "Off-white crystalline powder; [Alfa Aesar MSDS]",
        "links": [],
        "cross_references": [
          {
            "type": "fuzzy_match",
            "text": "crystalline",
            "matched_name": "Silica, crystalline",
            "confidence": 0.7061403508771931,
            "uuid": "f920e8a2-46df-41b7-af8d-0368a777251e",
            "category": "agents",
            "url": "https://haz-map.com/Agents/427"
          }
        ]
      },
      "comments": {
        "original_name": "Comments",
        "value": "A skin and strong eye irritant; [Alfa Aesar MSDS] See \"Benzhydrazide.\"",
        "links": [],
        "cross_references": [
          {
            "type": "name_match",
            "text": "benzhydrazide",
            "confidence": 1.0,
            "uuid": "ea2f6d9c-ef94-4465-bbb0-59f692783671",
            "name": "Benzhydrazide",
            "url": "https://haz-map.com/Agents/3846",
            "category": "agents"
          }
        ]
      },
      "biomedical_references": {
        "original_name": "Biomedical References",
        "value": "Search PubMed",
        "links": [
          {
            "text": "Search PubMed",
            "url": "https://www.ncbi.nlm.nih.gov/pubmed?term=2-Aminobenzhydrazide%20AND%20human%5Bmh%5D%20AND%20%28Occupational%20Diseases%20%5Bmh%5D%20OR%20Occupational%20Exposure%20%5Bmh%5D%29%20%20AND%20%28tox%5Bsb%5D%29&cmd=search"
          }
        ],
        "cross_references": []
      }
    },
    "exposure_assessment": {
      "vapor_pressure": {
        "original_name": "Vapor Pressure",
        "value": "3.14E-06 mm Hg",
        "links": [],
        "cross_references": []
      }
    },
    "diseases_processes_and_activities_linked_to_this_agent": {
      "other_information": {
        "original_name": "Other Information",
        "value": "No other related information on this agent was found.",
        "links": [],
        "cross_references": []
      }
    }
  },
  "cross_references": [
    {
      "type": "name_match",
      "text": "hydrazine",
      "confidence": 1.0,
      "uuid": "72217956-0601-43f2-9d74-0d90d38fd09d",
      "name": "Hydrazine",
      "url": "https://haz-map.com/Agents/55",
      "category": "agents"
    },
    {
      "type": "name_match",
      "text": "nitrogen",
      "confidence": 1.0,
      "uuid": "db5e90a9-06d2-45b9-8b81-f345a89b0bc0",
      "name": "Nitrogen",
      "url": "https://haz-map.com/Agents/1072",
      "category": "agents"
    },
    {
      "type": "name_match",
      "text": "benzoic acid",
      "confidence": 1.0,
      "uuid": "d2c5d3be-d826-4f55-bc32-7b16821aef40",
      "name": "Benzoic acid",
      "url": "https://haz-map.com/Agents/1883",
      "category": "agents"
    },
    {
      "type": "name_match",
      "text": "azides",
      "confidence": 1.0,
      "uuid": "4b502973-6d9a-4097-9366-4ff373e92c85",
      "name": "AZIDES",
      "url": "https://haz-map.com/Agents/1948",
      "category": "agents"
    },
    {
      "type": "name_match",
      "text": "anthranilic acid",
      "confidence": 1.0,
      "uuid": "8912c66e-c272-4ed8-9b29-b25a22d08647",
      "name": "Anthranilic acid",
      "url": "https://haz-map.com/Agents/3712",
      "category": "agents"
    },
    {
      "type": "name_match",
      "text": "benzhydrazide",
      "confidence": 1.0,
      "uuid": "ea2f6d9c-ef94-4465-bbb0-59f692783671",
      "name": "Benzhydrazide",
      "url": "https://haz-map.com/Agents/3846",
      "category": "agents"
    },
    {
      "type": "name_match",
      "text": "2-aminobenzhydrazide",
      "confidence": 1.0,
      "uuid": "c7a9b98b-dea5-440e-8944-56ace30d6d5a",
      "name": "2-Aminobenzhydrazide",
      "url": "https://haz-map.com/Agents/21375",
      "category": "agents"
    },
    {
      "type": "fuzzy_match",
      "text": "crystalline",
      "matched_name": "Silica, crystalline",
      "confidence": 0.7061403508771931,
      "uuid": "f920e8a2-46df-41b7-af8d-0368a777251e",
      "category": "agents",
      "url": "https://haz-map.com/Agents/427"
    }
  ],
  "all_links": [
    {
      "text": "Search PubMed",
      "url": "https://www.ncbi.nlm.nih.gov/pubmed?term=2-Aminobenzhydrazide%20AND%20human%5Bmh%5D%20AND%20%28Occupational%20Diseases%20%5Bmh%5D%20OR%20Occupational%20Exposure%20%5Bmh%5D%29%20%20AND%20%28tox%5Bsb%5D%29&cmd=search"
    }
  ]
}