{
  "metadata": {
    "scraped_from": "https://haz-map.com/Agents/2985",
    "entity_name": "2,4,6-Collidine",
    "category": "agents",
    "uuid": "c7c684ec-c85f-4b33-8d9e-3173cf2f0887",
    "scraped_at": "2025-07-23T19:22:10.901703"
  },
  "parsed_at": "2025-07-24T00:53:49.977657",
  "title": "2,4,6-Collidine",
  "sections": {
    "general": {
      "agent_name": {
        "original_name": "Agent Name",
        "value": "2,4,6-Collidine",
        "links": [],
        "cross_references": [
          {
            "type": "name_match",
            "text": "2,4,6-collidine",
            "confidence": 1.0,
            "uuid": "c7c684ec-c85f-4b33-8d9e-3173cf2f0887",
            "name": "2,4,6-Collidine",
            "url": "https://haz-map.com/Agents/2985",
            "category": "agents"
          }
        ]
      },
      "cas_number": {
        "original_name": "CAS Number",
        "value": "108-75-8",
        "links": [],
        "cross_references": []
      },
      "formula": {
        "original_name": "Formula",
        "value": "C8-H11-N",
        "links": [],
        "cross_references": []
      },
      "major_category": {
        "original_name": "Major Category",
        "value": "Nitrogen Compounds",
        "links": [],
        "cross_references": [
          {
            "type": "name_match",
            "text": "nitrogen",
            "confidence": 1.0,
            "uuid": "db5e90a9-06d2-45b9-8b81-f345a89b0bc0",
            "name": "Nitrogen",
            "url": "https://haz-map.com/Agents/1072",
            "category": "agents"
          }
        ]
      },
      "synonyms": {
        "original_name": "Synonyms",
        "value": "gamma-Collidine; 2,4,6-Kollidin [Czech]; 2,4,6-Trimethylpyridine; Pyridine, 2,4,6-trimethyl-; alpha,gamma,alpha'-Collidine; s-Collidine; [ChemIDplus]",
        "links": [],
        "cross_references": [
          {
            "type": "name_match",
            "text": "pyridine",
            "confidence": 1.0,
            "uuid": "a2d916a4-844b-4df6-9be5-868b2b364d71",
            "name": "Pyridine",
            "url": "https://haz-map.com/Agents/616",
            "category": "agents"
          },
          {
            "type": "name_match",
            "text": "methylpyridine",
            "confidence": 1.0,
            "uuid": "4c8f8772-01ae-4de4-8af0-71733c0aaad4",
            "name": "Methylpyridine",
            "url": "https://haz-map.com/Agents/1496",
            "category": "agents"
          },
          {
            "type": "fuzzy_match",
            "text": "6-trimethylpyridine",
            "matched_name": "2,3,6-Trimethylpyridine",
            "confidence": 0.8192934782608696,
            "uuid": "c3714559-0483-428e-8de5-c99345b4971d",
            "category": "agents",
            "url": "https://haz-map.com/Agents/17025"
          }
        ]
      },
      "category": {
        "original_name": "Category",
        "value": "Pyridines",
        "links": [],
        "cross_references": [
          {
            "type": "name_match",
            "text": "pyridine",
            "confidence": 1.0,
            "uuid": "a2d916a4-844b-4df6-9be5-868b2b364d71",
            "name": "Pyridine",
            "url": "https://haz-map.com/Agents/616",
            "category": "agents"
          }
        ]
      },
      "description": {
        "original_name": "Description",
        "value": "Colorless liquid with an aromatic odor; [HSDB] Colorless liquid with an unpleasant odor; [Alfa Aesar MSDS]",
        "links": [],
        "cross_references": []
      },
      "sourcesuses": {
        "original_name": "Sources/Uses",
        "value": "Used as a chemical intermediate, dehydrohalogenation agent, tissue fixative for electron microscopy, and solvent for the manufacture of anthraquinones; [HSDB]",
        "links": [],
        "cross_references": [
          {
            "type": "name_match",
            "text": "quinone",
            "confidence": 1.0,
            "uuid": "d01e66c3-ad06-4707-8d42-3c6655001c1a",
            "name": "Quinone",
            "url": "https://haz-map.com/Agents/303",
            "category": "agents"
          },
          {
            "type": "name_match",
            "text": "mica",
            "confidence": 1.0,
            "uuid": "433f26f1-c399-4596-b179-ce3843cfd465",
            "name": "Mica",
            "url": "https://haz-map.com/Agents/621",
            "category": "agents"
          },
          {
            "type": "name_match",
            "text": "anthraquinone",
            "confidence": 1.0,
            "uuid": "953f43e3-2275-41f0-9f8e-f5764f83b717",
            "name": "Anthraquinone",
            "url": "https://haz-map.com/Agents/3713",
            "category": "agents"
          }
        ]
      },
      "comments": {
        "original_name": "Comments",
        "value": "Emergency treatment: \"Pyridine\"; Pyridine is an irritant that causes CNS depression after ingestion of 1/2 cup or inhalation of 6-12 ppm; It can cause liver and kidney injury; [HSDB] [HSDB] A skin and strong eye irritant; [Alfa Aesar MSDS] See \"Pyridine.\"",
        "links": [],
        "cross_references": [
          {
            "type": "name_match",
            "text": "pyridine",
            "confidence": 1.0,
            "uuid": "a2d916a4-844b-4df6-9be5-868b2b364d71",
            "name": "Pyridine",
            "url": "https://haz-map.com/Agents/616",
            "category": "agents"
          }
        ]
      },
      "biomedical_references": {
        "original_name": "Biomedical References",
        "value": "Search PubMed",
        "links": [
          {
            "text": "Search PubMed",
            "url": "https://www.ncbi.nlm.nih.gov/pubmed?term=2%2c4%2c6-Collidine%20AND%20human%5Bmh%5D%20AND%20%28Occupational%20Diseases%20%5Bmh%5D%20OR%20Occupational%20Exposure%20%5Bmh%5D%29%20%20AND%20%28tox%5Bsb%5D%29&cmd=search"
          }
        ],
        "cross_references": []
      }
    },
    "exposure_assessment": {
      "vapor_pressure": {
        "original_name": "Vapor Pressure",
        "value": "1.99 mm Hg",
        "links": [],
        "cross_references": []
      },
      "lethal_concentration": {
        "original_name": "Lethal Concentration",
        "value": "LCLo (rat) = 2,500 ppm/2h",
        "links": [],
        "cross_references": []
      },
      "explanatory_notes": {
        "original_name": "Explanatory Notes",
        "value": "Flash point = 58 deg C; [Merck Index] VP from ChemIDplus;",
        "links": [],
        "cross_references": [
          {
            "type": "name_match",
            "text": "ash",
            "confidence": 1.0,
            "uuid": "68b360f1-5ad0-4337-bea0-d7adca2961b5",
            "name": "Ash",
            "url": "https://haz-map.com/Agents/965",
            "category": "agents"
          }
        ]
      }
    },
    "adverse_effects": {
      "neurotoxin": {
        "original_name": "Neurotoxin",
        "value": "Other CNS neurotoxin",
        "links": [],
        "cross_references": []
      },
      "hepatotoxin": {
        "original_name": "Hepatotoxin",
        "value": "Hepatoxic (a) from occupational exposure (secondary effect) or (b) in animal studies or in humans after ingestion",
        "links": [],
        "cross_references": []
      }
    },
    "diseases_processes_and_activities_linked_to_this_agent": {
      "other_information": {
        "original_name": "Other Information",
        "value": "No other related information on this agent was found.",
        "links": [],
        "cross_references": []
      }
    }
  },
  "cross_references": [
    {
      "type": "name_match",
      "text": "quinone",
      "confidence": 1.0,
      "uuid": "d01e66c3-ad06-4707-8d42-3c6655001c1a",
      "name": "Quinone",
      "url": "https://haz-map.com/Agents/303",
      "category": "agents"
    },
    {
      "type": "name_match",
      "text": "pyridine",
      "confidence": 1.0,
      "uuid": "a2d916a4-844b-4df6-9be5-868b2b364d71",
      "name": "Pyridine",
      "url": "https://haz-map.com/Agents/616",
      "category": "agents"
    },
    {
      "type": "name_match",
      "text": "mica",
      "confidence": 1.0,
      "uuid": "433f26f1-c399-4596-b179-ce3843cfd465",
      "name": "Mica",
      "url": "https://haz-map.com/Agents/621",
      "category": "agents"
    },
    {
      "type": "name_match",
      "text": "ash",
      "confidence": 1.0,
      "uuid": "68b360f1-5ad0-4337-bea0-d7adca2961b5",
      "name": "Ash",
      "url": "https://haz-map.com/Agents/965",
      "category": "agents"
    },
    {
      "type": "name_match",
      "text": "nitrogen",
      "confidence": 1.0,
      "uuid": "db5e90a9-06d2-45b9-8b81-f345a89b0bc0",
      "name": "Nitrogen",
      "url": "https://haz-map.com/Agents/1072",
      "category": "agents"
    },
    {
      "type": "name_match",
      "text": "methylpyridine",
      "confidence": 1.0,
      "uuid": "4c8f8772-01ae-4de4-8af0-71733c0aaad4",
      "name": "Methylpyridine",
      "url": "https://haz-map.com/Agents/1496",
      "category": "agents"
    },
    {
      "type": "name_match",
      "text": "2,4,6-collidine",
      "confidence": 1.0,
      "uuid": "c7c684ec-c85f-4b33-8d9e-3173cf2f0887",
      "name": "2,4,6-Collidine",
      "url": "https://haz-map.com/Agents/2985",
      "category": "agents"
    },
    {
      "type": "name_match",
      "text": "anthraquinone",
      "confidence": 1.0,
      "uuid": "953f43e3-2275-41f0-9f8e-f5764f83b717",
      "name": "Anthraquinone",
      "url": "https://haz-map.com/Agents/3713",
      "category": "agents"
    },
    {
      "type": "fuzzy_match",
      "text": "6-trimethylpyridine",
      "matched_name": "2,3,6-Trimethylpyridine",
      "confidence": 0.8192934782608696,
      "uuid": "c3714559-0483-428e-8de5-c99345b4971d",
      "category": "agents",
      "url": "https://haz-map.com/Agents/17025"
    }
  ],
  "all_links": [
    {
      "text": "Search PubMed",
      "url": "https://www.ncbi.nlm.nih.gov/pubmed?term=2%2c4%2c6-Collidine%20AND%20human%5Bmh%5D%20AND%20%28Occupational%20Diseases%20%5Bmh%5D%20OR%20Occupational%20Exposure%20%5Bmh%5D%29%20%20AND%20%28tox%5Bsb%5D%29&cmd=search"
    }
  ]
}