{
  "metadata": {
    "scraped_from": "https://haz-map.com/Agents/3913",
    "entity_name": "beta-Phellandrene",
    "category": "agents",
    "uuid": "c895f498-e64d-428d-b929-4283e0047a0b",
    "scraped_at": "2025-07-23T19:34:35.374011"
  },
  "parsed_at": "2025-07-24T01:02:08.943692",
  "title": "beta-Phellandrene",
  "sections": {
    "general": {
      "agent_name": {
        "original_name": "Agent Name",
        "value": "beta-Phellandrene",
        "links": [],
        "cross_references": [
          {
            "type": "name_match",
            "text": "beta-phellandrene",
            "confidence": 1.0,
            "uuid": "c895f498-e64d-428d-b929-4283e0047a0b",
            "name": "beta-Phellandrene",
            "url": "https://haz-map.com/Agents/3913",
            "category": "agents"
          }
        ]
      },
      "cas_number": {
        "original_name": "CAS Number",
        "value": "555-10-2",
        "links": [],
        "cross_references": []
      },
      "formula": {
        "original_name": "Formula",
        "value": "C10-H16",
        "links": [],
        "cross_references": []
      },
      "major_category": {
        "original_name": "Major Category",
        "value": "Biological Agents",
        "links": [],
        "cross_references": []
      },
      "synonyms": {
        "original_name": "Synonyms",
        "value": "2-p-Menthadiene; 3-Isopropyl-6-methylene-1-cyclohexene; 3-Methylene-6-(1-methylethyl)cyclohexene; 4-Isopropyl-1-methylene-2-cyclohexene; Cyclohexene, 3-methylene-6-(1-methylethyl)-; PHELLANDRENE, BETA; p-Mentha-1(7),2-diene; [ChemIDplus]",
        "links": [],
        "cross_references": [
          {
            "type": "name_match",
            "text": "ethylene",
            "confidence": 1.0,
            "uuid": "958eacc0-5135-4b62-bb93-6df972bf552f",
            "name": "Ethylene",
            "url": "https://haz-map.com/Agents/1076",
            "category": "agents"
          },
          {
            "type": "name_match",
            "text": "cyclohexene",
            "confidence": 1.0,
            "uuid": "899603b1-ebcd-41d9-a67b-1e8d7d4eee3f",
            "name": "Cyclohexene",
            "url": "https://haz-map.com/Agents/1173",
            "category": "agents"
          },
          {
            "type": "name_match",
            "text": "hexene",
            "confidence": 1.0,
            "uuid": "592a6801-2d0b-441f-b3f6-6d67971256b7",
            "name": "Hexene",
            "url": "https://haz-map.com/Agents/5534",
            "category": "agents"
          }
        ]
      },
      "category": {
        "original_name": "Category",
        "value": "Terpenes",
        "links": [],
        "cross_references": [
          {
            "type": "name_match",
            "text": "terpenes",
            "confidence": 1.0,
            "uuid": "0a11dd9e-f81d-477b-b44c-85ca49ab02f4",
            "name": "TERPENES",
            "url": "https://haz-map.com/Agents/817",
            "category": "agents"
          }
        ]
      },
      "description": {
        "original_name": "Description",
        "value": "Oil; [Merck Index] Pleasant odor; [Hawley]",
        "links": [],
        "cross_references": []
      },
      "sourcesuses": {
        "original_name": "Sources/Uses",
        "value": "A naturally occurring essential oil and monoterpene found in certain plants; [HSDB]",
        "links": [],
        "cross_references": []
      },
      "biomedical_references": {
        "original_name": "Biomedical References",
        "value": "Search PubMed",
        "links": [
          {
            "text": "Search PubMed",
            "url": "https://www.ncbi.nlm.nih.gov/pubmed?term=beta-Phellandrene%20AND%20human%5Bmh%5D%20AND%20%28Occupational%20Diseases%20%5Bmh%5D%20OR%20Occupational%20Exposure%20%5Bmh%5D%29%20%20AND%20%28tox%5Bsb%5D%29&cmd=search"
          }
        ],
        "cross_references": []
      }
    },
    "exposure_assessment": {
      "vapor_pressure": {
        "original_name": "Vapor Pressure",
        "value": "1.59 mm Hg",
        "links": [],
        "cross_references": []
      },
      "explanatory_notes": {
        "original_name": "Explanatory Notes",
        "value": "VP from ChemIDplus;",
        "links": [],
        "cross_references": []
      },
      "nfpa": {
        "original_name": "NFPA",
        "value": "high ambient temp required",
        "links": [],
        "cross_references": []
      }
    },
    "adverse_effects": {
      "neurotoxin": {
        "original_name": "Neurotoxin",
        "value": "Acute solvent syndrome",
        "links": [],
        "cross_references": []
      }
    },
    "diseases_processes_and_activities_linked_to_this_agent": {
      "diseases": {
        "original_name": "Diseases",
        "value": "Occupational diseases associated with exposure to this agent: Solvents, acute toxic effect",
        "links": [
          {
            "text": "Solvents, acute toxic effect",
            "url": "https://haz-map.com/Diseases/326"
          }
        ],
        "cross_references": [
          {
            "type": "url_match",
            "text": "Solvents, acute toxic effect",
            "url": "https://haz-map.com/Diseases/326",
            "confidence": 1.0,
            "uuid": "581e90e3-9d0c-45f0-aa6c-3468c28da129",
            "name": "Solvents, acute toxic effect",
            "category": "diseases"
          }
        ]
      }
    }
  },
  "cross_references": [
    {
      "type": "url_match",
      "text": "Solvents, acute toxic effect",
      "url": "https://haz-map.com/Diseases/326",
      "confidence": 1.0,
      "uuid": "581e90e3-9d0c-45f0-aa6c-3468c28da129",
      "name": "Solvents, acute toxic effect",
      "category": "diseases"
    },
    {
      "type": "name_match",
      "text": "terpenes",
      "confidence": 1.0,
      "uuid": "0a11dd9e-f81d-477b-b44c-85ca49ab02f4",
      "name": "TERPENES",
      "url": "https://haz-map.com/Agents/817",
      "category": "agents"
    },
    {
      "type": "name_match",
      "text": "ethylene",
      "confidence": 1.0,
      "uuid": "958eacc0-5135-4b62-bb93-6df972bf552f",
      "name": "Ethylene",
      "url": "https://haz-map.com/Agents/1076",
      "category": "agents"
    },
    {
      "type": "name_match",
      "text": "cyclohexene",
      "confidence": 1.0,
      "uuid": "899603b1-ebcd-41d9-a67b-1e8d7d4eee3f",
      "name": "Cyclohexene",
      "url": "https://haz-map.com/Agents/1173",
      "category": "agents"
    },
    {
      "type": "name_match",
      "text": "beta-phellandrene",
      "confidence": 1.0,
      "uuid": "c895f498-e64d-428d-b929-4283e0047a0b",
      "name": "beta-Phellandrene",
      "url": "https://haz-map.com/Agents/3913",
      "category": "agents"
    },
    {
      "type": "name_match",
      "text": "hexene",
      "confidence": 1.0,
      "uuid": "592a6801-2d0b-441f-b3f6-6d67971256b7",
      "name": "Hexene",
      "url": "https://haz-map.com/Agents/5534",
      "category": "agents"
    }
  ],
  "all_links": [
    {
      "text": "Search PubMed",
      "url": "https://www.ncbi.nlm.nih.gov/pubmed?term=beta-Phellandrene%20AND%20human%5Bmh%5D%20AND%20%28Occupational%20Diseases%20%5Bmh%5D%20OR%20Occupational%20Exposure%20%5Bmh%5D%29%20%20AND%20%28tox%5Bsb%5D%29&cmd=search"
    },
    {
      "text": "Solvents, acute toxic effect",
      "url": "https://haz-map.com/Diseases/326"
    }
  ]
}