{
  "metadata": {
    "scraped_from": "https://haz-map.com/Agents/19220",
    "entity_name": "1,2-Octanediol",
    "category": "agents",
    "uuid": "c8eb2c5f-27c1-4bbb-863c-d5d7038fdf12",
    "scraped_at": "2025-07-23T22:01:43.367416"
  },
  "parsed_at": "2025-07-24T00:51:18.033893",
  "title": "1,2-Octanediol",
  "sections": {
    "general": {
      "agent_name": {
        "original_name": "Agent Name",
        "value": "1,2-Octanediol",
        "links": [],
        "cross_references": [
          {
            "type": "name_match",
            "text": "octane",
            "confidence": 1.0,
            "uuid": "feb2932c-69c5-4142-b6b6-bde017998940",
            "name": "Octane",
            "url": "https://haz-map.com/Agents/106",
            "category": "agents"
          },
          {
            "type": "name_match",
            "text": "1,2-octanediol",
            "confidence": 1.0,
            "uuid": "c8eb2c5f-27c1-4bbb-863c-d5d7038fdf12",
            "name": "1,2-Octanediol",
            "url": "https://haz-map.com/Agents/19220",
            "category": "agents"
          }
        ]
      },
      "cas_number": {
        "original_name": "CAS Number",
        "value": "1117-86-8",
        "links": [],
        "cross_references": []
      },
      "formula": {
        "original_name": "Formula",
        "value": "C8-H18-O2",
        "links": [],
        "cross_references": []
      },
      "major_category": {
        "original_name": "Major Category",
        "value": "Other Classes",
        "links": [],
        "cross_references": []
      },
      "synonyms": {
        "original_name": "Synonyms",
        "value": "1,2-Dihydroxyoctane; 1,2-Octylene glycol; [ChemIDplus] Octane-1,2-diol; [CBW MSDS]",
        "links": [],
        "cross_references": [
          {
            "type": "name_match",
            "text": "octane",
            "confidence": 1.0,
            "uuid": "feb2932c-69c5-4142-b6b6-bde017998940",
            "name": "Octane",
            "url": "https://haz-map.com/Agents/106",
            "category": "agents"
          }
        ]
      },
      "category": {
        "original_name": "Category",
        "value": "Alcohols and Polyols, Other",
        "links": [],
        "cross_references": []
      },
      "description": {
        "original_name": "Description",
        "value": "White solid; mp = 30-35 deg C; [CBW MSDS]",
        "links": [],
        "cross_references": []
      },
      "sourcesuses": {
        "original_name": "Sources/Uses",
        "value": "Used in cosmetic and pharmaceutic preparations; [CBW MSDS]",
        "links": [],
        "cross_references": []
      },
      "comments": {
        "original_name": "Comments",
        "value": "A severe eye irritant that may cause serious injury; [CBW MSDS] See \"2-Octanol.\"",
        "links": [],
        "cross_references": [
          {
            "type": "name_match",
            "text": "2-octanol",
            "confidence": 1.0,
            "uuid": "b2a636b6-fffb-43dc-80a0-6e3493769100",
            "name": "2-Octanol",
            "url": "https://haz-map.com/Agents/3155",
            "category": "agents"
          }
        ]
      },
      "biomedical_references": {
        "original_name": "Biomedical References",
        "value": "Search PubMed",
        "links": [
          {
            "text": "Search PubMed",
            "url": "https://www.ncbi.nlm.nih.gov/pubmed?term=1%2c2-Octanediol%20AND%20human%5Bmh%5D%20AND%20%28Occupational%20Diseases%20%5Bmh%5D%20OR%20Occupational%20Exposure%20%5Bmh%5D%29%20%20AND%20%28tox%5Bsb%5D%29&cmd=search"
          }
        ],
        "cross_references": []
      }
    },
    "exposure_assessment": {
      "explanatory_notes": {
        "original_name": "Explanatory Notes",
        "value": "Vapor pressure = 1.05 mm Hg at 90 deg C; [CBW MSDS]",
        "links": [],
        "cross_references": []
      }
    },
    "diseases_processes_and_activities_linked_to_this_agent": {
      "other_information": {
        "original_name": "Other Information",
        "value": "No other related information on this agent was found.",
        "links": [],
        "cross_references": []
      }
    }
  },
  "cross_references": [
    {
      "type": "name_match",
      "text": "octane",
      "confidence": 1.0,
      "uuid": "feb2932c-69c5-4142-b6b6-bde017998940",
      "name": "Octane",
      "url": "https://haz-map.com/Agents/106",
      "category": "agents"
    },
    {
      "type": "name_match",
      "text": "2-octanol",
      "confidence": 1.0,
      "uuid": "b2a636b6-fffb-43dc-80a0-6e3493769100",
      "name": "2-Octanol",
      "url": "https://haz-map.com/Agents/3155",
      "category": "agents"
    },
    {
      "type": "name_match",
      "text": "1,2-octanediol",
      "confidence": 1.0,
      "uuid": "c8eb2c5f-27c1-4bbb-863c-d5d7038fdf12",
      "name": "1,2-Octanediol",
      "url": "https://haz-map.com/Agents/19220",
      "category": "agents"
    }
  ],
  "all_links": [
    {
      "text": "Search PubMed",
      "url": "https://www.ncbi.nlm.nih.gov/pubmed?term=1%2c2-Octanediol%20AND%20human%5Bmh%5D%20AND%20%28Occupational%20Diseases%20%5Bmh%5D%20OR%20Occupational%20Exposure%20%5Bmh%5D%29%20%20AND%20%28tox%5Bsb%5D%29&cmd=search"
    }
  ]
}