{
  "metadata": {
    "scraped_from": "https://haz-map.com/Agents/3516",
    "entity_name": "2-Cyanoethyl acrylate",
    "category": "agents",
    "uuid": "c914acc7-006c-4c11-be57-eda5ee442564",
    "scraped_at": "2025-07-23T19:30:28.451775"
  },
  "parsed_at": "2025-07-24T01:12:18.160823",
  "title": "2-Cyanoethyl acrylate",
  "sections": {
    "general": {
      "agent_name": {
        "original_name": "Agent Name",
        "value": "2-Cyanoethyl acrylate",
        "links": [],
        "cross_references": [
          {
            "type": "name_match",
            "text": "ethyl acrylate",
            "confidence": 1.0,
            "uuid": "ebd91bed-1ebe-402c-b1d4-bb292984b2ca",
            "name": "Ethyl acrylate",
            "url": "https://haz-map.com/Agents/213",
            "category": "agents"
          },
          {
            "type": "name_match",
            "text": "2-cyanoethyl acrylate",
            "confidence": 1.0,
            "uuid": "c914acc7-006c-4c11-be57-eda5ee442564",
            "name": "2-Cyanoethyl acrylate",
            "url": "https://haz-map.com/Agents/3516",
            "category": "agents"
          }
        ]
      },
      "cas_number": {
        "original_name": "CAS Number",
        "value": "106-71-8",
        "links": [],
        "cross_references": []
      },
      "formula": {
        "original_name": "Formula",
        "value": "C6-H7-N-O2",
        "links": [],
        "cross_references": []
      },
      "major_category": {
        "original_name": "Major Category",
        "value": "Plastics & Rubber",
        "links": [],
        "cross_references": []
      },
      "synonyms": {
        "original_name": "Synonyms",
        "value": "2-Cyanoethyl propenoate; 2-Propenoic acid, 2-cyanoethyl ester; Acrylic acid, 2-cyanoethyl ester; Acrylic acid, ester with hydracrylonitrile; Cyanoethyl acrylate; Hydracrylonitrile, acrylate; [ChemIDplus]",
        "links": [],
        "cross_references": [
          {
            "type": "name_match",
            "text": "acrylonitrile",
            "confidence": 1.0,
            "uuid": "e00431c9-81e1-4b7d-8a1c-6e5177b79d95",
            "name": "Acrylonitrile",
            "url": "https://haz-map.com/Agents/31",
            "category": "agents"
          },
          {
            "type": "name_match",
            "text": "acrylic acid",
            "confidence": 1.0,
            "uuid": "c8e65755-0f00-4e14-91fe-d4fa705d17da",
            "name": "Acrylic acid",
            "url": "https://haz-map.com/Agents/67",
            "category": "agents"
          },
          {
            "type": "name_match",
            "text": "ethyl acrylate",
            "confidence": 1.0,
            "uuid": "ebd91bed-1ebe-402c-b1d4-bb292984b2ca",
            "name": "Ethyl acrylate",
            "url": "https://haz-map.com/Agents/213",
            "category": "agents"
          }
        ]
      },
      "category": {
        "original_name": "Category",
        "value": "(Meth)acrylates",
        "links": [],
        "cross_references": []
      },
      "description": {
        "original_name": "Description",
        "value": "Colorless liquid; [CHEMINFO]",
        "links": [],
        "cross_references": []
      },
      "sourcesuses": {
        "original_name": "Sources/Uses",
        "value": "Used to form polymers and copolymers in adhesives and textile finishes and sizes; [HSDB]",
        "links": [],
        "cross_references": []
      },
      "comments": {
        "original_name": "Comments",
        "value": "Irritating to skin and eyes; [SAX] External application to rabbit eyes scored 8 on a scale of 1-10 (10 being most severe) for degree of injury after 24 hours; [HSDB] A severe skin and eye irritant, based on animal studies; [CHEMINFO] May polymerize on light exposure; May decompose on exposure to moisture; A corrosive substance that can cause injury to the skin, eyes, and respiratory tract; Inhalation may cause chemical pneumonitis and pulmonary edema; A possible sensitizer; [MSDSonline] See \"ACRYLIC RESINS (MONOMERS).\"",
        "links": [],
        "cross_references": [
          {
            "type": "name_match",
            "text": "pulmonary edema",
            "confidence": 1.0,
            "uuid": "ee39114e-c922-40fd-9588-a532de404962",
            "name": "pulmonary edema",
            "url": "https://haz-map.com/Findings/186",
            "category": "findings"
          },
          {
            "type": "name_match",
            "text": "mica",
            "confidence": 1.0,
            "uuid": "433f26f1-c399-4596-b179-ce3843cfd465",
            "name": "Mica",
            "url": "https://haz-map.com/Agents/621",
            "category": "agents"
          },
          {
            "type": "name_match",
            "text": "acrylic resins (monomers)",
            "confidence": 1.0,
            "uuid": "602c61a5-dc0b-412e-bc40-98ecfee92bc4",
            "name": "ACRYLIC RESINS (MONOMERS)",
            "url": "https://haz-map.com/Agents/1006",
            "category": "agents"
          },
          {
            "type": "name_match",
            "text": "ht",
            "confidence": 1.0,
            "uuid": "764df367-8d53-4a11-81a2-31ccfe122a8d",
            "name": "HT",
            "url": "https://haz-map.com/Agents/2168",
            "category": "agents"
          }
        ]
      },
      "biomedical_references": {
        "original_name": "Biomedical References",
        "value": "Search PubMed",
        "links": [
          {
            "text": "Search PubMed",
            "url": "https://www.ncbi.nlm.nih.gov/pubmed?term=2-Cyanoethyl+acrylate%20AND%20human%5Bmh%5D%20AND%20%28Occupational%20Diseases%20%5Bmh%5D%20OR%20Occupational%20Exposure%20%5Bmh%5D%29%20%20AND%20%28tox%5Bsb%5D%29&cmd=search"
          }
        ],
        "cross_references": []
      }
    },
    "exposure_assessment": {
      "vapor_pressure": {
        "original_name": "Vapor Pressure",
        "value": "0.224 mm Hg",
        "links": [],
        "cross_references": []
      },
      "explanatory_notes": {
        "original_name": "Explanatory Notes",
        "value": "Flash point = 124 deg C; [HSDB] VP from ChemIDplus;",
        "links": [],
        "cross_references": [
          {
            "type": "name_match",
            "text": "ash",
            "confidence": 1.0,
            "uuid": "68b360f1-5ad0-4337-bea0-d7adca2961b5",
            "name": "Ash",
            "url": "https://haz-map.com/Agents/965",
            "category": "agents"
          }
        ]
      },
      "nfpa": {
        "original_name": "NFPA",
        "value": "must be preheated",
        "links": [],
        "cross_references": []
      }
    },
    "adverse_effects": {
      "skin_sensitizer": {
        "original_name": "Skin Sensitizer",
        "value": "Yes",
        "links": [],
        "cross_references": []
      },
      "toxic_pneumonitis": {
        "original_name": "Toxic Pneumonitis",
        "value": "Yes",
        "links": [],
        "cross_references": []
      },
      "dermatotoxin": {
        "original_name": "Dermatotoxin",
        "value": "Skin burns",
        "links": [],
        "cross_references": [
          {
            "type": "name_match",
            "text": "burn",
            "confidence": 1.0,
            "uuid": "63665de5-6376-4918-8dbf-4c10c4d63837",
            "name": "burn",
            "url": "https://haz-map.com/Findings/204",
            "category": "findings"
          }
        ]
      }
    },
    "diseases_processes_and_activities_linked_to_this_agent": {
      "diseases": {
        "original_name": "Diseases",
        "value": "Occupational diseases associated with exposure to this agent: Contact dermatitis, allergic",
        "links": [
          {
            "text": "Contact dermatitis, allergic",
            "url": "https://haz-map.com/Diseases/18"
          }
        ],
        "cross_references": [
          {
            "type": "url_match",
            "text": "Contact dermatitis, allergic",
            "url": "https://haz-map.com/Diseases/18",
            "confidence": 1.0,
            "uuid": "c9499de0-9aa1-41bf-8753-cd5b28a63e29",
            "name": "Contact dermatitis, allergic",
            "category": "diseases"
          },
          {
            "type": "name_match",
            "text": "dermatitis",
            "confidence": 1.0,
            "uuid": "fe9c05f2-b19f-4ceb-ac7a-ffb7d7a0cae0",
            "name": "dermatitis",
            "url": "https://haz-map.com/Findings/59",
            "category": "findings"
          }
        ]
      },
      "processes": {
        "original_name": "Processes",
        "value": "Industrial Processes with risk of exposure: Plastic Composites Manufacturing Textiles (Printing, Dyeing, or Finishing) Working with Glues and Adhesives",
        "links": [
          {
            "text": "Plastic Composites Manufacturing",
            "url": "https://haz-map.com/Processes/222"
          },
          {
            "text": "Textiles (Printing, Dyeing, or Finishing)",
            "url": "https://haz-map.com/Processes/235"
          },
          {
            "text": "Working with Glues and Adhesives",
            "url": "https://haz-map.com/Processes/155"
          }
        ],
        "cross_references": [
          {
            "type": "url_match",
            "text": "Plastic Composites Manufacturing",
            "url": "https://haz-map.com/Processes/222",
            "confidence": 1.0,
            "uuid": "d4461b82-dc77-4172-8e3d-0a5e3b213911",
            "name": "Plastic Composites Manufacturing",
            "category": "processes"
          },
          {
            "type": "url_match",
            "text": "Working with Glues and Adhesives",
            "url": "https://haz-map.com/Processes/155",
            "confidence": 1.0,
            "uuid": "acb9084f-52e8-4687-bd6a-bced94bda834",
            "name": "Working with Glues and Adhesives",
            "category": "processes"
          }
        ]
      }
    }
  },
  "cross_references": [
    {
      "type": "url_match",
      "text": "Contact dermatitis, allergic",
      "url": "https://haz-map.com/Diseases/18",
      "confidence": 1.0,
      "uuid": "c9499de0-9aa1-41bf-8753-cd5b28a63e29",
      "name": "Contact dermatitis, allergic",
      "category": "diseases"
    },
    {
      "type": "url_match",
      "text": "Plastic Composites Manufacturing",
      "url": "https://haz-map.com/Processes/222",
      "confidence": 1.0,
      "uuid": "d4461b82-dc77-4172-8e3d-0a5e3b213911",
      "name": "Plastic Composites Manufacturing",
      "category": "processes"
    },
    {
      "type": "url_match",
      "text": "Working with Glues and Adhesives",
      "url": "https://haz-map.com/Processes/155",
      "confidence": 1.0,
      "uuid": "acb9084f-52e8-4687-bd6a-bced94bda834",
      "name": "Working with Glues and Adhesives",
      "category": "processes"
    },
    {
      "type": "name_match",
      "text": "dermatitis",
      "confidence": 1.0,
      "uuid": "fe9c05f2-b19f-4ceb-ac7a-ffb7d7a0cae0",
      "name": "dermatitis",
      "url": "https://haz-map.com/Findings/59",
      "category": "findings"
    },
    {
      "type": "name_match",
      "text": "pulmonary edema",
      "confidence": 1.0,
      "uuid": "ee39114e-c922-40fd-9588-a532de404962",
      "name": "pulmonary edema",
      "url": "https://haz-map.com/Findings/186",
      "category": "findings"
    },
    {
      "type": "name_match",
      "text": "burn",
      "confidence": 1.0,
      "uuid": "63665de5-6376-4918-8dbf-4c10c4d63837",
      "name": "burn",
      "url": "https://haz-map.com/Findings/204",
      "category": "findings"
    },
    {
      "type": "name_match",
      "text": "acrylonitrile",
      "confidence": 1.0,
      "uuid": "e00431c9-81e1-4b7d-8a1c-6e5177b79d95",
      "name": "Acrylonitrile",
      "url": "https://haz-map.com/Agents/31",
      "category": "agents"
    },
    {
      "type": "name_match",
      "text": "acrylic acid",
      "confidence": 1.0,
      "uuid": "c8e65755-0f00-4e14-91fe-d4fa705d17da",
      "name": "Acrylic acid",
      "url": "https://haz-map.com/Agents/67",
      "category": "agents"
    },
    {
      "type": "name_match",
      "text": "ethyl acrylate",
      "confidence": 1.0,
      "uuid": "ebd91bed-1ebe-402c-b1d4-bb292984b2ca",
      "name": "Ethyl acrylate",
      "url": "https://haz-map.com/Agents/213",
      "category": "agents"
    },
    {
      "type": "name_match",
      "text": "mica",
      "confidence": 1.0,
      "uuid": "433f26f1-c399-4596-b179-ce3843cfd465",
      "name": "Mica",
      "url": "https://haz-map.com/Agents/621",
      "category": "agents"
    },
    {
      "type": "name_match",
      "text": "ash",
      "confidence": 1.0,
      "uuid": "68b360f1-5ad0-4337-bea0-d7adca2961b5",
      "name": "Ash",
      "url": "https://haz-map.com/Agents/965",
      "category": "agents"
    },
    {
      "type": "name_match",
      "text": "acrylic resins (monomers)",
      "confidence": 1.0,
      "uuid": "602c61a5-dc0b-412e-bc40-98ecfee92bc4",
      "name": "ACRYLIC RESINS (MONOMERS)",
      "url": "https://haz-map.com/Agents/1006",
      "category": "agents"
    },
    {
      "type": "name_match",
      "text": "ht",
      "confidence": 1.0,
      "uuid": "764df367-8d53-4a11-81a2-31ccfe122a8d",
      "name": "HT",
      "url": "https://haz-map.com/Agents/2168",
      "category": "agents"
    },
    {
      "type": "name_match",
      "text": "2-cyanoethyl acrylate",
      "confidence": 1.0,
      "uuid": "c914acc7-006c-4c11-be57-eda5ee442564",
      "name": "2-Cyanoethyl acrylate",
      "url": "https://haz-map.com/Agents/3516",
      "category": "agents"
    }
  ],
  "all_links": [
    {
      "text": "Search PubMed",
      "url": "https://www.ncbi.nlm.nih.gov/pubmed?term=2-Cyanoethyl+acrylate%20AND%20human%5Bmh%5D%20AND%20%28Occupational%20Diseases%20%5Bmh%5D%20OR%20Occupational%20Exposure%20%5Bmh%5D%29%20%20AND%20%28tox%5Bsb%5D%29&cmd=search"
    },
    {
      "text": "Contact dermatitis, allergic",
      "url": "https://haz-map.com/Diseases/18"
    },
    {
      "text": "Plastic Composites Manufacturing",
      "url": "https://haz-map.com/Processes/222"
    },
    {
      "text": "Textiles (Printing, Dyeing, or Finishing)",
      "url": "https://haz-map.com/Processes/235"
    },
    {
      "text": "Working with Glues and Adhesives",
      "url": "https://haz-map.com/Processes/155"
    }
  ]
}