{
  "metadata": {
    "scraped_from": "https://haz-map.com/Agents/16434",
    "entity_name": "2,3-Dimethylpentane",
    "category": "agents",
    "uuid": "c93035b9-02c0-41c0-8568-3b430b95faa8",
    "scraped_at": "2025-07-23T21:37:31.104899"
  },
  "parsed_at": "2025-07-24T01:14:31.564508",
  "title": "2,3-Dimethylpentane",
  "sections": {
    "general": {
      "agent_name": {
        "original_name": "Agent Name",
        "value": "2,3-Dimethylpentane",
        "links": [],
        "cross_references": [
          {
            "type": "name_match",
            "text": "2,3-dimethylpentane",
            "confidence": 1.0,
            "uuid": "c93035b9-02c0-41c0-8568-3b430b95faa8",
            "name": "2,3-Dimethylpentane",
            "url": "https://haz-map.com/Agents/16434",
            "category": "agents"
          },
          {
            "type": "fuzzy_match",
            "text": "3-dimethylpentane",
            "matched_name": "3,3-Dimethylpentane",
            "confidence": 0.9116541353383458,
            "uuid": "0a83efbd-83d2-42de-b343-75dae2929e6a",
            "category": "agents",
            "url": "https://haz-map.com/Agents/16437"
          }
        ]
      },
      "cas_number": {
        "original_name": "CAS Number",
        "value": "565-59-3",
        "links": [],
        "cross_references": []
      },
      "formula": {
        "original_name": "Formula",
        "value": "C7-H16",
        "links": [],
        "cross_references": []
      },
      "major_category": {
        "original_name": "Major Category",
        "value": "Solvents",
        "links": [],
        "cross_references": []
      },
      "synonyms": {
        "original_name": "Synonyms",
        "value": "3,4-Dimethylpentane; Pentane, 2,3-dimethyl-; [ChemIDplus] UN1206",
        "links": [],
        "cross_references": [
          {
            "type": "fuzzy_match",
            "text": "4-dimethylpentane",
            "matched_name": "2,4-Dimethylpentane",
            "confidence": 0.880701754385965,
            "uuid": "2ddd6468-a811-43db-bf85-5c08c5cd3d7e",
            "category": "agents",
            "url": "https://haz-map.com/Agents/16435"
          }
        ]
      },
      "category": {
        "original_name": "Category",
        "value": "Aliphatics, Saturated (<C12)",
        "links": [],
        "cross_references": []
      },
      "description": {
        "original_name": "Description",
        "value": "Colorless liquid with an odor of gasoline; [NJ-HSFS]",
        "links": [],
        "cross_references": [
          {
            "type": "name_match",
            "text": "gasoline",
            "confidence": 1.0,
            "uuid": "af15c833-3eae-46c5-9af4-2214858d7282",
            "name": "Gasoline",
            "url": "https://haz-map.com/Agents/410",
            "category": "agents"
          }
        ]
      },
      "sourcesuses": {
        "original_name": "Sources/Uses",
        "value": "Used to make other chemicals, in gasoline, rubber solvents, and other petroleum solvents; [NJ-HSFS]",
        "links": [],
        "cross_references": [
          {
            "type": "name_match",
            "text": "gasoline",
            "confidence": 1.0,
            "uuid": "af15c833-3eae-46c5-9af4-2214858d7282",
            "name": "Gasoline",
            "url": "https://haz-map.com/Agents/410",
            "category": "agents"
          },
          {
            "type": "name_match",
            "text": "mica",
            "confidence": 1.0,
            "uuid": "433f26f1-c399-4596-b179-ce3843cfd465",
            "name": "Mica",
            "url": "https://haz-map.com/Agents/621",
            "category": "agents"
          },
          {
            "type": "name_match",
            "text": "oleum",
            "confidence": 1.0,
            "uuid": "12af84ee-bcf0-416d-9220-7c4c6dc330f1",
            "name": "Oleum",
            "url": "https://haz-map.com/Agents/2227",
            "category": "agents"
          }
        ]
      },
      "comments": {
        "original_name": "Comments",
        "value": "Causes changes in tubules (including acute renal failure and necrosis) in 4-week intermittent oral studies of rats; [RTECS] An irritant; Inhalation may cause headache, dizziness, and loss of consciousness; Overexposure may cause kidney and nervous system effects; [NJ-HSFS] An irritant; An aspiration hazard by ingestion (may cause lung damage); Inhalation may cause CNS depression; [Acros Organics MSDS]",
        "links": [],
        "cross_references": [
          {
            "type": "name_match",
            "text": "dizziness",
            "confidence": 1.0,
            "uuid": "4b0e6043-b228-49de-996c-b42ec8b3780e",
            "name": "dizziness",
            "url": "https://haz-map.com/Findings/16",
            "category": "findings"
          },
          {
            "type": "name_match",
            "text": "headache",
            "confidence": 1.0,
            "uuid": "a474a38d-66ac-44da-92de-de1c781a30e7",
            "name": "headache",
            "url": "https://haz-map.com/Findings/17",
            "category": "findings"
          }
        ]
      },
      "biomedical_references": {
        "original_name": "Biomedical References",
        "value": "Search PubMed",
        "links": [
          {
            "text": "Search PubMed",
            "url": "https://www.ncbi.nlm.nih.gov/pubmed?term=2%2c3-Dimethylpentane%20AND%20human%5Bmh%5D%20AND%20%28Occupational%20Diseases%20%5Bmh%5D%20OR%20Occupational%20Exposure%20%5Bmh%5D%29%20%20AND%20%28tox%5Bsb%5D%29&cmd=search"
          }
        ],
        "cross_references": []
      }
    },
    "exposure_assessment": {
      "tlv_acgih": {
        "original_name": "TLV (ACGIH)",
        "value": "400 ppm",
        "links": [],
        "cross_references": []
      },
      "stel_acgih": {
        "original_name": "STEL (ACGIH)",
        "value": "500 ppm",
        "links": [],
        "cross_references": []
      },
      "mak": {
        "original_name": "MAK",
        "value": "500 ppm",
        "links": [],
        "cross_references": []
      },
      "vapor_pressure": {
        "original_name": "Vapor Pressure",
        "value": "68.9 mm Hg",
        "links": [],
        "cross_references": []
      },
      "explanatory_notes": {
        "original_name": "Explanatory Notes",
        "value": "The Guide in the Emergency Response Guidebook is for \"Heptanes.\" VP from ChemIDplus;",
        "links": [],
        "cross_references": []
      },
      "nfpa": {
        "original_name": "NFPA",
        "value": "may ignite at ambient temp",
        "links": [],
        "cross_references": []
      }
    },
    "adverse_effects": {
      "neurotoxin": {
        "original_name": "Neurotoxin",
        "value": "Acute solvent syndrome",
        "links": [],
        "cross_references": []
      }
    },
    "diseases_processes_and_activities_linked_to_this_agent": {
      "diseases": {
        "original_name": "Diseases",
        "value": "Occupational diseases associated with exposure to this agent: Solvents, acute toxic effect",
        "links": [
          {
            "text": "Solvents, acute toxic effect",
            "url": "https://haz-map.com/Diseases/326"
          }
        ],
        "cross_references": [
          {
            "type": "url_match",
            "text": "Solvents, acute toxic effect",
            "url": "https://haz-map.com/Diseases/326",
            "confidence": 1.0,
            "uuid": "581e90e3-9d0c-45f0-aa6c-3468c28da129",
            "name": "Solvents, acute toxic effect",
            "category": "diseases"
          }
        ]
      }
    }
  },
  "cross_references": [
    {
      "type": "url_match",
      "text": "Solvents, acute toxic effect",
      "url": "https://haz-map.com/Diseases/326",
      "confidence": 1.0,
      "uuid": "581e90e3-9d0c-45f0-aa6c-3468c28da129",
      "name": "Solvents, acute toxic effect",
      "category": "diseases"
    },
    {
      "type": "name_match",
      "text": "dizziness",
      "confidence": 1.0,
      "uuid": "4b0e6043-b228-49de-996c-b42ec8b3780e",
      "name": "dizziness",
      "url": "https://haz-map.com/Findings/16",
      "category": "findings"
    },
    {
      "type": "name_match",
      "text": "headache",
      "confidence": 1.0,
      "uuid": "a474a38d-66ac-44da-92de-de1c781a30e7",
      "name": "headache",
      "url": "https://haz-map.com/Findings/17",
      "category": "findings"
    },
    {
      "type": "name_match",
      "text": "gasoline",
      "confidence": 1.0,
      "uuid": "af15c833-3eae-46c5-9af4-2214858d7282",
      "name": "Gasoline",
      "url": "https://haz-map.com/Agents/410",
      "category": "agents"
    },
    {
      "type": "name_match",
      "text": "mica",
      "confidence": 1.0,
      "uuid": "433f26f1-c399-4596-b179-ce3843cfd465",
      "name": "Mica",
      "url": "https://haz-map.com/Agents/621",
      "category": "agents"
    },
    {
      "type": "name_match",
      "text": "oleum",
      "confidence": 1.0,
      "uuid": "12af84ee-bcf0-416d-9220-7c4c6dc330f1",
      "name": "Oleum",
      "url": "https://haz-map.com/Agents/2227",
      "category": "agents"
    },
    {
      "type": "name_match",
      "text": "2,3-dimethylpentane",
      "confidence": 1.0,
      "uuid": "c93035b9-02c0-41c0-8568-3b430b95faa8",
      "name": "2,3-Dimethylpentane",
      "url": "https://haz-map.com/Agents/16434",
      "category": "agents"
    },
    {
      "type": "fuzzy_match",
      "text": "3-dimethylpentane",
      "matched_name": "3,3-Dimethylpentane",
      "confidence": 0.9116541353383458,
      "uuid": "0a83efbd-83d2-42de-b343-75dae2929e6a",
      "category": "agents",
      "url": "https://haz-map.com/Agents/16437"
    },
    {
      "type": "fuzzy_match",
      "text": "4-dimethylpentane",
      "matched_name": "2,4-Dimethylpentane",
      "confidence": 0.880701754385965,
      "uuid": "2ddd6468-a811-43db-bf85-5c08c5cd3d7e",
      "category": "agents",
      "url": "https://haz-map.com/Agents/16435"
    }
  ],
  "all_links": [
    {
      "text": "Search PubMed",
      "url": "https://www.ncbi.nlm.nih.gov/pubmed?term=2%2c3-Dimethylpentane%20AND%20human%5Bmh%5D%20AND%20%28Occupational%20Diseases%20%5Bmh%5D%20OR%20Occupational%20Exposure%20%5Bmh%5D%29%20%20AND%20%28tox%5Bsb%5D%29&cmd=search"
    },
    {
      "text": "Solvents, acute toxic effect",
      "url": "https://haz-map.com/Diseases/326"
    }
  ]
}