{
  "metadata": {
    "scraped_from": "https://haz-map.com/Agents/3774",
    "entity_name": "Auramine hydrochloride",
    "category": "agents",
    "uuid": "c93e42de-d334-4fd6-9fee-828744ec1910",
    "scraped_at": "2025-07-23T19:32:52.154816"
  },
  "parsed_at": "2025-07-24T00:56:53.863716",
  "title": "Auramine hydrochloride",
  "sections": {
    "general": {
      "agent_name": {
        "original_name": "Agent Name",
        "value": "Auramine hydrochloride",
        "links": [],
        "cross_references": [
          {
            "type": "name_match",
            "text": "ramin",
            "confidence": 1.0,
            "uuid": "f0fbb433-5eef-4a70-a208-66cc45df5768",
            "name": "Ramin",
            "url": "https://haz-map.com/Agents/962",
            "category": "agents"
          },
          {
            "type": "name_match",
            "text": "auramine",
            "confidence": 1.0,
            "uuid": "c3e493fa-e6a3-42ea-bfcb-fa0d005643e3",
            "name": "Auramine",
            "url": "https://haz-map.com/Agents/3773",
            "category": "agents"
          },
          {
            "type": "name_match",
            "text": "auramine hydrochloride",
            "confidence": 1.0,
            "uuid": "c93e42de-d334-4fd6-9fee-828744ec1910",
            "name": "Auramine hydrochloride",
            "url": "https://haz-map.com/Agents/3774",
            "category": "agents"
          }
        ]
      },
      "cas_number": {
        "original_name": "CAS Number",
        "value": "2465-27-2",
        "links": [],
        "cross_references": []
      },
      "formula": {
        "original_name": "Formula",
        "value": "C17-H21-N3.Cl-H",
        "links": [],
        "cross_references": []
      },
      "major_category": {
        "original_name": "Major Category",
        "value": "Dyes",
        "links": [],
        "cross_references": []
      },
      "synonyms": {
        "original_name": "Synonyms",
        "value": "(Tetramethyldiamino)diphenylketoimine hydrochloride; 1,1-Bis(p-dimethylaminophenyl)methylenimine hydrochloride; 4,4'-(Imidocarbonyl)bis(N,N-dimethylamine), monohydrochloride; 4,4'-Bis(dimethylamino)-benzhydrylidenimine hydrochloride; 4:4'-Bis(dimethylamino)benzophenone-imine hydrochloride; Adc Auramine O; Aizen Auramine Conc. SFA; Aizen Auramine conc.SFA; Aizen auramine; Aizen auramine OH; Aniline, 4,4'-(imidocarbonyl)bis(N,N-dimethyl-, hydrochloride; Aniline, 4,4'-imidocarbonylbis(N,N-dimethyl-, monohydrochloride; Auramin; Auramine; Auramine (VAN); Auramine 0-100; Auramine A1; Auramine Extra; Auramine Extra Conc. A; Auramine FA; Auramine FWA; Auramine II; Auramine Lake Yellow O; Auramine N; Auramine O; Auramine O (biological stain); Auramine O Extra Conc. A Export; Auramine ON; Auramine OO; Auramine OOO; Auramine OS; Auramine Pure; Auramine SP; Auramine Yellow; Auramine chloride; Auramine conc. Specially soluble in Spirit; Auramine hydrochloride; Basic Yellow 2; Basic Yellow 2, fugitive; Benzenamine, 4,4'-carbonimidoylbis(N,N-dimethyl-, monohydrochloride; C.I. 41000; C.I. Basic Yellow 2; C.I. Basic Yellow 2, monohydrochloride; CI 41000; CI Basic Yellow 2; CI Basic Yellow 2, monohydrochloride; Calcozine Yellow OX; Mitsui auramine O; Zlut zasadita 2; [ChemIDplus] UN2811",
        "links": [],
        "cross_references": [
          {
            "type": "name_match",
            "text": "methylamine",
            "confidence": 1.0,
            "uuid": "7c3781b5-5294-474a-a015-e59574d00b69",
            "name": "Methylamine",
            "url": "https://haz-map.com/Agents/217",
            "category": "agents"
          },
          {
            "type": "name_match",
            "text": "dimethylamine",
            "confidence": 1.0,
            "uuid": "8b0c8378-7df0-486c-ae0f-b4ea920d8f83",
            "name": "Dimethylamine",
            "url": "https://haz-map.com/Agents/218",
            "category": "agents"
          },
          {
            "type": "name_match",
            "text": "ethylamine",
            "confidence": 1.0,
            "uuid": "41ca4da8-b990-420a-86b2-3d77404fb7f4",
            "name": "Ethylamine",
            "url": "https://haz-map.com/Agents/220",
            "category": "agents"
          },
          {
            "type": "name_match",
            "text": "aniline",
            "confidence": 1.0,
            "uuid": "e4932692-8d9c-4a98-8c5c-81e55b12aedf",
            "name": "Aniline",
            "url": "https://haz-map.com/Agents/296",
            "category": "agents"
          },
          {
            "type": "name_match",
            "text": "ramin",
            "confidence": 1.0,
            "uuid": "f0fbb433-5eef-4a70-a208-66cc45df5768",
            "name": "Ramin",
            "url": "https://haz-map.com/Agents/962",
            "category": "agents"
          },
          {
            "type": "name_match",
            "text": "carbon",
            "confidence": 1.0,
            "uuid": "b53f8815-ee80-40ef-b4aa-3b000e17dab5",
            "name": "Carbon",
            "url": "https://haz-map.com/Agents/1891",
            "category": "agents"
          },
          {
            "type": "name_match",
            "text": "auramine",
            "confidence": 1.0,
            "uuid": "c3e493fa-e6a3-42ea-bfcb-fa0d005643e3",
            "name": "Auramine",
            "url": "https://haz-map.com/Agents/3773",
            "category": "agents"
          },
          {
            "type": "name_match",
            "text": "auramine hydrochloride",
            "confidence": 1.0,
            "uuid": "c93e42de-d334-4fd6-9fee-828744ec1910",
            "name": "Auramine hydrochloride",
            "url": "https://haz-map.com/Agents/3774",
            "category": "agents"
          },
          {
            "type": "name_match",
            "text": "benzophenone",
            "confidence": 1.0,
            "uuid": "3fe45323-f1b9-4c0c-8aeb-7879750d2af2",
            "name": "Benzophenone",
            "url": "https://haz-map.com/Agents/3865",
            "category": "agents"
          }
        ]
      },
      "category": {
        "original_name": "Category",
        "value": "Di- and Triaryl Dyes",
        "links": [],
        "cross_references": []
      },
      "description": {
        "original_name": "Description",
        "value": "Yellow solid; [HSDB] Deep yellow powder;",
        "links": [],
        "cross_references": []
      },
      "sourcesuses": {
        "original_name": "Sources/Uses",
        "value": "Used to dye paper, leather, cotton, wool, silk, jute, and coco fiber; Also used as a stain for acid-fast bacteria and tissue; [HSDB] Used as a disinfectant and antiseptic; [ChemIDplus]",
        "links": [],
        "cross_references": []
      },
      "comments": {
        "original_name": "Comments",
        "value": "A skin and eye irritant; Harmful by inhalation, ingestion, and skin absorption; May cause skin and eye burns; [CAMEO] May cause irritation; Readily absorbed through skin; [MSDSonline] Danger of cutaneous absorption; [MAK] See \"Auramine.\"",
        "links": [],
        "cross_references": [
          {
            "type": "name_match",
            "text": "burn",
            "confidence": 1.0,
            "uuid": "63665de5-6376-4918-8dbf-4c10c4d63837",
            "name": "burn",
            "url": "https://haz-map.com/Findings/204",
            "category": "findings"
          },
          {
            "type": "name_match",
            "text": "ramin",
            "confidence": 1.0,
            "uuid": "f0fbb433-5eef-4a70-a208-66cc45df5768",
            "name": "Ramin",
            "url": "https://haz-map.com/Agents/962",
            "category": "agents"
          },
          {
            "type": "name_match",
            "text": "auramine",
            "confidence": 1.0,
            "uuid": "c3e493fa-e6a3-42ea-bfcb-fa0d005643e3",
            "name": "Auramine",
            "url": "https://haz-map.com/Agents/3773",
            "category": "agents"
          }
        ]
      },
      "biomedical_references": {
        "original_name": "Biomedical References",
        "value": "Search PubMed",
        "links": [
          {
            "text": "Search PubMed",
            "url": "https://www.ncbi.nlm.nih.gov/pubmed?term=Auramine+hydrochloride%20AND%20human%5Bmh%5D%20AND%20%28Occupational%20Diseases%20%5Bmh%5D%20OR%20Occupational%20Exposure%20%5Bmh%5D%29%20%20AND%20%28tox%5Bsb%5D%29&cmd=search"
          }
        ],
        "cross_references": []
      }
    },
    "exposure_assessment": {
      "vapor_pressure": {
        "original_name": "Vapor Pressure",
        "value": "1.29E-06 mm Hg",
        "links": [],
        "cross_references": []
      },
      "explanatory_notes": {
        "original_name": "Explanatory Notes",
        "value": "The Guide in the Emergency Response Guidebook is for \"Toxic solid, organic, n.o.s.\"",
        "links": [],
        "cross_references": []
      }
    },
    "diseases_processes_and_activities_linked_to_this_agent": {
      "processes": {
        "original_name": "Processes",
        "value": "Industrial Processes with risk of exposure: Leather Tanning and Processing Pulp and Paper Processing Textiles (Printing, Dyeing, or Finishing) Using Disinfectants or Biocides",
        "links": [
          {
            "text": "Leather Tanning and Processing",
            "url": "https://haz-map.com/Processes/230"
          },
          {
            "text": "Pulp and Paper Processing",
            "url": "https://haz-map.com/Processes/132"
          },
          {
            "text": "Textiles (Printing, Dyeing, or Finishing)",
            "url": "https://haz-map.com/Processes/235"
          },
          {
            "text": "Using Disinfectants or Biocides",
            "url": "https://haz-map.com/Processes/167"
          }
        ],
        "cross_references": [
          {
            "type": "url_match",
            "text": "Pulp and Paper Processing",
            "url": "https://haz-map.com/Processes/132",
            "confidence": 1.0,
            "uuid": "30075079-d057-47e2-a7d8-e89bfc59d8df",
            "name": "Pulp and Paper Processing",
            "category": "processes"
          },
          {
            "type": "url_match",
            "text": "Using Disinfectants or Biocides",
            "url": "https://haz-map.com/Processes/167",
            "confidence": 1.0,
            "uuid": "7accb745-ad60-4ef8-9039-8ac4febb8fd8",
            "name": "Using Disinfectants or Biocides",
            "category": "processes"
          }
        ]
      }
    }
  },
  "cross_references": [
    {
      "type": "url_match",
      "text": "Pulp and Paper Processing",
      "url": "https://haz-map.com/Processes/132",
      "confidence": 1.0,
      "uuid": "30075079-d057-47e2-a7d8-e89bfc59d8df",
      "name": "Pulp and Paper Processing",
      "category": "processes"
    },
    {
      "type": "url_match",
      "text": "Using Disinfectants or Biocides",
      "url": "https://haz-map.com/Processes/167",
      "confidence": 1.0,
      "uuid": "7accb745-ad60-4ef8-9039-8ac4febb8fd8",
      "name": "Using Disinfectants or Biocides",
      "category": "processes"
    },
    {
      "type": "name_match",
      "text": "burn",
      "confidence": 1.0,
      "uuid": "63665de5-6376-4918-8dbf-4c10c4d63837",
      "name": "burn",
      "url": "https://haz-map.com/Findings/204",
      "category": "findings"
    },
    {
      "type": "name_match",
      "text": "methylamine",
      "confidence": 1.0,
      "uuid": "7c3781b5-5294-474a-a015-e59574d00b69",
      "name": "Methylamine",
      "url": "https://haz-map.com/Agents/217",
      "category": "agents"
    },
    {
      "type": "name_match",
      "text": "dimethylamine",
      "confidence": 1.0,
      "uuid": "8b0c8378-7df0-486c-ae0f-b4ea920d8f83",
      "name": "Dimethylamine",
      "url": "https://haz-map.com/Agents/218",
      "category": "agents"
    },
    {
      "type": "name_match",
      "text": "ethylamine",
      "confidence": 1.0,
      "uuid": "41ca4da8-b990-420a-86b2-3d77404fb7f4",
      "name": "Ethylamine",
      "url": "https://haz-map.com/Agents/220",
      "category": "agents"
    },
    {
      "type": "name_match",
      "text": "aniline",
      "confidence": 1.0,
      "uuid": "e4932692-8d9c-4a98-8c5c-81e55b12aedf",
      "name": "Aniline",
      "url": "https://haz-map.com/Agents/296",
      "category": "agents"
    },
    {
      "type": "name_match",
      "text": "ramin",
      "confidence": 1.0,
      "uuid": "f0fbb433-5eef-4a70-a208-66cc45df5768",
      "name": "Ramin",
      "url": "https://haz-map.com/Agents/962",
      "category": "agents"
    },
    {
      "type": "name_match",
      "text": "carbon",
      "confidence": 1.0,
      "uuid": "b53f8815-ee80-40ef-b4aa-3b000e17dab5",
      "name": "Carbon",
      "url": "https://haz-map.com/Agents/1891",
      "category": "agents"
    },
    {
      "type": "name_match",
      "text": "auramine",
      "confidence": 1.0,
      "uuid": "c3e493fa-e6a3-42ea-bfcb-fa0d005643e3",
      "name": "Auramine",
      "url": "https://haz-map.com/Agents/3773",
      "category": "agents"
    },
    {
      "type": "name_match",
      "text": "auramine hydrochloride",
      "confidence": 1.0,
      "uuid": "c93e42de-d334-4fd6-9fee-828744ec1910",
      "name": "Auramine hydrochloride",
      "url": "https://haz-map.com/Agents/3774",
      "category": "agents"
    },
    {
      "type": "name_match",
      "text": "benzophenone",
      "confidence": 1.0,
      "uuid": "3fe45323-f1b9-4c0c-8aeb-7879750d2af2",
      "name": "Benzophenone",
      "url": "https://haz-map.com/Agents/3865",
      "category": "agents"
    }
  ],
  "all_links": [
    {
      "text": "Search PubMed",
      "url": "https://www.ncbi.nlm.nih.gov/pubmed?term=Auramine+hydrochloride%20AND%20human%5Bmh%5D%20AND%20%28Occupational%20Diseases%20%5Bmh%5D%20OR%20Occupational%20Exposure%20%5Bmh%5D%29%20%20AND%20%28tox%5Bsb%5D%29&cmd=search"
    },
    {
      "text": "Leather Tanning and Processing",
      "url": "https://haz-map.com/Processes/230"
    },
    {
      "text": "Pulp and Paper Processing",
      "url": "https://haz-map.com/Processes/132"
    },
    {
      "text": "Textiles (Printing, Dyeing, or Finishing)",
      "url": "https://haz-map.com/Processes/235"
    },
    {
      "text": "Using Disinfectants or Biocides",
      "url": "https://haz-map.com/Processes/167"
    }
  ]
}