{
  "metadata": {
    "scraped_from": "https://haz-map.com/Agents/6218",
    "entity_name": "Myristic acid",
    "category": "agents",
    "uuid": "c9b816de-5aed-4ad4-94a7-749de582cdc8",
    "scraped_at": "2025-07-23T19:59:42.727294"
  },
  "parsed_at": "2025-07-24T00:53:49.556068",
  "title": "Myristic acid",
  "sections": {
    "general": {
      "agent_name": {
        "original_name": "Agent Name",
        "value": "Myristic acid",
        "links": [],
        "cross_references": [
          {
            "type": "name_match",
            "text": "myristic acid",
            "confidence": 1.0,
            "uuid": "c9b816de-5aed-4ad4-94a7-749de582cdc8",
            "name": "Myristic acid",
            "url": "https://haz-map.com/Agents/6218",
            "category": "agents"
          }
        ]
      },
      "cas_number": {
        "original_name": "CAS Number",
        "value": "544-63-8",
        "links": [],
        "cross_references": []
      },
      "formula": {
        "original_name": "Formula",
        "value": "C14-H28-O2",
        "links": [],
        "cross_references": []
      },
      "major_category": {
        "original_name": "Major Category",
        "value": "Other Classes",
        "links": [],
        "cross_references": []
      },
      "synonyms": {
        "original_name": "Synonyms",
        "value": "1-Tridecanecarboxylic acid; C14 fatty acid; Crodacid; Emery 655; Hydrofol acid 1495; Hystrene 9014; Myristic acid (natural); Neo-Fat 14; Tetradecanoic acid; Univol U 316S; n-Tetradecan-1-oic acid; n-Tetradecanoic acid; n-Tetradecoic acid; [ChemIDplus]",
        "links": [],
        "cross_references": [
          {
            "type": "name_match",
            "text": "emery",
            "confidence": 1.0,
            "uuid": "9c489b3c-513f-41aa-b898-a2242b92d2b4",
            "name": "Emery",
            "url": "https://haz-map.com/Agents/478",
            "category": "agents"
          },
          {
            "type": "name_match",
            "text": "tridecane",
            "confidence": 1.0,
            "uuid": "e4ddfb3e-3599-4be4-af97-673f13655f25",
            "name": "Tridecane",
            "url": "https://haz-map.com/Agents/1788",
            "category": "agents"
          },
          {
            "type": "name_match",
            "text": "myristic acid",
            "confidence": 1.0,
            "uuid": "c9b816de-5aed-4ad4-94a7-749de582cdc8",
            "name": "Myristic acid",
            "url": "https://haz-map.com/Agents/6218",
            "category": "agents"
          }
        ]
      },
      "category": {
        "original_name": "Category",
        "value": "Organic Acids",
        "links": [],
        "cross_references": []
      },
      "description": {
        "original_name": "Description",
        "value": "White oily solid; [Hawley] Colorless, white, or faintly yellow solid; [CHEMINFO]",
        "links": [],
        "cross_references": []
      },
      "sourcesuses": {
        "original_name": "Sources/Uses",
        "value": "Found in most animal and vegetable fats; [Merck Index] Used as a flavor and fragrance in food, soaps, shaving creams, perfumes, and cosmetics; Also used in lubricants and coatings for anodized aluminum; [HSDB]",
        "links": [],
        "cross_references": [
          {
            "type": "name_match",
            "text": "aluminum",
            "confidence": 1.0,
            "uuid": "60ab7471-1af2-4a33-b727-63fa1e1fa189",
            "name": "Aluminum",
            "url": "https://haz-map.com/Agents/287",
            "category": "agents"
          }
        ]
      },
      "comments": {
        "original_name": "Comments",
        "value": "Emergency medical treatment: non-toxic ingestion; [HSDB] May cause skin and eye irritation; [CAMEO] In intravenous, lethal-dose animal studies, causes convulsions; [RTECS]",
        "links": [],
        "cross_references": [
          {
            "type": "name_match",
            "text": "convulsion",
            "confidence": 1.0,
            "uuid": "af2c36f8-707a-48e3-a62b-1aa07adc9b72",
            "name": "convulsion",
            "url": "https://haz-map.com/Findings/14",
            "category": "findings"
          }
        ]
      },
      "biomedical_references": {
        "original_name": "Biomedical References",
        "value": "Search PubMed",
        "links": [
          {
            "text": "Search PubMed",
            "url": "https://www.ncbi.nlm.nih.gov/pubmed?term=Myristic+acid%20AND%20human%5Bmh%5D%20AND%20%28Occupational%20Diseases%20%5Bmh%5D%20OR%20Occupational%20Exposure%20%5Bmh%5D%29%20%20AND%20%28tox%5Bsb%5D%29&cmd=search"
          }
        ],
        "cross_references": []
      }
    },
    "exposure_assessment": {
      "vapor_pressure": {
        "original_name": "Vapor Pressure",
        "value": "1.4E-06 mm Hg",
        "links": [],
        "cross_references": []
      },
      "odor_threshold_low": {
        "original_name": "Odor Threshold Low",
        "value": "10 ppm",
        "links": [],
        "cross_references": []
      },
      "explanatory_notes": {
        "original_name": "Explanatory Notes",
        "value": "Odor threshold (detection) from HSDB;",
        "links": [],
        "cross_references": []
      }
    },
    "diseases_processes_and_activities_linked_to_this_agent": {
      "processes": {
        "original_name": "Processes",
        "value": "Industrial Processes with risk of exposure: Aluminum Producing",
        "links": [
          {
            "text": "Aluminum Producing",
            "url": "https://haz-map.com/Processes/1"
          }
        ],
        "cross_references": [
          {
            "type": "url_match",
            "text": "Aluminum Producing",
            "url": "https://haz-map.com/Processes/1",
            "confidence": 1.0,
            "uuid": "a56d4fbd-892c-4396-b20b-d1f2ca539889",
            "name": "Aluminum Producing",
            "category": "processes"
          },
          {
            "type": "name_match",
            "text": "aluminum",
            "confidence": 1.0,
            "uuid": "60ab7471-1af2-4a33-b727-63fa1e1fa189",
            "name": "Aluminum",
            "url": "https://haz-map.com/Agents/287",
            "category": "agents"
          }
        ]
      }
    }
  },
  "cross_references": [
    {
      "type": "url_match",
      "text": "Aluminum Producing",
      "url": "https://haz-map.com/Processes/1",
      "confidence": 1.0,
      "uuid": "a56d4fbd-892c-4396-b20b-d1f2ca539889",
      "name": "Aluminum Producing",
      "category": "processes"
    },
    {
      "type": "name_match",
      "text": "convulsion",
      "confidence": 1.0,
      "uuid": "af2c36f8-707a-48e3-a62b-1aa07adc9b72",
      "name": "convulsion",
      "url": "https://haz-map.com/Findings/14",
      "category": "findings"
    },
    {
      "type": "name_match",
      "text": "aluminum",
      "confidence": 1.0,
      "uuid": "60ab7471-1af2-4a33-b727-63fa1e1fa189",
      "name": "Aluminum",
      "url": "https://haz-map.com/Agents/287",
      "category": "agents"
    },
    {
      "type": "name_match",
      "text": "emery",
      "confidence": 1.0,
      "uuid": "9c489b3c-513f-41aa-b898-a2242b92d2b4",
      "name": "Emery",
      "url": "https://haz-map.com/Agents/478",
      "category": "agents"
    },
    {
      "type": "name_match",
      "text": "tridecane",
      "confidence": 1.0,
      "uuid": "e4ddfb3e-3599-4be4-af97-673f13655f25",
      "name": "Tridecane",
      "url": "https://haz-map.com/Agents/1788",
      "category": "agents"
    },
    {
      "type": "name_match",
      "text": "myristic acid",
      "confidence": 1.0,
      "uuid": "c9b816de-5aed-4ad4-94a7-749de582cdc8",
      "name": "Myristic acid",
      "url": "https://haz-map.com/Agents/6218",
      "category": "agents"
    }
  ],
  "all_links": [
    {
      "text": "Search PubMed",
      "url": "https://www.ncbi.nlm.nih.gov/pubmed?term=Myristic+acid%20AND%20human%5Bmh%5D%20AND%20%28Occupational%20Diseases%20%5Bmh%5D%20OR%20Occupational%20Exposure%20%5Bmh%5D%29%20%20AND%20%28tox%5Bsb%5D%29&cmd=search"
    },
    {
      "text": "Aluminum Producing",
      "url": "https://haz-map.com/Processes/1"
    }
  ]
}