{
  "metadata": {
    "scraped_from": "https://haz-map.com/Agents/4700",
    "entity_name": "Di-2-octyl-p-phenylenediamine",
    "category": "agents",
    "uuid": "cabc589a-e30c-46a5-acba-0cc2532373b9",
    "scraped_at": "2025-07-23T19:43:37.042636"
  },
  "parsed_at": "2025-07-24T00:59:08.002518",
  "title": "Di-2-octyl-p-phenylenediamine",
  "sections": {
    "general": {
      "agent_name": {
        "original_name": "Agent Name",
        "value": "Di-2-octyl-p-phenylenediamine",
        "links": [],
        "cross_references": [
          {
            "type": "name_match",
            "text": "p-phenylenediamine",
            "confidence": 1.0,
            "uuid": "6eea604e-32b5-4d94-9c0d-591b37a6c204",
            "name": "p-Phenylenediamine",
            "url": "https://haz-map.com/Agents/229",
            "category": "agents"
          },
          {
            "type": "name_match",
            "text": "di-2-octyl-p-phenylenediamine",
            "confidence": 1.0,
            "uuid": "cabc589a-e30c-46a5-acba-0cc2532373b9",
            "name": "Di-2-octyl-p-phenylenediamine",
            "url": "https://haz-map.com/Agents/4700",
            "category": "agents"
          }
        ]
      },
      "cas_number": {
        "original_name": "CAS Number",
        "value": "103-96-8",
        "links": [],
        "cross_references": []
      },
      "formula": {
        "original_name": "Formula",
        "value": "C22-H40-N2",
        "links": [],
        "cross_references": []
      },
      "major_category": {
        "original_name": "Major Category",
        "value": "Plastics & Rubber",
        "links": [],
        "cross_references": []
      },
      "synonyms": {
        "original_name": "Synonyms",
        "value": "1,4-Benzenediamine, N,N'-bis(1-methylheptyl)-; Antozite 1; Elastozone 30; N,N'-Bis(1-methylheptyl)-1,4-benzenediamine; N,N'-Bis(1-methylheptyl)-p-phenylenediamine; N,N'-Bis(2-octyl)-p-phenylenediamine; N,N'-Di(1-methylheptyl)-p-phenylenediamine; N,N'-Di(2-octyl)-p-phenylenediamine; N,N'-Di(2-octyl)-para-phenylenediamine; Santoflex 217; Tenemene 30; UOP 288; p-Phenylenediamine, N,N'-bis(1-methylheptyl)-; [ChemIDplus]",
        "links": [],
        "cross_references": [
          {
            "type": "name_match",
            "text": "benzene",
            "confidence": 1.0,
            "uuid": "b05124de-5f34-4c14-8f04-ccb20c3780d9",
            "name": "Benzene",
            "url": "https://haz-map.com/Agents/5",
            "category": "agents"
          },
          {
            "type": "name_match",
            "text": "ozone",
            "confidence": 1.0,
            "uuid": "51922743-c4bf-490f-a638-9e4b33624111",
            "name": "Ozone",
            "url": "https://haz-map.com/Agents/68",
            "category": "agents"
          },
          {
            "type": "name_match",
            "text": "p-phenylenediamine",
            "confidence": 1.0,
            "uuid": "6eea604e-32b5-4d94-9c0d-591b37a6c204",
            "name": "p-Phenylenediamine",
            "url": "https://haz-map.com/Agents/229",
            "category": "agents"
          }
        ]
      },
      "category": {
        "original_name": "Category",
        "value": "Rubber Additives",
        "links": [],
        "cross_references": []
      },
      "description": {
        "original_name": "Description",
        "value": "White solid; [HSDB] Reddish-brown liquid; [MSDSonline]",
        "links": [],
        "cross_references": []
      },
      "sourcesuses": {
        "original_name": "Sources/Uses",
        "value": "Used as antioxidant and antiozonant for natural, isoprene, butadiene, and styrene-butadiene rubbers; [HSDB]",
        "links": [],
        "cross_references": [
          {
            "type": "name_match",
            "text": "styrene",
            "confidence": 1.0,
            "uuid": "03c5632f-5079-4688-82bd-0dacf3d0d36a",
            "name": "Styrene",
            "url": "https://haz-map.com/Agents/32",
            "category": "agents"
          },
          {
            "type": "name_match",
            "text": "isoprene",
            "confidence": 1.0,
            "uuid": "663c0f5b-0e75-4944-b1ed-340abc84b61b",
            "name": "Isoprene",
            "url": "https://haz-map.com/Agents/1572",
            "category": "agents"
          },
          {
            "type": "name_match",
            "text": "butadiene",
            "confidence": 1.0,
            "uuid": "f4fdb4ce-e062-4db5-8e5d-eba44b8a05be",
            "name": "Butadiene",
            "url": "https://haz-map.com/Agents/12505",
            "category": "agents"
          },
          {
            "type": "name_match",
            "text": "styrene-butadiene rubber",
            "confidence": 1.0,
            "uuid": "e1b32043-1256-434a-b8d0-4a51a151210e",
            "name": "Styrene-butadiene rubber",
            "url": "https://haz-map.com/Agents/17766",
            "category": "agents"
          }
        ]
      },
      "comments": {
        "original_name": "Comments",
        "value": "A mild skin irritant; Corrosive to eyes; [MSDSonline]",
        "links": [],
        "cross_references": []
      },
      "biomedical_references": {
        "original_name": "Biomedical References",
        "value": "Search PubMed",
        "links": [
          {
            "text": "Search PubMed",
            "url": "https://www.ncbi.nlm.nih.gov/pubmed?term=Di-2-octyl-p-phenylenediamine%20AND%20human%5Bmh%5D%20AND%20%28Occupational%20Diseases%20%5Bmh%5D%20OR%20Occupational%20Exposure%20%5Bmh%5D%29%20%20AND%20%28tox%5Bsb%5D%29&cmd=search"
          }
        ],
        "cross_references": []
      }
    },
    "exposure_assessment": {
      "vapor_pressure": {
        "original_name": "Vapor Pressure",
        "value": "5.25E-07 mm Hg",
        "links": [],
        "cross_references": []
      }
    },
    "diseases_processes_and_activities_linked_to_this_agent": {
      "other_information": {
        "original_name": "Other Information",
        "value": "No other related information on this agent was found.",
        "links": [],
        "cross_references": []
      }
    }
  },
  "cross_references": [
    {
      "type": "name_match",
      "text": "benzene",
      "confidence": 1.0,
      "uuid": "b05124de-5f34-4c14-8f04-ccb20c3780d9",
      "name": "Benzene",
      "url": "https://haz-map.com/Agents/5",
      "category": "agents"
    },
    {
      "type": "name_match",
      "text": "styrene",
      "confidence": 1.0,
      "uuid": "03c5632f-5079-4688-82bd-0dacf3d0d36a",
      "name": "Styrene",
      "url": "https://haz-map.com/Agents/32",
      "category": "agents"
    },
    {
      "type": "name_match",
      "text": "ozone",
      "confidence": 1.0,
      "uuid": "51922743-c4bf-490f-a638-9e4b33624111",
      "name": "Ozone",
      "url": "https://haz-map.com/Agents/68",
      "category": "agents"
    },
    {
      "type": "name_match",
      "text": "p-phenylenediamine",
      "confidence": 1.0,
      "uuid": "6eea604e-32b5-4d94-9c0d-591b37a6c204",
      "name": "p-Phenylenediamine",
      "url": "https://haz-map.com/Agents/229",
      "category": "agents"
    },
    {
      "type": "name_match",
      "text": "isoprene",
      "confidence": 1.0,
      "uuid": "663c0f5b-0e75-4944-b1ed-340abc84b61b",
      "name": "Isoprene",
      "url": "https://haz-map.com/Agents/1572",
      "category": "agents"
    },
    {
      "type": "name_match",
      "text": "di-2-octyl-p-phenylenediamine",
      "confidence": 1.0,
      "uuid": "cabc589a-e30c-46a5-acba-0cc2532373b9",
      "name": "Di-2-octyl-p-phenylenediamine",
      "url": "https://haz-map.com/Agents/4700",
      "category": "agents"
    },
    {
      "type": "name_match",
      "text": "butadiene",
      "confidence": 1.0,
      "uuid": "f4fdb4ce-e062-4db5-8e5d-eba44b8a05be",
      "name": "Butadiene",
      "url": "https://haz-map.com/Agents/12505",
      "category": "agents"
    },
    {
      "type": "name_match",
      "text": "styrene-butadiene rubber",
      "confidence": 1.0,
      "uuid": "e1b32043-1256-434a-b8d0-4a51a151210e",
      "name": "Styrene-butadiene rubber",
      "url": "https://haz-map.com/Agents/17766",
      "category": "agents"
    }
  ],
  "all_links": [
    {
      "text": "Search PubMed",
      "url": "https://www.ncbi.nlm.nih.gov/pubmed?term=Di-2-octyl-p-phenylenediamine%20AND%20human%5Bmh%5D%20AND%20%28Occupational%20Diseases%20%5Bmh%5D%20OR%20Occupational%20Exposure%20%5Bmh%5D%29%20%20AND%20%28tox%5Bsb%5D%29&cmd=search"
    }
  ]
}