{
  "metadata": {
    "scraped_from": "https://haz-map.com/Agents/2863",
    "entity_name": "1-Chloro-2-fluoroethane",
    "category": "agents",
    "uuid": "caed98f3-06d1-4dc3-bc8a-f677633d5854",
    "scraped_at": "2025-07-23T19:20:06.687995"
  },
  "parsed_at": "2025-07-24T01:11:54.347798",
  "title": "1-Chloro-2-fluoroethane",
  "sections": {
    "general": {
      "agent_name": {
        "original_name": "Agent Name",
        "value": "1-Chloro-2-fluoroethane",
        "links": [],
        "cross_references": [
          {
            "type": "name_match",
            "text": "ethane",
            "confidence": 1.0,
            "uuid": "5162cc8c-dfb9-4060-81ac-38a8cec7f9dd",
            "name": "Ethane",
            "url": "https://haz-map.com/Agents/1075",
            "category": "agents"
          },
          {
            "type": "name_match",
            "text": "1-chloro-2-fluoroethane",
            "confidence": 1.0,
            "uuid": "caed98f3-06d1-4dc3-bc8a-f677633d5854",
            "name": "1-Chloro-2-fluoroethane",
            "url": "https://haz-map.com/Agents/2863",
            "category": "agents"
          },
          {
            "type": "name_match",
            "text": "fluoroethane",
            "confidence": 1.0,
            "uuid": "6608cb94-16b3-438d-8d0f-88e816195bd4",
            "name": "Fluoroethane",
            "url": "https://haz-map.com/Agents/20780",
            "category": "agents"
          }
        ]
      },
      "cas_number": {
        "original_name": "CAS Number",
        "value": "762-50-5",
        "links": [],
        "cross_references": []
      },
      "formula": {
        "original_name": "Formula",
        "value": "C2-H4-Cl-F",
        "links": [],
        "cross_references": []
      },
      "major_category": {
        "original_name": "Major Category",
        "value": "Solvents",
        "links": [],
        "cross_references": []
      },
      "synonyms": {
        "original_name": "Synonyms",
        "value": "Ethane, 1-chloro-2-fluoro-; TL 936; [ChemIDplus] FC-151; [MSDSonline]",
        "links": [],
        "cross_references": [
          {
            "type": "name_match",
            "text": "ethane",
            "confidence": 1.0,
            "uuid": "5162cc8c-dfb9-4060-81ac-38a8cec7f9dd",
            "name": "Ethane",
            "url": "https://haz-map.com/Agents/1075",
            "category": "agents"
          }
        ]
      },
      "category": {
        "original_name": "Category",
        "value": "Chlorofluorocarbons",
        "links": [],
        "cross_references": [
          {
            "type": "name_match",
            "text": "chlorofluorocarbons",
            "confidence": 1.0,
            "uuid": "c53ddd7f-3e80-4621-be68-94100ed642c8",
            "name": "CHLOROFLUOROCARBONS",
            "url": "https://haz-map.com/Agents/706",
            "category": "agents"
          },
          {
            "type": "name_match",
            "text": "carbon",
            "confidence": 1.0,
            "uuid": "b53f8815-ee80-40ef-b4aa-3b000e17dab5",
            "name": "Carbon",
            "url": "https://haz-map.com/Agents/1891",
            "category": "agents"
          }
        ]
      },
      "description": {
        "original_name": "Description",
        "value": "Colorless liquid; [MSDSonline]",
        "links": [],
        "cross_references": []
      },
      "sourcesuses": {
        "original_name": "Sources/Uses",
        "value": "Fluorocarbons are used in refrigeration and air conditioning; [HSDB]",
        "links": [],
        "cross_references": [
          {
            "type": "name_match",
            "text": "carbon",
            "confidence": 1.0,
            "uuid": "b53f8815-ee80-40ef-b4aa-3b000e17dab5",
            "name": "Carbon",
            "url": "https://haz-map.com/Agents/1891",
            "category": "agents"
          }
        ]
      },
      "comments": {
        "original_name": "Comments",
        "value": "Fluorocarbon refrigerants cause confusion and CNS depression in animals exposed to high concentrations; [HSDB] LCLo (rat) = 13 ppm in a 4-hour exposure that causes seizures or lowering of the seizure threshold; [RTECS]",
        "links": [],
        "cross_references": [
          {
            "type": "name_match",
            "text": "confusion",
            "confidence": 1.0,
            "uuid": "cc9d5a44-5788-4530-9989-5b190b74590b",
            "name": "confusion",
            "url": "https://haz-map.com/Findings/135",
            "category": "findings"
          },
          {
            "type": "name_match",
            "text": "carbon",
            "confidence": 1.0,
            "uuid": "b53f8815-ee80-40ef-b4aa-3b000e17dab5",
            "name": "Carbon",
            "url": "https://haz-map.com/Agents/1891",
            "category": "agents"
          }
        ]
      },
      "biomedical_references": {
        "original_name": "Biomedical References",
        "value": "Search PubMed",
        "links": [
          {
            "text": "Search PubMed",
            "url": "https://www.ncbi.nlm.nih.gov/pubmed?term=1-Chloro-2-fluoroethane%20AND%20human%5Bmh%5D%20AND%20%28Occupational%20Diseases%20%5Bmh%5D%20OR%20Occupational%20Exposure%20%5Bmh%5D%29%20%20AND%20%28tox%5Bsb%5D%29&cmd=search"
          }
        ],
        "cross_references": []
      }
    },
    "exposure_assessment": {
      "vapor_pressure": {
        "original_name": "Vapor Pressure",
        "value": "259 mm Hg",
        "links": [],
        "cross_references": []
      },
      "lethal_concentration": {
        "original_name": "Lethal Concentration",
        "value": "LCLo (rat) = 13 ppm/4h",
        "links": [],
        "cross_references": []
      },
      "explanatory_notes": {
        "original_name": "Explanatory Notes",
        "value": "VP from ChemIDplus;",
        "links": [],
        "cross_references": []
      }
    },
    "adverse_effects": {
      "neurotoxin": {
        "original_name": "Neurotoxin",
        "value": "Acute solvent syndrome",
        "links": [],
        "cross_references": []
      }
    },
    "diseases_processes_and_activities_linked_to_this_agent": {
      "diseases": {
        "original_name": "Diseases",
        "value": "Occupational diseases associated with exposure to this agent: Solvents, acute toxic effect",
        "links": [
          {
            "text": "Solvents, acute toxic effect",
            "url": "https://haz-map.com/Diseases/326"
          }
        ],
        "cross_references": [
          {
            "type": "url_match",
            "text": "Solvents, acute toxic effect",
            "url": "https://haz-map.com/Diseases/326",
            "confidence": 1.0,
            "uuid": "581e90e3-9d0c-45f0-aa6c-3468c28da129",
            "name": "Solvents, acute toxic effect",
            "category": "diseases"
          }
        ]
      }
    }
  },
  "cross_references": [
    {
      "type": "url_match",
      "text": "Solvents, acute toxic effect",
      "url": "https://haz-map.com/Diseases/326",
      "confidence": 1.0,
      "uuid": "581e90e3-9d0c-45f0-aa6c-3468c28da129",
      "name": "Solvents, acute toxic effect",
      "category": "diseases"
    },
    {
      "type": "name_match",
      "text": "confusion",
      "confidence": 1.0,
      "uuid": "cc9d5a44-5788-4530-9989-5b190b74590b",
      "name": "confusion",
      "url": "https://haz-map.com/Findings/135",
      "category": "findings"
    },
    {
      "type": "name_match",
      "text": "chlorofluorocarbons",
      "confidence": 1.0,
      "uuid": "c53ddd7f-3e80-4621-be68-94100ed642c8",
      "name": "CHLOROFLUOROCARBONS",
      "url": "https://haz-map.com/Agents/706",
      "category": "agents"
    },
    {
      "type": "name_match",
      "text": "ethane",
      "confidence": 1.0,
      "uuid": "5162cc8c-dfb9-4060-81ac-38a8cec7f9dd",
      "name": "Ethane",
      "url": "https://haz-map.com/Agents/1075",
      "category": "agents"
    },
    {
      "type": "name_match",
      "text": "carbon",
      "confidence": 1.0,
      "uuid": "b53f8815-ee80-40ef-b4aa-3b000e17dab5",
      "name": "Carbon",
      "url": "https://haz-map.com/Agents/1891",
      "category": "agents"
    },
    {
      "type": "name_match",
      "text": "1-chloro-2-fluoroethane",
      "confidence": 1.0,
      "uuid": "caed98f3-06d1-4dc3-bc8a-f677633d5854",
      "name": "1-Chloro-2-fluoroethane",
      "url": "https://haz-map.com/Agents/2863",
      "category": "agents"
    },
    {
      "type": "name_match",
      "text": "fluoroethane",
      "confidence": 1.0,
      "uuid": "6608cb94-16b3-438d-8d0f-88e816195bd4",
      "name": "Fluoroethane",
      "url": "https://haz-map.com/Agents/20780",
      "category": "agents"
    }
  ],
  "all_links": [
    {
      "text": "Search PubMed",
      "url": "https://www.ncbi.nlm.nih.gov/pubmed?term=1-Chloro-2-fluoroethane%20AND%20human%5Bmh%5D%20AND%20%28Occupational%20Diseases%20%5Bmh%5D%20OR%20Occupational%20Exposure%20%5Bmh%5D%29%20%20AND%20%28tox%5Bsb%5D%29&cmd=search"
    },
    {
      "text": "Solvents, acute toxic effect",
      "url": "https://haz-map.com/Diseases/326"
    }
  ]
}