{
  "metadata": {
    "scraped_from": "https://haz-map.com/Agents/12174",
    "entity_name": "Benzeneboronic acid",
    "category": "agents",
    "uuid": "cb3e6816-156c-444b-a856-da280284edc2",
    "scraped_at": "2025-07-23T21:06:13.422052"
  },
  "parsed_at": "2025-07-24T01:12:47.967089",
  "title": "Benzeneboronic acid",
  "sections": {
    "general": {
      "agent_name": {
        "original_name": "Agent Name",
        "value": "Benzeneboronic acid",
        "links": [],
        "cross_references": [
          {
            "type": "name_match",
            "text": "benzene",
            "confidence": 1.0,
            "uuid": "b05124de-5f34-4c14-8f04-ccb20c3780d9",
            "name": "Benzene",
            "url": "https://haz-map.com/Agents/5",
            "category": "agents"
          },
          {
            "type": "name_match",
            "text": "boron",
            "confidence": 1.0,
            "uuid": "539de4b5-2187-4144-ac60-98c577b00bca",
            "name": "Boron",
            "url": "https://haz-map.com/Agents/2001",
            "category": "agents"
          },
          {
            "type": "name_match",
            "text": "benzeneboronic acid",
            "confidence": 1.0,
            "uuid": "cb3e6816-156c-444b-a856-da280284edc2",
            "name": "Benzeneboronic acid",
            "url": "https://haz-map.com/Agents/12174",
            "category": "agents"
          }
        ]
      },
      "cas_number": {
        "original_name": "CAS Number",
        "value": "98-80-6",
        "links": [],
        "cross_references": []
      },
      "formula": {
        "original_name": "Formula",
        "value": "C6-H7-B-O2",
        "links": [],
        "cross_references": []
      },
      "major_category": {
        "original_name": "Major Category",
        "value": "Metals",
        "links": [],
        "cross_references": []
      },
      "synonyms": {
        "original_name": "Synonyms",
        "value": "Acide phenylborique [French]; Boric acid, phenyl-; Borophenylic acid; Dihydroxyphenylborane; Kyselina fenylborita [Czech]; Phenylboric acid; Phenylboronic acid; Phenyldihydroxyborane; T-500; Boronic acid, B-phenyl-; Boronic acid, phenyl-; Dihydroxy(phenyl)borane; [ChemIDplus] Phenylboron dihydroxide; [Merck Index]",
        "links": [],
        "cross_references": [
          {
            "type": "name_match",
            "text": "boric acid",
            "confidence": 1.0,
            "uuid": "6ceb7ad0-b349-47a5-abd4-99fd72800e53",
            "name": "Boric acid",
            "url": "https://haz-map.com/Agents/1374",
            "category": "agents"
          },
          {
            "type": "name_match",
            "text": "boron",
            "confidence": 1.0,
            "uuid": "539de4b5-2187-4144-ac60-98c577b00bca",
            "name": "Boron",
            "url": "https://haz-map.com/Agents/2001",
            "category": "agents"
          },
          {
            "type": "name_match",
            "text": "borane",
            "confidence": 1.0,
            "uuid": "a5e38655-49dd-4cdf-bbc0-f37c42350b45",
            "name": "Borane",
            "url": "https://haz-map.com/Agents/8317",
            "category": "agents"
          }
        ]
      },
      "category": {
        "original_name": "Category",
        "value": "Metalloid Compounds (Boron)",
        "links": [],
        "cross_references": [
          {
            "type": "name_match",
            "text": "boron",
            "confidence": 1.0,
            "uuid": "539de4b5-2187-4144-ac60-98c577b00bca",
            "name": "Boron",
            "url": "https://haz-map.com/Agents/2001",
            "category": "agents"
          }
        ]
      },
      "description": {
        "original_name": "Description",
        "value": "Solid; [Merck Index] White to off-white hygroscopic solid; [Acros Organics MSDS]",
        "links": [],
        "cross_references": []
      },
      "comments": {
        "original_name": "Comments",
        "value": "Spontaneously converts to benzene boronic anhydride (C6-H5-B-O) in dry air; [Merck Index] An irritant; Harmful by ingestion; [Acros Organics MSDS] See \"Boron.\"",
        "links": [],
        "cross_references": [
          {
            "type": "name_match",
            "text": "benzene",
            "confidence": 1.0,
            "uuid": "b05124de-5f34-4c14-8f04-ccb20c3780d9",
            "name": "Benzene",
            "url": "https://haz-map.com/Agents/5",
            "category": "agents"
          },
          {
            "type": "name_match",
            "text": "boron",
            "confidence": 1.0,
            "uuid": "539de4b5-2187-4144-ac60-98c577b00bca",
            "name": "Boron",
            "url": "https://haz-map.com/Agents/2001",
            "category": "agents"
          }
        ]
      },
      "biomedical_references": {
        "original_name": "Biomedical References",
        "value": "Search PubMed",
        "links": [
          {
            "text": "Search PubMed",
            "url": "https://www.ncbi.nlm.nih.gov/pubmed?term=Benzeneboronic+acid%20AND%20human%5Bmh%5D%20AND%20%28Occupational%20Diseases%20%5Bmh%5D%20OR%20Occupational%20Exposure%20%5Bmh%5D%29%20%20AND%20%28tox%5Bsb%5D%29&cmd=search"
          }
        ],
        "cross_references": []
      }
    },
    "exposure_assessment": {
      "vapor_pressure": {
        "original_name": "Vapor Pressure",
        "value": "8.56E-06 mm Hg",
        "links": [],
        "cross_references": []
      }
    },
    "diseases_processes_and_activities_linked_to_this_agent": {
      "other_information": {
        "original_name": "Other Information",
        "value": "No other related information on this agent was found.",
        "links": [],
        "cross_references": []
      }
    }
  },
  "cross_references": [
    {
      "type": "name_match",
      "text": "benzene",
      "confidence": 1.0,
      "uuid": "b05124de-5f34-4c14-8f04-ccb20c3780d9",
      "name": "Benzene",
      "url": "https://haz-map.com/Agents/5",
      "category": "agents"
    },
    {
      "type": "name_match",
      "text": "boric acid",
      "confidence": 1.0,
      "uuid": "6ceb7ad0-b349-47a5-abd4-99fd72800e53",
      "name": "Boric acid",
      "url": "https://haz-map.com/Agents/1374",
      "category": "agents"
    },
    {
      "type": "name_match",
      "text": "boron",
      "confidence": 1.0,
      "uuid": "539de4b5-2187-4144-ac60-98c577b00bca",
      "name": "Boron",
      "url": "https://haz-map.com/Agents/2001",
      "category": "agents"
    },
    {
      "type": "name_match",
      "text": "borane",
      "confidence": 1.0,
      "uuid": "a5e38655-49dd-4cdf-bbc0-f37c42350b45",
      "name": "Borane",
      "url": "https://haz-map.com/Agents/8317",
      "category": "agents"
    },
    {
      "type": "name_match",
      "text": "benzeneboronic acid",
      "confidence": 1.0,
      "uuid": "cb3e6816-156c-444b-a856-da280284edc2",
      "name": "Benzeneboronic acid",
      "url": "https://haz-map.com/Agents/12174",
      "category": "agents"
    }
  ],
  "all_links": [
    {
      "text": "Search PubMed",
      "url": "https://www.ncbi.nlm.nih.gov/pubmed?term=Benzeneboronic+acid%20AND%20human%5Bmh%5D%20AND%20%28Occupational%20Diseases%20%5Bmh%5D%20OR%20Occupational%20Exposure%20%5Bmh%5D%29%20%20AND%20%28tox%5Bsb%5D%29&cmd=search"
    }
  ]
}