{
  "metadata": {
    "scraped_from": "https://haz-map.com/Agents/6918",
    "entity_name": "Pyriminil",
    "category": "agents",
    "uuid": "cb4d76c5-de24-4ce9-99cb-3696e3d2c75c",
    "scraped_at": "2025-07-23T20:06:55.835143"
  },
  "parsed_at": "2025-07-24T01:18:41.858663",
  "title": "Pyriminil",
  "sections": {
    "general": {
      "agent_name": {
        "original_name": "Agent Name",
        "value": "Pyriminil",
        "links": [],
        "cross_references": [
          {
            "type": "name_match",
            "text": "pyriminil",
            "confidence": 1.0,
            "uuid": "cb4d76c5-de24-4ce9-99cb-3696e3d2c75c",
            "name": "Pyriminil",
            "url": "https://haz-map.com/Agents/6918",
            "category": "agents"
          }
        ]
      },
      "cas_number": {
        "original_name": "CAS Number",
        "value": "53558-25-1",
        "links": [],
        "cross_references": []
      },
      "formula": {
        "original_name": "Formula",
        "value": "C13-H12-N4-O3",
        "links": [],
        "cross_references": []
      },
      "major_category": {
        "original_name": "Major Category",
        "value": "Pesticides",
        "links": [],
        "cross_references": []
      },
      "synonyms": {
        "original_name": "Synonyms",
        "value": "1-(3-Pyridylmethyl)-3-(4-nitrophenyl)urea; 1-(4-Nitrophenyl)-N'-(3-pyridinylmethyl)urea; DLP 787; N-(4-Nitrophenyl)-N'-(3-pyridinylmethyl)urea; N-3-Pyridylmethyl-N'-p-nitrophenylurea; One Time; PNU; Pyriminyl; Pyrinuron; Pyrinuron [ANSI]; RH-787; Vacor; Urea, 1-nitrophenyl-3-(3-pyridylmethyl)-; Urea, N-(4-nitrophenyl)-N'-(3-pyridinylmethyl)-; [ChemIDplus]",
        "links": [],
        "cross_references": [
          {
            "type": "name_match",
            "text": "urea",
            "confidence": 1.0,
            "uuid": "a92a6129-bddd-4f79-9a78-136812ae610f",
            "name": "Urea",
            "url": "https://haz-map.com/Agents/2078",
            "category": "agents"
          }
        ]
      },
      "category": {
        "original_name": "Category",
        "value": "Rodenticides",
        "links": [],
        "cross_references": []
      },
      "description": {
        "original_name": "Description",
        "value": "Yellow or yellow-green solid; [HSDB] Light yellow flakes; [MSDSonline]",
        "links": [],
        "cross_references": [
          {
            "type": "name_match",
            "text": "ht",
            "confidence": 1.0,
            "uuid": "764df367-8d53-4a11-81a2-31ccfe122a8d",
            "name": "HT",
            "url": "https://haz-map.com/Agents/2168",
            "category": "agents"
          }
        ]
      },
      "sourcesuses": {
        "original_name": "Sources/Uses",
        "value": "Used as rodenticide; Very effective on rodents resistant to anticoagulants; Commercial distribution voluntarily suspended by Rohm and Haas Co. in 1979 following many reported human poisonings; [HSDB] Pyrinuron (Pyriminil, Vacor) is a chemical compound formerly used as a rodenticide. Commercial distribution was voluntarily suspended in 1979 and it is not approved by the Environmental Protection Agency for use in the United States. If it is ingested by humans in high doses, it may selectively destroy insulin-producing beta cells in the pancreas causing type 1 diabetes. [Wikipedia]",
        "links": [],
        "cross_references": [
          {
            "type": "name_match",
            "text": "mica",
            "confidence": 1.0,
            "uuid": "433f26f1-c399-4596-b179-ce3843cfd465",
            "name": "Mica",
            "url": "https://haz-map.com/Agents/621",
            "category": "agents"
          },
          {
            "type": "name_match",
            "text": "iron",
            "confidence": 1.0,
            "uuid": "a6101f16-ec31-4d6c-af41-cbdbda5b1c7c",
            "name": "Iron",
            "url": "https://haz-map.com/Agents/1993",
            "category": "agents"
          },
          {
            "type": "name_match",
            "text": "pyriminil",
            "confidence": 1.0,
            "uuid": "cb4d76c5-de24-4ce9-99cb-3696e3d2c75c",
            "name": "Pyriminil",
            "url": "https://haz-map.com/Agents/6918",
            "category": "agents"
          },
          {
            "type": "name_match",
            "text": "insulin",
            "confidence": 1.0,
            "uuid": "345dc11b-0305-471f-944b-d16377c5a944",
            "name": "Insulin",
            "url": "https://haz-map.com/Agents/14894",
            "category": "agents"
          }
        ]
      },
      "comments": {
        "original_name": "Comments",
        "value": "Destroys pancreatic beta cells; In human poisoning cases after ingestion, caused orthostatic hypotension, autonomic dysfunction, encephalopathy, peripheral neuropathy, hyperglycemia, and ketoacidosis; Systemic poisoning not reported after inhalation or skin absorption; A dose as low as 19 grams may be fatal; [HSDB] Humans who survive poisoning have developed insulin-dependent diabetes mellitus; [CAMEO]",
        "links": [],
        "cross_references": [
          {
            "type": "name_match",
            "text": "neuropathy",
            "confidence": 1.0,
            "uuid": "8708368f-f68b-4a51-b1ea-01982070ed28",
            "name": "neuropathy",
            "url": "https://haz-map.com/Findings/85",
            "category": "findings"
          },
          {
            "type": "name_match",
            "text": "insulin",
            "confidence": 1.0,
            "uuid": "345dc11b-0305-471f-944b-d16377c5a944",
            "name": "Insulin",
            "url": "https://haz-map.com/Agents/14894",
            "category": "agents"
          }
        ]
      },
      "restricted": {
        "original_name": "Restricted",
        "value": "No longer registered with the EPA for use in the US; [HSDB]",
        "links": [],
        "cross_references": []
      },
      "biomedical_references": {
        "original_name": "Biomedical References",
        "value": "Search PubMed",
        "links": [
          {
            "text": "Search PubMed",
            "url": "https://www.ncbi.nlm.nih.gov/pubmed?term=Pyriminil%20AND%20human%5Bmh%5D%20AND%20%28Occupational%20Diseases%20%5Bmh%5D%20OR%20Occupational%20Exposure%20%5Bmh%5D%29%20%20AND%20%28tox%5Bsb%5D%29&cmd=search"
          }
        ],
        "cross_references": []
      }
    },
    "exposure_assessment": {
      "vapor_pressure": {
        "original_name": "Vapor Pressure",
        "value": "3.39E-09 mm Hg",
        "links": [],
        "cross_references": []
      }
    },
    "adverse_effects": {
      "neurotoxin": {
        "original_name": "Neurotoxin",
        "value": "Other CNS neurotoxin",
        "links": [],
        "cross_references": []
      }
    },
    "diseases_processes_and_activities_linked_to_this_agent": {
      "processes": {
        "original_name": "Processes",
        "value": "Industrial Processes with risk of exposure: Farming (Pesticides)",
        "links": [
          {
            "text": "Farming (Pesticides)",
            "url": "https://haz-map.com/Processes/218"
          }
        ],
        "cross_references": [
          {
            "type": "url_match",
            "text": "Farming (Pesticides)",
            "url": "https://haz-map.com/Processes/218",
            "confidence": 1.0,
            "uuid": "cf1e5815-c9bb-4917-82a5-391848170b7e",
            "name": "Farming (Pesticides)",
            "category": "processes"
          }
        ]
      }
    }
  },
  "cross_references": [
    {
      "type": "url_match",
      "text": "Farming (Pesticides)",
      "url": "https://haz-map.com/Processes/218",
      "confidence": 1.0,
      "uuid": "cf1e5815-c9bb-4917-82a5-391848170b7e",
      "name": "Farming (Pesticides)",
      "category": "processes"
    },
    {
      "type": "name_match",
      "text": "neuropathy",
      "confidence": 1.0,
      "uuid": "8708368f-f68b-4a51-b1ea-01982070ed28",
      "name": "neuropathy",
      "url": "https://haz-map.com/Findings/85",
      "category": "findings"
    },
    {
      "type": "name_match",
      "text": "mica",
      "confidence": 1.0,
      "uuid": "433f26f1-c399-4596-b179-ce3843cfd465",
      "name": "Mica",
      "url": "https://haz-map.com/Agents/621",
      "category": "agents"
    },
    {
      "type": "name_match",
      "text": "iron",
      "confidence": 1.0,
      "uuid": "a6101f16-ec31-4d6c-af41-cbdbda5b1c7c",
      "name": "Iron",
      "url": "https://haz-map.com/Agents/1993",
      "category": "agents"
    },
    {
      "type": "name_match",
      "text": "urea",
      "confidence": 1.0,
      "uuid": "a92a6129-bddd-4f79-9a78-136812ae610f",
      "name": "Urea",
      "url": "https://haz-map.com/Agents/2078",
      "category": "agents"
    },
    {
      "type": "name_match",
      "text": "ht",
      "confidence": 1.0,
      "uuid": "764df367-8d53-4a11-81a2-31ccfe122a8d",
      "name": "HT",
      "url": "https://haz-map.com/Agents/2168",
      "category": "agents"
    },
    {
      "type": "name_match",
      "text": "pyriminil",
      "confidence": 1.0,
      "uuid": "cb4d76c5-de24-4ce9-99cb-3696e3d2c75c",
      "name": "Pyriminil",
      "url": "https://haz-map.com/Agents/6918",
      "category": "agents"
    },
    {
      "type": "name_match",
      "text": "insulin",
      "confidence": 1.0,
      "uuid": "345dc11b-0305-471f-944b-d16377c5a944",
      "name": "Insulin",
      "url": "https://haz-map.com/Agents/14894",
      "category": "agents"
    }
  ],
  "all_links": [
    {
      "text": "Search PubMed",
      "url": "https://www.ncbi.nlm.nih.gov/pubmed?term=Pyriminil%20AND%20human%5Bmh%5D%20AND%20%28Occupational%20Diseases%20%5Bmh%5D%20OR%20Occupational%20Exposure%20%5Bmh%5D%29%20%20AND%20%28tox%5Bsb%5D%29&cmd=search"
    },
    {
      "text": "Farming (Pesticides)",
      "url": "https://haz-map.com/Processes/218"
    }
  ]
}