{
  "metadata": {
    "scraped_from": "https://haz-map.com/Agents/11354",
    "entity_name": "Acenaphthylene",
    "category": "agents",
    "uuid": "cb63a68e-45f1-4807-b1fb-4f4bf24a42d2",
    "scraped_at": "2025-07-23T20:58:33.178017"
  },
  "parsed_at": "2025-07-24T01:13:35.320133",
  "title": "Acenaphthylene",
  "sections": {
    "general": {
      "agent_name": {
        "original_name": "Agent Name",
        "value": "Acenaphthylene",
        "links": [],
        "cross_references": [
          {
            "type": "name_match",
            "text": "ht",
            "confidence": 1.0,
            "uuid": "764df367-8d53-4a11-81a2-31ccfe122a8d",
            "name": "HT",
            "url": "https://haz-map.com/Agents/2168",
            "category": "agents"
          },
          {
            "type": "name_match",
            "text": "acenaphthylene",
            "confidence": 1.0,
            "uuid": "cb63a68e-45f1-4807-b1fb-4f4bf24a42d2",
            "name": "Acenaphthylene",
            "url": "https://haz-map.com/Agents/11354",
            "category": "agents"
          }
        ]
      },
      "cas_number": {
        "original_name": "CAS Number",
        "value": "208-96-8",
        "links": [],
        "cross_references": []
      },
      "formula": {
        "original_name": "Formula",
        "value": "C12-H8",
        "links": [],
        "cross_references": []
      },
      "major_category": {
        "original_name": "Major Category",
        "value": "Other Classes",
        "links": [],
        "cross_references": []
      },
      "synonyms": {
        "original_name": "Synonyms",
        "value": "Acenaphthalene; Cyclopenta(de)naphthalene; [ChemIDplus]",
        "links": [],
        "cross_references": [
          {
            "type": "name_match",
            "text": "naphthalene",
            "confidence": 1.0,
            "uuid": "433cf489-5423-4297-a38e-6e755a9d458e",
            "name": "Naphthalene",
            "url": "https://haz-map.com/Agents/46",
            "category": "agents"
          },
          {
            "type": "name_match",
            "text": "ht",
            "confidence": 1.0,
            "uuid": "764df367-8d53-4a11-81a2-31ccfe122a8d",
            "name": "HT",
            "url": "https://haz-map.com/Agents/2168",
            "category": "agents"
          }
        ]
      },
      "category": {
        "original_name": "Category",
        "value": "Polycyclic Aromatic Hydrocarbons",
        "links": [],
        "cross_references": [
          {
            "type": "name_match",
            "text": "polycyclic aromatic hydrocarbons",
            "confidence": 1.0,
            "uuid": "0f103271-339e-42e1-80e3-bf90a8be7084",
            "name": "POLYCYCLIC AROMATIC HYDROCARBONS",
            "url": "https://haz-map.com/Agents/720",
            "category": "agents"
          },
          {
            "type": "name_match",
            "text": "carbon",
            "confidence": 1.0,
            "uuid": "b53f8815-ee80-40ef-b4aa-3b000e17dab5",
            "name": "Carbon",
            "url": "https://haz-map.com/Agents/1891",
            "category": "agents"
          },
          {
            "type": "fuzzy_match",
            "text": "aromatic hydrocarbons",
            "matched_name": "Aromatic hydrocarbons, C9-C11",
            "confidence": 0.7509578544061303,
            "uuid": "1e86d79b-784d-40c4-8412-39a4432a7a75",
            "category": "agents",
            "url": "https://haz-map.com/Agents/20258"
          },
          {
            "type": "fuzzy_match",
            "text": "hydrocarbons",
            "matched_name": "Hydrocarbons, C>3",
            "confidence": 0.7100840336134454,
            "uuid": "8eaa37ac-3931-44e4-9242-2734127fd661",
            "category": "agents",
            "url": "https://haz-map.com/Agents/14795"
          }
        ]
      },
      "description": {
        "original_name": "Description",
        "value": "Colorless solid; [CAMEO] Light brown powder; [Alfa Aesar MSDS]",
        "links": [],
        "cross_references": [
          {
            "type": "name_match",
            "text": "ht",
            "confidence": 1.0,
            "uuid": "764df367-8d53-4a11-81a2-31ccfe122a8d",
            "name": "HT",
            "url": "https://haz-map.com/Agents/2168",
            "category": "agents"
          }
        ]
      },
      "sourcesuses": {
        "original_name": "Sources/Uses",
        "value": "Used in insecticides and fungicides and in the manufacture of dyes and plastics; [CAMEO] Present in crude oil and coal tar; Produced during combustion (including natural fires), petroleum refining, and coal tar distillation; Has been detected in the atmosphere of a lumber creosote impregnation plant, at the coal preparation area of a solvent refined coal pilot plant, in an aluminum plant, and in smokehouses; [HSDB] Used as an intermediate for resins; [INCHEM EHC]",
        "links": [],
        "cross_references": [
          {
            "type": "name_match",
            "text": "crude oil",
            "confidence": 1.0,
            "uuid": "3c53214b-a11f-42b3-885f-2328e6242433",
            "name": "Crude oil",
            "url": "https://haz-map.com/Agents/48",
            "category": "agents"
          },
          {
            "type": "name_match",
            "text": "aluminum",
            "confidence": 1.0,
            "uuid": "60ab7471-1af2-4a33-b727-63fa1e1fa189",
            "name": "Aluminum",
            "url": "https://haz-map.com/Agents/287",
            "category": "agents"
          },
          {
            "type": "name_match",
            "text": "fungicides",
            "confidence": 1.0,
            "uuid": "f4a9c1e1-4d57-4480-be97-d3590d38ce39",
            "name": "FUNGICIDES",
            "url": "https://haz-map.com/Agents/763",
            "category": "agents"
          },
          {
            "type": "name_match",
            "text": "coal tar",
            "confidence": 1.0,
            "uuid": "df40f58d-45ab-44c5-8e73-a9916bba6e2c",
            "name": "Coal tar",
            "url": "https://haz-map.com/Agents/1575",
            "category": "agents"
          },
          {
            "type": "name_match",
            "text": "fungi",
            "confidence": 1.0,
            "uuid": "e0d489cb-bfee-4aee-b665-999c017268a2",
            "name": "Fungi",
            "url": "https://haz-map.com/Agents/1988",
            "category": "agents"
          },
          {
            "type": "name_match",
            "text": "oleum",
            "confidence": 1.0,
            "uuid": "12af84ee-bcf0-416d-9220-7c4c6dc330f1",
            "name": "Oleum",
            "url": "https://haz-map.com/Agents/2227",
            "category": "agents"
          },
          {
            "type": "fuzzy_match",
            "text": "coal tar distillation",
            "matched_name": "Coal-tar distillation",
            "confidence": 0.9583333333333333,
            "uuid": "7345cb90-edea-48a7-a6ff-f9898940920f",
            "category": "agents",
            "url": "https://haz-map.com/Agents/19011"
          }
        ]
      },
      "comments": {
        "original_name": "Comments",
        "value": "May cause irritation; Harmful by ingestion; [Sigma-Aldrich MSDS] See \"POLYCYCLIC AROMATIC HYDROCARBONS.\"",
        "links": [],
        "cross_references": [
          {
            "type": "name_match",
            "text": "polycyclic aromatic hydrocarbons",
            "confidence": 1.0,
            "uuid": "0f103271-339e-42e1-80e3-bf90a8be7084",
            "name": "POLYCYCLIC AROMATIC HYDROCARBONS",
            "url": "https://haz-map.com/Agents/720",
            "category": "agents"
          },
          {
            "type": "name_match",
            "text": "carbon",
            "confidence": 1.0,
            "uuid": "b53f8815-ee80-40ef-b4aa-3b000e17dab5",
            "name": "Carbon",
            "url": "https://haz-map.com/Agents/1891",
            "category": "agents"
          },
          {
            "type": "fuzzy_match",
            "text": "aromatic hydrocarbons",
            "matched_name": "Aromatic hydrocarbons, C9-C11",
            "confidence": 0.7509578544061303,
            "uuid": "1e86d79b-784d-40c4-8412-39a4432a7a75",
            "category": "agents",
            "url": "https://haz-map.com/Agents/20258"
          },
          {
            "type": "fuzzy_match",
            "text": "hydrocarbons",
            "matched_name": "Hydrocarbons, C>3",
            "confidence": 0.7100840336134454,
            "uuid": "8eaa37ac-3931-44e4-9242-2734127fd661",
            "category": "agents",
            "url": "https://haz-map.com/Agents/14795"
          }
        ]
      },
      "biomedical_references": {
        "original_name": "Biomedical References",
        "value": "Search PubMed",
        "links": [
          {
            "text": "Search PubMed",
            "url": "https://www.ncbi.nlm.nih.gov/pubmed?term=Acenaphthylene%20AND%20human%5Bmh%5D%20AND%20%28Occupational%20Diseases%20%5Bmh%5D%20OR%20Occupational%20Exposure%20%5Bmh%5D%29%20%20AND%20%28tox%5Bsb%5D%29&cmd=search"
          }
        ],
        "cross_references": []
      }
    },
    "exposure_assessment": {
      "vapor_pressure": {
        "original_name": "Vapor Pressure",
        "value": "0.00668 mm Hg",
        "links": [],
        "cross_references": []
      }
    },
    "diseases_processes_and_activities_linked_to_this_agent": {
      "processes": {
        "original_name": "Processes",
        "value": "Industrial Processes with risk of exposure: Aluminum Producing Applying Wood Preservatives Petroleum Production and Refining",
        "links": [
          {
            "text": "Aluminum Producing",
            "url": "https://haz-map.com/Processes/1"
          },
          {
            "text": "Applying Wood Preservatives",
            "url": "https://haz-map.com/Processes/160"
          },
          {
            "text": "Petroleum Production and Refining",
            "url": "https://haz-map.com/Processes/75"
          }
        ],
        "cross_references": [
          {
            "type": "url_match",
            "text": "Aluminum Producing",
            "url": "https://haz-map.com/Processes/1",
            "confidence": 1.0,
            "uuid": "a56d4fbd-892c-4396-b20b-d1f2ca539889",
            "name": "Aluminum Producing",
            "category": "processes"
          },
          {
            "type": "url_match",
            "text": "Applying Wood Preservatives",
            "url": "https://haz-map.com/Processes/160",
            "confidence": 1.0,
            "uuid": "f04d008f-6345-4199-a15d-51f765989cfa",
            "name": "Applying Wood Preservatives",
            "category": "processes"
          },
          {
            "type": "url_match",
            "text": "Petroleum Production and Refining",
            "url": "https://haz-map.com/Processes/75",
            "confidence": 1.0,
            "uuid": "e2003948-ad28-44a5-85f6-2e3391da8917",
            "name": "Petroleum Production and Refining",
            "category": "processes"
          },
          {
            "type": "name_match",
            "text": "aluminum",
            "confidence": 1.0,
            "uuid": "60ab7471-1af2-4a33-b727-63fa1e1fa189",
            "name": "Aluminum",
            "url": "https://haz-map.com/Agents/287",
            "category": "agents"
          },
          {
            "type": "name_match",
            "text": "oleum",
            "confidence": 1.0,
            "uuid": "12af84ee-bcf0-416d-9220-7c4c6dc330f1",
            "name": "Oleum",
            "url": "https://haz-map.com/Agents/2227",
            "category": "agents"
          }
        ]
      }
    }
  },
  "cross_references": [
    {
      "type": "url_match",
      "text": "Aluminum Producing",
      "url": "https://haz-map.com/Processes/1",
      "confidence": 1.0,
      "uuid": "a56d4fbd-892c-4396-b20b-d1f2ca539889",
      "name": "Aluminum Producing",
      "category": "processes"
    },
    {
      "type": "url_match",
      "text": "Applying Wood Preservatives",
      "url": "https://haz-map.com/Processes/160",
      "confidence": 1.0,
      "uuid": "f04d008f-6345-4199-a15d-51f765989cfa",
      "name": "Applying Wood Preservatives",
      "category": "processes"
    },
    {
      "type": "url_match",
      "text": "Petroleum Production and Refining",
      "url": "https://haz-map.com/Processes/75",
      "confidence": 1.0,
      "uuid": "e2003948-ad28-44a5-85f6-2e3391da8917",
      "name": "Petroleum Production and Refining",
      "category": "processes"
    },
    {
      "type": "name_match",
      "text": "naphthalene",
      "confidence": 1.0,
      "uuid": "433cf489-5423-4297-a38e-6e755a9d458e",
      "name": "Naphthalene",
      "url": "https://haz-map.com/Agents/46",
      "category": "agents"
    },
    {
      "type": "name_match",
      "text": "crude oil",
      "confidence": 1.0,
      "uuid": "3c53214b-a11f-42b3-885f-2328e6242433",
      "name": "Crude oil",
      "url": "https://haz-map.com/Agents/48",
      "category": "agents"
    },
    {
      "type": "name_match",
      "text": "aluminum",
      "confidence": 1.0,
      "uuid": "60ab7471-1af2-4a33-b727-63fa1e1fa189",
      "name": "Aluminum",
      "url": "https://haz-map.com/Agents/287",
      "category": "agents"
    },
    {
      "type": "name_match",
      "text": "polycyclic aromatic hydrocarbons",
      "confidence": 1.0,
      "uuid": "0f103271-339e-42e1-80e3-bf90a8be7084",
      "name": "POLYCYCLIC AROMATIC HYDROCARBONS",
      "url": "https://haz-map.com/Agents/720",
      "category": "agents"
    },
    {
      "type": "name_match",
      "text": "fungicides",
      "confidence": 1.0,
      "uuid": "f4a9c1e1-4d57-4480-be97-d3590d38ce39",
      "name": "FUNGICIDES",
      "url": "https://haz-map.com/Agents/763",
      "category": "agents"
    },
    {
      "type": "name_match",
      "text": "coal tar",
      "confidence": 1.0,
      "uuid": "df40f58d-45ab-44c5-8e73-a9916bba6e2c",
      "name": "Coal tar",
      "url": "https://haz-map.com/Agents/1575",
      "category": "agents"
    },
    {
      "type": "name_match",
      "text": "carbon",
      "confidence": 1.0,
      "uuid": "b53f8815-ee80-40ef-b4aa-3b000e17dab5",
      "name": "Carbon",
      "url": "https://haz-map.com/Agents/1891",
      "category": "agents"
    },
    {
      "type": "name_match",
      "text": "fungi",
      "confidence": 1.0,
      "uuid": "e0d489cb-bfee-4aee-b665-999c017268a2",
      "name": "Fungi",
      "url": "https://haz-map.com/Agents/1988",
      "category": "agents"
    },
    {
      "type": "name_match",
      "text": "ht",
      "confidence": 1.0,
      "uuid": "764df367-8d53-4a11-81a2-31ccfe122a8d",
      "name": "HT",
      "url": "https://haz-map.com/Agents/2168",
      "category": "agents"
    },
    {
      "type": "name_match",
      "text": "oleum",
      "confidence": 1.0,
      "uuid": "12af84ee-bcf0-416d-9220-7c4c6dc330f1",
      "name": "Oleum",
      "url": "https://haz-map.com/Agents/2227",
      "category": "agents"
    },
    {
      "type": "name_match",
      "text": "acenaphthylene",
      "confidence": 1.0,
      "uuid": "cb63a68e-45f1-4807-b1fb-4f4bf24a42d2",
      "name": "Acenaphthylene",
      "url": "https://haz-map.com/Agents/11354",
      "category": "agents"
    },
    {
      "type": "fuzzy_match",
      "text": "coal tar distillation",
      "matched_name": "Coal-tar distillation",
      "confidence": 0.9583333333333333,
      "uuid": "7345cb90-edea-48a7-a6ff-f9898940920f",
      "category": "agents",
      "url": "https://haz-map.com/Agents/19011"
    },
    {
      "type": "fuzzy_match",
      "text": "aromatic hydrocarbons",
      "matched_name": "Aromatic hydrocarbons, C9-C11",
      "confidence": 0.7509578544061303,
      "uuid": "1e86d79b-784d-40c4-8412-39a4432a7a75",
      "category": "agents",
      "url": "https://haz-map.com/Agents/20258"
    },
    {
      "type": "fuzzy_match",
      "text": "hydrocarbons",
      "matched_name": "Hydrocarbons, C>3",
      "confidence": 0.7100840336134454,
      "uuid": "8eaa37ac-3931-44e4-9242-2734127fd661",
      "category": "agents",
      "url": "https://haz-map.com/Agents/14795"
    }
  ],
  "all_links": [
    {
      "text": "Search PubMed",
      "url": "https://www.ncbi.nlm.nih.gov/pubmed?term=Acenaphthylene%20AND%20human%5Bmh%5D%20AND%20%28Occupational%20Diseases%20%5Bmh%5D%20OR%20Occupational%20Exposure%20%5Bmh%5D%29%20%20AND%20%28tox%5Bsb%5D%29&cmd=search"
    },
    {
      "text": "Aluminum Producing",
      "url": "https://haz-map.com/Processes/1"
    },
    {
      "text": "Applying Wood Preservatives",
      "url": "https://haz-map.com/Processes/160"
    },
    {
      "text": "Petroleum Production and Refining",
      "url": "https://haz-map.com/Processes/75"
    }
  ]
}