{
  "metadata": {
    "scraped_from": "https://haz-map.com/Agents/1892",
    "entity_name": "Cesium",
    "category": "agents",
    "uuid": "cbc0ea0b-1003-4b51-a5c3-f13704a03e36",
    "scraped_at": "2025-07-23T19:06:10.621169"
  },
  "parsed_at": "2025-07-24T01:12:55.271377",
  "title": "Cesium",
  "sections": {
    "general": {
      "agent_name": {
        "original_name": "Agent Name",
        "value": "Cesium",
        "links": [],
        "cross_references": [
          {
            "type": "name_match",
            "text": "cesium",
            "confidence": 1.0,
            "uuid": "cbc0ea0b-1003-4b51-a5c3-f13704a03e36",
            "name": "Cesium",
            "url": "https://haz-map.com/Agents/1892",
            "category": "agents"
          }
        ]
      },
      "cas_number": {
        "original_name": "CAS Number",
        "value": "7440-46-2",
        "links": [],
        "cross_references": []
      },
      "formula": {
        "original_name": "Formula",
        "value": "Cs",
        "links": [],
        "cross_references": []
      },
      "major_category": {
        "original_name": "Major Category",
        "value": "Metals",
        "links": [],
        "cross_references": []
      },
      "synonyms": {
        "original_name": "Synonyms",
        "value": "Cesium; Cesium-133; UN1407 [ChemIDplus]",
        "links": [],
        "cross_references": [
          {
            "type": "name_match",
            "text": "cesium",
            "confidence": 1.0,
            "uuid": "cbc0ea0b-1003-4b51-a5c3-f13704a03e36",
            "name": "Cesium",
            "url": "https://haz-map.com/Agents/1892",
            "category": "agents"
          }
        ]
      },
      "category": {
        "original_name": "Category",
        "value": "Elements, Metallic",
        "links": [],
        "cross_references": []
      },
      "description": {
        "original_name": "Description",
        "value": "Shiny crystals or silver metal; [Sax] Stored immersed in mineral oil; [Merck Index]",
        "links": [],
        "cross_references": [
          {
            "type": "name_match",
            "text": "silver",
            "confidence": 1.0,
            "uuid": "d8f69733-c0d2-4da6-9251-c7848c2137d2",
            "name": "Silver",
            "url": "https://haz-map.com/Agents/40",
            "category": "agents"
          }
        ]
      },
      "sourcesuses": {
        "original_name": "Sources/Uses",
        "value": "Used in photoelectric cells, photoemitter devices, scintillation counters, and an atomic clock; Also used in metallurgy to absorb gases and impurities and to dope catalysts; Cs-133 is the stable, naturally occurring isotope; Mineral sources are pollucite, lepidolite and rhodizite; Cs-137 is the radioactive isotope produced by atomic fission; [Merck Index, 2008] Cesium is released into the environment in pollucite mining and production of energy and electronics; Fly ash from coal burning power plants contains cesium; [ATSDR ToxProfiles]",
        "links": [],
        "cross_references": [
          {
            "type": "name_match",
            "text": "mining",
            "confidence": 1.0,
            "uuid": "aaa4a4af-567a-4a01-83bc-ccad9fc73d04",
            "name": "Mining",
            "url": "https://haz-map.com/Processes/219",
            "category": "processes"
          },
          {
            "type": "name_match",
            "text": "burn",
            "confidence": 1.0,
            "uuid": "63665de5-6376-4918-8dbf-4c10c4d63837",
            "name": "burn",
            "url": "https://haz-map.com/Findings/204",
            "category": "findings"
          },
          {
            "type": "name_match",
            "text": "ash",
            "confidence": 1.0,
            "uuid": "68b360f1-5ad0-4337-bea0-d7adca2961b5",
            "name": "Ash",
            "url": "https://haz-map.com/Agents/965",
            "category": "agents"
          },
          {
            "type": "name_match",
            "text": "cesium",
            "confidence": 1.0,
            "uuid": "cbc0ea0b-1003-4b51-a5c3-f13704a03e36",
            "name": "Cesium",
            "url": "https://haz-map.com/Agents/1892",
            "category": "agents"
          },
          {
            "type": "name_match",
            "text": "fly ash",
            "confidence": 1.0,
            "uuid": "7ad60bef-a633-46c1-acf7-5c97a7d2dd18",
            "name": "Fly ash",
            "url": "https://haz-map.com/Agents/1893",
            "category": "agents"
          },
          {
            "type": "name_match",
            "text": "iron",
            "confidence": 1.0,
            "uuid": "a6101f16-ec31-4d6c-af41-cbdbda5b1c7c",
            "name": "Iron",
            "url": "https://haz-map.com/Agents/1993",
            "category": "agents"
          }
        ]
      },
      "comments": {
        "original_name": "Comments",
        "value": "Spontaneously ignites in air forming cesium oxides; [Sax] Animal feeding studies: cesium is relatively nontoxic; A man who ingested 34 mg/kg of cesium chloride after morning and evening meals for 36 days experienced anorexia, nausea, and diarrhea. EKG changes have been described in patients after ingestion of cesium chloride as a homeopathic remedy. [ATSDR ToxProfiles] See \"Cesium hydroxide\" and \"Cesium, radioactive.\"",
        "links": [],
        "cross_references": [
          {
            "type": "name_match",
            "text": "diarrhea",
            "confidence": 1.0,
            "uuid": "001ae7b5-5f3c-42c2-bc33-81e7581abd53",
            "name": "diarrhea",
            "url": "https://haz-map.com/Findings/15",
            "category": "findings"
          },
          {
            "type": "name_match",
            "text": "cesium hydroxide",
            "confidence": 1.0,
            "uuid": "18fd9077-94e8-4a7f-acc7-3af5d96293e7",
            "name": "Cesium hydroxide",
            "url": "https://haz-map.com/Agents/348",
            "category": "agents"
          },
          {
            "type": "name_match",
            "text": "cesium, radioactive",
            "confidence": 1.0,
            "uuid": "3fe87d83-b934-4bbf-8f1f-3306d2032199",
            "name": "Cesium, radioactive",
            "url": "https://haz-map.com/Agents/1697",
            "category": "agents"
          },
          {
            "type": "name_match",
            "text": "cesium",
            "confidence": 1.0,
            "uuid": "cbc0ea0b-1003-4b51-a5c3-f13704a03e36",
            "name": "Cesium",
            "url": "https://haz-map.com/Agents/1892",
            "category": "agents"
          },
          {
            "type": "name_match",
            "text": "cesium chloride",
            "confidence": 1.0,
            "uuid": "677e20b5-359a-486c-a7a2-00d43f5dc8f5",
            "name": "Cesium chloride",
            "url": "https://haz-map.com/Agents/2069",
            "category": "agents"
          },
          {
            "type": "name_match",
            "text": "cesium oxide",
            "confidence": 1.0,
            "uuid": "ecea9636-ad99-4a89-ba56-39bbc3bba98a",
            "name": "Cesium oxide",
            "url": "https://haz-map.com/Agents/12863",
            "category": "agents"
          }
        ]
      },
      "reference_link_1": {
        "original_name": "Reference Link #1",
        "value": "ATSDR - Toxicological Profile: Cesium",
        "links": [
          {
            "text": "ATSDR - Toxicological Profile: Cesium",
            "url": "https://www.atsdr.cdc.gov/ToxProfiles/tp.asp?id=578&tid=107"
          }
        ],
        "cross_references": [
          {
            "type": "name_match",
            "text": "cesium",
            "confidence": 1.0,
            "uuid": "cbc0ea0b-1003-4b51-a5c3-f13704a03e36",
            "name": "Cesium",
            "url": "https://haz-map.com/Agents/1892",
            "category": "agents"
          }
        ]
      },
      "biomedical_references": {
        "original_name": "Biomedical References",
        "value": "Search PubMed",
        "links": [
          {
            "text": "Search PubMed",
            "url": "https://www.ncbi.nlm.nih.gov/pubmed?term=Cesium%20AND%20human%5Bmh%5D%20AND%20%28Occupational%20Diseases%20%5Bmh%5D%20OR%20Occupational%20Exposure%20%5Bmh%5D%29%20%20AND%20%28tox%5Bsb%5D%29&cmd=search"
          }
        ],
        "cross_references": []
      }
    },
    "exposure_assessment": {
      "vapor_pressure": {
        "original_name": "Vapor Pressure",
        "value": "1.5E-06 mm Hg",
        "links": [],
        "cross_references": []
      },
      "explanatory_notes": {
        "original_name": "Explanatory Notes",
        "value": "Melting point equals 29 deg C; [HSDB]",
        "links": [],
        "cross_references": []
      }
    },
    "diseases_processes_and_activities_linked_to_this_agent": {
      "processes": {
        "original_name": "Processes",
        "value": "Industrial Processes with risk of exposure: Cleaning Furnaces or Flues Metal Extraction and Refining Mining",
        "links": [
          {
            "text": "Cleaning Furnaces or Flues",
            "url": "https://haz-map.com/Processes/227"
          },
          {
            "text": "Metal Extraction and Refining",
            "url": "https://haz-map.com/Processes/261"
          },
          {
            "text": "Mining",
            "url": "https://haz-map.com/Processes/219"
          }
        ],
        "cross_references": [
          {
            "type": "url_match",
            "text": "Cleaning Furnaces or Flues",
            "url": "https://haz-map.com/Processes/227",
            "confidence": 1.0,
            "uuid": "d09603d0-df6e-4918-b7f0-58b25fa1ba4d",
            "name": "Cleaning Furnaces or Flues",
            "category": "processes"
          },
          {
            "type": "url_match",
            "text": "Mining",
            "url": "https://haz-map.com/Processes/219",
            "confidence": 1.0,
            "uuid": "aaa4a4af-567a-4a01-83bc-ccad9fc73d04",
            "name": "Mining",
            "category": "processes"
          }
        ]
      }
    }
  },
  "cross_references": [
    {
      "type": "url_match",
      "text": "Cleaning Furnaces or Flues",
      "url": "https://haz-map.com/Processes/227",
      "confidence": 1.0,
      "uuid": "d09603d0-df6e-4918-b7f0-58b25fa1ba4d",
      "name": "Cleaning Furnaces or Flues",
      "category": "processes"
    },
    {
      "type": "url_match",
      "text": "Mining",
      "url": "https://haz-map.com/Processes/219",
      "confidence": 1.0,
      "uuid": "aaa4a4af-567a-4a01-83bc-ccad9fc73d04",
      "name": "Mining",
      "category": "processes"
    },
    {
      "type": "name_match",
      "text": "diarrhea",
      "confidence": 1.0,
      "uuid": "001ae7b5-5f3c-42c2-bc33-81e7581abd53",
      "name": "diarrhea",
      "url": "https://haz-map.com/Findings/15",
      "category": "findings"
    },
    {
      "type": "name_match",
      "text": "burn",
      "confidence": 1.0,
      "uuid": "63665de5-6376-4918-8dbf-4c10c4d63837",
      "name": "burn",
      "url": "https://haz-map.com/Findings/204",
      "category": "findings"
    },
    {
      "type": "name_match",
      "text": "silver",
      "confidence": 1.0,
      "uuid": "d8f69733-c0d2-4da6-9251-c7848c2137d2",
      "name": "Silver",
      "url": "https://haz-map.com/Agents/40",
      "category": "agents"
    },
    {
      "type": "name_match",
      "text": "cesium hydroxide",
      "confidence": 1.0,
      "uuid": "18fd9077-94e8-4a7f-acc7-3af5d96293e7",
      "name": "Cesium hydroxide",
      "url": "https://haz-map.com/Agents/348",
      "category": "agents"
    },
    {
      "type": "name_match",
      "text": "ash",
      "confidence": 1.0,
      "uuid": "68b360f1-5ad0-4337-bea0-d7adca2961b5",
      "name": "Ash",
      "url": "https://haz-map.com/Agents/965",
      "category": "agents"
    },
    {
      "type": "name_match",
      "text": "cesium, radioactive",
      "confidence": 1.0,
      "uuid": "3fe87d83-b934-4bbf-8f1f-3306d2032199",
      "name": "Cesium, radioactive",
      "url": "https://haz-map.com/Agents/1697",
      "category": "agents"
    },
    {
      "type": "name_match",
      "text": "cesium",
      "confidence": 1.0,
      "uuid": "cbc0ea0b-1003-4b51-a5c3-f13704a03e36",
      "name": "Cesium",
      "url": "https://haz-map.com/Agents/1892",
      "category": "agents"
    },
    {
      "type": "name_match",
      "text": "fly ash",
      "confidence": 1.0,
      "uuid": "7ad60bef-a633-46c1-acf7-5c97a7d2dd18",
      "name": "Fly ash",
      "url": "https://haz-map.com/Agents/1893",
      "category": "agents"
    },
    {
      "type": "name_match",
      "text": "iron",
      "confidence": 1.0,
      "uuid": "a6101f16-ec31-4d6c-af41-cbdbda5b1c7c",
      "name": "Iron",
      "url": "https://haz-map.com/Agents/1993",
      "category": "agents"
    },
    {
      "type": "name_match",
      "text": "cesium chloride",
      "confidence": 1.0,
      "uuid": "677e20b5-359a-486c-a7a2-00d43f5dc8f5",
      "name": "Cesium chloride",
      "url": "https://haz-map.com/Agents/2069",
      "category": "agents"
    },
    {
      "type": "name_match",
      "text": "cesium oxide",
      "confidence": 1.0,
      "uuid": "ecea9636-ad99-4a89-ba56-39bbc3bba98a",
      "name": "Cesium oxide",
      "url": "https://haz-map.com/Agents/12863",
      "category": "agents"
    }
  ],
  "all_links": [
    {
      "text": "ATSDR - Toxicological Profile: Cesium",
      "url": "https://www.atsdr.cdc.gov/ToxProfiles/tp.asp?id=578&tid=107"
    },
    {
      "text": "Search PubMed",
      "url": "https://www.ncbi.nlm.nih.gov/pubmed?term=Cesium%20AND%20human%5Bmh%5D%20AND%20%28Occupational%20Diseases%20%5Bmh%5D%20OR%20Occupational%20Exposure%20%5Bmh%5D%29%20%20AND%20%28tox%5Bsb%5D%29&cmd=search"
    },
    {
      "text": "Cleaning Furnaces or Flues",
      "url": "https://haz-map.com/Processes/227"
    },
    {
      "text": "Metal Extraction and Refining",
      "url": "https://haz-map.com/Processes/261"
    },
    {
      "text": "Mining",
      "url": "https://haz-map.com/Processes/219"
    }
  ]
}