{
  "metadata": {
    "scraped_from": "https://haz-map.com/Agents/11570",
    "entity_name": "3-Nitrofluorenone",
    "category": "agents",
    "uuid": "cbe2afea-6f07-4fe7-b44d-e3103781f897",
    "scraped_at": "2025-07-23T21:01:18.598988"
  },
  "parsed_at": "2025-07-24T00:59:17.318474",
  "title": "3-Nitrofluorenone",
  "sections": {
    "general": {
      "agent_name": {
        "original_name": "Agent Name",
        "value": "3-Nitrofluorenone",
        "links": [],
        "cross_references": [
          {
            "type": "name_match",
            "text": "fluorenone",
            "confidence": 1.0,
            "uuid": "8b16a3fa-f22a-4819-ba74-755678e74be4",
            "name": "Fluorenone",
            "url": "https://haz-map.com/Agents/5343",
            "category": "agents"
          },
          {
            "type": "name_match",
            "text": "3-nitrofluorenone",
            "confidence": 1.0,
            "uuid": "cbe2afea-6f07-4fe7-b44d-e3103781f897",
            "name": "3-Nitrofluorenone",
            "url": "https://haz-map.com/Agents/11570",
            "category": "agents"
          }
        ]
      },
      "cas_number": {
        "original_name": "CAS Number",
        "value": "42135-22-8",
        "links": [],
        "cross_references": []
      },
      "formula": {
        "original_name": "Formula",
        "value": "C13-H7-N-O3",
        "links": [],
        "cross_references": []
      },
      "major_category": {
        "original_name": "Major Category",
        "value": "Other Classes",
        "links": [],
        "cross_references": []
      },
      "synonyms": {
        "original_name": "Synonyms",
        "value": "3-Nitro-9-fluorenone; 3-Nitrofluoren-9-one; 9H-Fluoren-9-one, 3-nitro-; [ChemIDplus] 3-Nitro-9H-fluoren-9-one; Fluoren-9-one, 3-nitro; [CAMEO]",
        "links": [],
        "cross_references": [
          {
            "type": "name_match",
            "text": "fluorenone",
            "confidence": 1.0,
            "uuid": "8b16a3fa-f22a-4819-ba74-755678e74be4",
            "name": "Fluorenone",
            "url": "https://haz-map.com/Agents/5343",
            "category": "agents"
          }
        ]
      },
      "category": {
        "original_name": "Category",
        "value": "Polycyclic Aromatic Hydrocarbons",
        "links": [],
        "cross_references": [
          {
            "type": "name_match",
            "text": "polycyclic aromatic hydrocarbons",
            "confidence": 1.0,
            "uuid": "0f103271-339e-42e1-80e3-bf90a8be7084",
            "name": "POLYCYCLIC AROMATIC HYDROCARBONS",
            "url": "https://haz-map.com/Agents/720",
            "category": "agents"
          },
          {
            "type": "name_match",
            "text": "carbon",
            "confidence": 1.0,
            "uuid": "b53f8815-ee80-40ef-b4aa-3b000e17dab5",
            "name": "Carbon",
            "url": "https://haz-map.com/Agents/1891",
            "category": "agents"
          },
          {
            "type": "fuzzy_match",
            "text": "aromatic hydrocarbons",
            "matched_name": "Aromatic hydrocarbons, C9-C11",
            "confidence": 0.7509578544061303,
            "uuid": "1e86d79b-784d-40c4-8412-39a4432a7a75",
            "category": "agents",
            "url": "https://haz-map.com/Agents/20258"
          },
          {
            "type": "fuzzy_match",
            "text": "hydrocarbons",
            "matched_name": "Hydrocarbons, C>3",
            "confidence": 0.7100840336134454,
            "uuid": "8eaa37ac-3931-44e4-9242-2734127fd661",
            "category": "agents",
            "url": "https://haz-map.com/Agents/14795"
          }
        ]
      },
      "description": {
        "original_name": "Description",
        "value": "Solid; [CAMEO]",
        "links": [],
        "cross_references": []
      },
      "comments": {
        "original_name": "Comments",
        "value": "See \"Fluorene\" and \"Fluorenone.\"",
        "links": [],
        "cross_references": [
          {
            "type": "name_match",
            "text": "fluorenone",
            "confidence": 1.0,
            "uuid": "8b16a3fa-f22a-4819-ba74-755678e74be4",
            "name": "Fluorenone",
            "url": "https://haz-map.com/Agents/5343",
            "category": "agents"
          },
          {
            "type": "name_match",
            "text": "fluorene",
            "confidence": 1.0,
            "uuid": "4ec22b2a-d246-4dea-a0fe-a9022b632454",
            "name": "Fluorene",
            "url": "https://haz-map.com/Agents/7844",
            "category": "agents"
          }
        ]
      },
      "biomedical_references": {
        "original_name": "Biomedical References",
        "value": "Search PubMed",
        "links": [
          {
            "text": "Search PubMed",
            "url": "https://www.ncbi.nlm.nih.gov/pubmed?term=3-Nitrofluorenone%20AND%20human%5Bmh%5D%20AND%20%28Occupational%20Diseases%20%5Bmh%5D%20OR%20Occupational%20Exposure%20%5Bmh%5D%29%20%20AND%20%28tox%5Bsb%5D%29&cmd=search"
          }
        ],
        "cross_references": []
      }
    },
    "exposure_assessment": {
      "vapor_pressure": {
        "original_name": "Vapor Pressure",
        "value": "8.89E-07 mm Hg",
        "links": [],
        "cross_references": []
      }
    },
    "diseases_processes_and_activities_linked_to_this_agent": {
      "other_information": {
        "original_name": "Other Information",
        "value": "No other related information on this agent was found.",
        "links": [],
        "cross_references": []
      }
    }
  },
  "cross_references": [
    {
      "type": "name_match",
      "text": "polycyclic aromatic hydrocarbons",
      "confidence": 1.0,
      "uuid": "0f103271-339e-42e1-80e3-bf90a8be7084",
      "name": "POLYCYCLIC AROMATIC HYDROCARBONS",
      "url": "https://haz-map.com/Agents/720",
      "category": "agents"
    },
    {
      "type": "name_match",
      "text": "carbon",
      "confidence": 1.0,
      "uuid": "b53f8815-ee80-40ef-b4aa-3b000e17dab5",
      "name": "Carbon",
      "url": "https://haz-map.com/Agents/1891",
      "category": "agents"
    },
    {
      "type": "name_match",
      "text": "fluorenone",
      "confidence": 1.0,
      "uuid": "8b16a3fa-f22a-4819-ba74-755678e74be4",
      "name": "Fluorenone",
      "url": "https://haz-map.com/Agents/5343",
      "category": "agents"
    },
    {
      "type": "name_match",
      "text": "fluorene",
      "confidence": 1.0,
      "uuid": "4ec22b2a-d246-4dea-a0fe-a9022b632454",
      "name": "Fluorene",
      "url": "https://haz-map.com/Agents/7844",
      "category": "agents"
    },
    {
      "type": "name_match",
      "text": "3-nitrofluorenone",
      "confidence": 1.0,
      "uuid": "cbe2afea-6f07-4fe7-b44d-e3103781f897",
      "name": "3-Nitrofluorenone",
      "url": "https://haz-map.com/Agents/11570",
      "category": "agents"
    },
    {
      "type": "fuzzy_match",
      "text": "aromatic hydrocarbons",
      "matched_name": "Aromatic hydrocarbons, C9-C11",
      "confidence": 0.7509578544061303,
      "uuid": "1e86d79b-784d-40c4-8412-39a4432a7a75",
      "category": "agents",
      "url": "https://haz-map.com/Agents/20258"
    },
    {
      "type": "fuzzy_match",
      "text": "hydrocarbons",
      "matched_name": "Hydrocarbons, C>3",
      "confidence": 0.7100840336134454,
      "uuid": "8eaa37ac-3931-44e4-9242-2734127fd661",
      "category": "agents",
      "url": "https://haz-map.com/Agents/14795"
    }
  ],
  "all_links": [
    {
      "text": "Search PubMed",
      "url": "https://www.ncbi.nlm.nih.gov/pubmed?term=3-Nitrofluorenone%20AND%20human%5Bmh%5D%20AND%20%28Occupational%20Diseases%20%5Bmh%5D%20OR%20Occupational%20Exposure%20%5Bmh%5D%29%20%20AND%20%28tox%5Bsb%5D%29&cmd=search"
    }
  ]
}