{
  "metadata": {
    "scraped_from": "https://haz-map.com/Agents/1549",
    "entity_name": "Magnesium",
    "category": "agents",
    "uuid": "cc686725-b850-45b5-ad9d-2a40f17936a8",
    "scraped_at": "2025-07-23T19:00:59.702070"
  },
  "parsed_at": "2025-07-24T01:09:44.692067",
  "title": "Magnesium",
  "sections": {
    "general": {
      "agent_name": {
        "original_name": "Agent Name",
        "value": "Magnesium",
        "links": [],
        "cross_references": [
          {
            "type": "name_match",
            "text": "magnesium",
            "confidence": 1.0,
            "uuid": "cc686725-b850-45b5-ad9d-2a40f17936a8",
            "name": "Magnesium",
            "url": "https://haz-map.com/Agents/1549",
            "category": "agents"
          }
        ]
      },
      "cas_number": {
        "original_name": "CAS Number",
        "value": "7439-95-4",
        "links": [],
        "cross_references": []
      },
      "formula": {
        "original_name": "Formula",
        "value": "Mg",
        "links": [],
        "cross_references": []
      },
      "major_category": {
        "original_name": "Major Category",
        "value": "Metals",
        "links": [],
        "cross_references": []
      },
      "synonyms": {
        "original_name": "Synonyms",
        "value": "UN1869",
        "links": [],
        "cross_references": []
      },
      "category": {
        "original_name": "Category",
        "value": "Elements, Metallic",
        "links": [],
        "cross_references": []
      },
      "description": {
        "original_name": "Description",
        "value": "Silvery solid; [CHRIS]",
        "links": [],
        "cross_references": [
          {
            "type": "name_match",
            "text": "silver",
            "confidence": 1.0,
            "uuid": "d8f69733-c0d2-4da6-9251-c7848c2137d2",
            "name": "Silver",
            "url": "https://haz-map.com/Agents/40",
            "category": "agents"
          }
        ]
      },
      "sourcesuses": {
        "original_name": "Sources/Uses",
        "value": "Magnesium is important an essential mineral in the body for enzymatic reactions and neuromuscular function. Magnesium is used in antacids and cathartics. It is used to treat toxemia of pregnancy, some cardiac dysrrhymias, and severe bronchospasm. [Olson, p. 300]",
        "links": [],
        "cross_references": [
          {
            "type": "name_match",
            "text": "magnesium",
            "confidence": 1.0,
            "uuid": "cc686725-b850-45b5-ad9d-2a40f17936a8",
            "name": "Magnesium",
            "url": "https://haz-map.com/Agents/1549",
            "category": "agents"
          }
        ]
      },
      "comments": {
        "original_name": "Comments",
        "value": "Elemental magnesium can cause serious skin burns and magnesium fume may cause metal fume fever; [CHEMINFO MSDS] The normal range of serum magnesium is 1.7-2.4 mg/dL. The therapeutic level for toxemia is 5-7.4 mg/dL Sedation and hypotension occur at levels exceeding 8-12 mg/dL. Arrhythmias and muscular paralysis with respiratory arrest occur at levels exceeding 12 mg/dL. Patients with renal insufficiency taking magnesium-containing antacids or cathartics are at risk. [Olson, p. 301]",
        "links": [],
        "cross_references": [
          {
            "type": "name_match",
            "text": "metal fume fever",
            "confidence": 1.0,
            "uuid": "df2e8b18-0a58-4678-bc77-c354eb447fc7",
            "name": "Metal fume fever",
            "url": "https://haz-map.com/Diseases/69",
            "category": "diseases"
          },
          {
            "type": "name_match",
            "text": "fever",
            "confidence": 1.0,
            "uuid": "1343a59f-55bb-4311-9967-7a76a6b4cb58",
            "name": "fever",
            "url": "https://haz-map.com/Findings/28",
            "category": "findings"
          },
          {
            "type": "name_match",
            "text": "arrhythmia",
            "confidence": 1.0,
            "uuid": "43fc0eec-4bd2-4007-a9ca-ecea440cf2c4",
            "name": "arrhythmia",
            "url": "https://haz-map.com/Findings/128",
            "category": "findings"
          },
          {
            "type": "name_match",
            "text": "burn",
            "confidence": 1.0,
            "uuid": "63665de5-6376-4918-8dbf-4c10c4d63837",
            "name": "burn",
            "url": "https://haz-map.com/Findings/204",
            "category": "findings"
          },
          {
            "type": "name_match",
            "text": "magnesium",
            "confidence": 1.0,
            "uuid": "cc686725-b850-45b5-ad9d-2a40f17936a8",
            "name": "Magnesium",
            "url": "https://haz-map.com/Agents/1549",
            "category": "agents"
          }
        ]
      },
      "biomedical_references": {
        "original_name": "Biomedical References",
        "value": "Search PubMed",
        "links": [
          {
            "text": "Search PubMed",
            "url": "https://www.ncbi.nlm.nih.gov/pubmed?term=Magnesium%20AND%20human%5Bmh%5D%20AND%20%28Occupational%20Diseases%20%5Bmh%5D%20OR%20Occupational%20Exposure%20%5Bmh%5D%29%20%20AND%20%28tox%5Bsb%5D%29&cmd=search"
          }
        ],
        "cross_references": []
      }
    },
    "exposure_assessment": {
      "vapor_pressure": {
        "original_name": "Vapor Pressure",
        "value": "1 mm Hg",
        "links": [],
        "cross_references": []
      },
      "explanatory_notes": {
        "original_name": "Explanatory Notes",
        "value": "Melting Point = 649C (1200F); Boiling Point = 1100C (2012F); [CHEMINFO MSDS] Magnesium powder is spontaneously combustible. [CAMEO]",
        "links": [],
        "cross_references": [
          {
            "type": "name_match",
            "text": "magnesium",
            "confidence": 1.0,
            "uuid": "cc686725-b850-45b5-ad9d-2a40f17936a8",
            "name": "Magnesium",
            "url": "https://haz-map.com/Agents/1549",
            "category": "agents"
          }
        ]
      },
      "nfpa": {
        "original_name": "NFPA",
        "value": "must be preheated",
        "links": [],
        "cross_references": []
      }
    },
    "adverse_effects": {
      "dermatotoxin": {
        "original_name": "Dermatotoxin",
        "value": "Skin burns",
        "links": [],
        "cross_references": [
          {
            "type": "name_match",
            "text": "burn",
            "confidence": 1.0,
            "uuid": "63665de5-6376-4918-8dbf-4c10c4d63837",
            "name": "burn",
            "url": "https://haz-map.com/Findings/204",
            "category": "findings"
          }
        ]
      }
    },
    "diseases_processes_and_activities_linked_to_this_agent": {
      "diseases": {
        "original_name": "Diseases",
        "value": "Occupational diseases associated with exposure to this agent: Metal fume fever",
        "links": [
          {
            "text": "Metal fume fever",
            "url": "https://haz-map.com/Diseases/69"
          }
        ],
        "cross_references": [
          {
            "type": "url_match",
            "text": "Metal fume fever",
            "url": "https://haz-map.com/Diseases/69",
            "confidence": 1.0,
            "uuid": "df2e8b18-0a58-4678-bc77-c354eb447fc7",
            "name": "Metal fume fever",
            "category": "diseases"
          },
          {
            "type": "name_match",
            "text": "fever",
            "confidence": 1.0,
            "uuid": "1343a59f-55bb-4311-9967-7a76a6b4cb58",
            "name": "fever",
            "url": "https://haz-map.com/Findings/28",
            "category": "findings"
          }
        ]
      },
      "processes": {
        "original_name": "Processes",
        "value": "Industrial Processes with risk of exposure: Cement Producing",
        "links": [
          {
            "text": "Cement Producing",
            "url": "https://haz-map.com/Processes/234"
          }
        ],
        "cross_references": []
      }
    }
  },
  "cross_references": [
    {
      "type": "url_match",
      "text": "Metal fume fever",
      "url": "https://haz-map.com/Diseases/69",
      "confidence": 1.0,
      "uuid": "df2e8b18-0a58-4678-bc77-c354eb447fc7",
      "name": "Metal fume fever",
      "category": "diseases"
    },
    {
      "type": "name_match",
      "text": "fever",
      "confidence": 1.0,
      "uuid": "1343a59f-55bb-4311-9967-7a76a6b4cb58",
      "name": "fever",
      "url": "https://haz-map.com/Findings/28",
      "category": "findings"
    },
    {
      "type": "name_match",
      "text": "arrhythmia",
      "confidence": 1.0,
      "uuid": "43fc0eec-4bd2-4007-a9ca-ecea440cf2c4",
      "name": "arrhythmia",
      "url": "https://haz-map.com/Findings/128",
      "category": "findings"
    },
    {
      "type": "name_match",
      "text": "burn",
      "confidence": 1.0,
      "uuid": "63665de5-6376-4918-8dbf-4c10c4d63837",
      "name": "burn",
      "url": "https://haz-map.com/Findings/204",
      "category": "findings"
    },
    {
      "type": "name_match",
      "text": "silver",
      "confidence": 1.0,
      "uuid": "d8f69733-c0d2-4da6-9251-c7848c2137d2",
      "name": "Silver",
      "url": "https://haz-map.com/Agents/40",
      "category": "agents"
    },
    {
      "type": "name_match",
      "text": "magnesium",
      "confidence": 1.0,
      "uuid": "cc686725-b850-45b5-ad9d-2a40f17936a8",
      "name": "Magnesium",
      "url": "https://haz-map.com/Agents/1549",
      "category": "agents"
    }
  ],
  "all_links": [
    {
      "text": "Search PubMed",
      "url": "https://www.ncbi.nlm.nih.gov/pubmed?term=Magnesium%20AND%20human%5Bmh%5D%20AND%20%28Occupational%20Diseases%20%5Bmh%5D%20OR%20Occupational%20Exposure%20%5Bmh%5D%29%20%20AND%20%28tox%5Bsb%5D%29&cmd=search"
    },
    {
      "text": "Metal fume fever",
      "url": "https://haz-map.com/Diseases/69"
    },
    {
      "text": "Cement Producing",
      "url": "https://haz-map.com/Processes/234"
    }
  ]
}