{
  "metadata": {
    "scraped_from": "https://haz-map.com/Agents/9789",
    "entity_name": "1,3-Dimethylnaphthalene",
    "category": "agents",
    "uuid": "cd65d166-ffab-4e39-a254-1bfae5378783",
    "scraped_at": "2025-07-23T20:42:32.066661"
  },
  "parsed_at": "2025-07-24T00:53:08.552307",
  "title": "1,3-Dimethylnaphthalene",
  "sections": {
    "general": {
      "agent_name": {
        "original_name": "Agent Name",
        "value": "1,3-Dimethylnaphthalene",
        "links": [],
        "cross_references": [
          {
            "type": "name_match",
            "text": "naphthalene",
            "confidence": 1.0,
            "uuid": "433cf489-5423-4297-a38e-6e755a9d458e",
            "name": "Naphthalene",
            "url": "https://haz-map.com/Agents/46",
            "category": "agents"
          },
          {
            "type": "name_match",
            "text": "ht",
            "confidence": 1.0,
            "uuid": "764df367-8d53-4a11-81a2-31ccfe122a8d",
            "name": "HT",
            "url": "https://haz-map.com/Agents/2168",
            "category": "agents"
          },
          {
            "type": "name_match",
            "text": "methylnaphthalene",
            "confidence": 1.0,
            "uuid": "1b7e0963-f004-487e-8b9f-2b9fbbcfa72b",
            "name": "Methylnaphthalene",
            "url": "https://haz-map.com/Agents/6128",
            "category": "agents"
          },
          {
            "type": "name_match",
            "text": "1,3-dimethylnaphthalene",
            "confidence": 1.0,
            "uuid": "cd65d166-ffab-4e39-a254-1bfae5378783",
            "name": "1,3-Dimethylnaphthalene",
            "url": "https://haz-map.com/Agents/9789",
            "category": "agents"
          },
          {
            "type": "name_match",
            "text": "dimethylnaphthalene",
            "confidence": 1.0,
            "uuid": "c2d4d035-b0d4-448d-80f2-484216ae99d0",
            "name": "Dimethylnaphthalene",
            "url": "https://haz-map.com/Agents/13214",
            "category": "agents"
          },
          {
            "type": "fuzzy_match",
            "text": "3-dimethylnaphthalene",
            "matched_name": "2,3-Dimethylnaphthalene",
            "confidence": 0.8898550724637682,
            "uuid": "a435aed8-fe75-406b-8d22-475a099b31e9",
            "category": "agents",
            "url": "https://haz-map.com/Agents/15238"
          }
        ]
      },
      "cas_number": {
        "original_name": "CAS Number",
        "value": "575-41-7",
        "links": [],
        "cross_references": []
      },
      "formula": {
        "original_name": "Formula",
        "value": "C12-H12",
        "links": [],
        "cross_references": []
      },
      "major_category": {
        "original_name": "Major Category",
        "value": "Other Classes",
        "links": [],
        "cross_references": []
      },
      "synonyms": {
        "original_name": "Synonyms",
        "value": "Naphthalene, 1,3-dimethyl-; [ChemIDplus]",
        "links": [],
        "cross_references": [
          {
            "type": "name_match",
            "text": "naphthalene",
            "confidence": 1.0,
            "uuid": "433cf489-5423-4297-a38e-6e755a9d458e",
            "name": "Naphthalene",
            "url": "https://haz-map.com/Agents/46",
            "category": "agents"
          },
          {
            "type": "name_match",
            "text": "ht",
            "confidence": 1.0,
            "uuid": "764df367-8d53-4a11-81a2-31ccfe122a8d",
            "name": "HT",
            "url": "https://haz-map.com/Agents/2168",
            "category": "agents"
          }
        ]
      },
      "category": {
        "original_name": "Category",
        "value": "Naphthalenes",
        "links": [],
        "cross_references": [
          {
            "type": "name_match",
            "text": "naphthalene",
            "confidence": 1.0,
            "uuid": "433cf489-5423-4297-a38e-6e755a9d458e",
            "name": "Naphthalene",
            "url": "https://haz-map.com/Agents/46",
            "category": "agents"
          },
          {
            "type": "name_match",
            "text": "ht",
            "confidence": 1.0,
            "uuid": "764df367-8d53-4a11-81a2-31ccfe122a8d",
            "name": "HT",
            "url": "https://haz-map.com/Agents/2168",
            "category": "agents"
          }
        ]
      },
      "description": {
        "original_name": "Description",
        "value": "Clear, light yellow liquid; [Aldrich MSDS]",
        "links": [],
        "cross_references": [
          {
            "type": "name_match",
            "text": "ht",
            "confidence": 1.0,
            "uuid": "764df367-8d53-4a11-81a2-31ccfe122a8d",
            "name": "HT",
            "url": "https://haz-map.com/Agents/2168",
            "category": "agents"
          }
        ]
      },
      "comments": {
        "original_name": "Comments",
        "value": "May cause irritation; [Aldrich MSDS] See \"Naphthalene\" and \"2-Methylnaphthalene.\"",
        "links": [],
        "cross_references": [
          {
            "type": "name_match",
            "text": "naphthalene",
            "confidence": 1.0,
            "uuid": "433cf489-5423-4297-a38e-6e755a9d458e",
            "name": "Naphthalene",
            "url": "https://haz-map.com/Agents/46",
            "category": "agents"
          },
          {
            "type": "name_match",
            "text": "2-methylnaphthalene",
            "confidence": 1.0,
            "uuid": "0e1d646d-f9d1-4b3d-b9fd-fd7dce1f07d8",
            "name": "2-Methylnaphthalene",
            "url": "https://haz-map.com/Agents/1950",
            "category": "agents"
          },
          {
            "type": "name_match",
            "text": "ht",
            "confidence": 1.0,
            "uuid": "764df367-8d53-4a11-81a2-31ccfe122a8d",
            "name": "HT",
            "url": "https://haz-map.com/Agents/2168",
            "category": "agents"
          },
          {
            "type": "name_match",
            "text": "methylnaphthalene",
            "confidence": 1.0,
            "uuid": "1b7e0963-f004-487e-8b9f-2b9fbbcfa72b",
            "name": "Methylnaphthalene",
            "url": "https://haz-map.com/Agents/6128",
            "category": "agents"
          }
        ]
      },
      "biomedical_references": {
        "original_name": "Biomedical References",
        "value": "Search PubMed",
        "links": [
          {
            "text": "Search PubMed",
            "url": "https://www.ncbi.nlm.nih.gov/pubmed?term=1%2c3-Dimethylnaphthalene%20AND%20human%5Bmh%5D%20AND%20%28Occupational%20Diseases%20%5Bmh%5D%20OR%20Occupational%20Exposure%20%5Bmh%5D%29%20%20AND%20%28tox%5Bsb%5D%29&cmd=search"
          }
        ],
        "cross_references": []
      }
    },
    "exposure_assessment": {
      "vapor_pressure": {
        "original_name": "Vapor Pressure",
        "value": "0.0084 mm Hg",
        "links": [],
        "cross_references": []
      }
    },
    "diseases_processes_and_activities_linked_to_this_agent": {
      "other_information": {
        "original_name": "Other Information",
        "value": "No other related information on this agent was found.",
        "links": [],
        "cross_references": []
      }
    }
  },
  "cross_references": [
    {
      "type": "name_match",
      "text": "naphthalene",
      "confidence": 1.0,
      "uuid": "433cf489-5423-4297-a38e-6e755a9d458e",
      "name": "Naphthalene",
      "url": "https://haz-map.com/Agents/46",
      "category": "agents"
    },
    {
      "type": "name_match",
      "text": "2-methylnaphthalene",
      "confidence": 1.0,
      "uuid": "0e1d646d-f9d1-4b3d-b9fd-fd7dce1f07d8",
      "name": "2-Methylnaphthalene",
      "url": "https://haz-map.com/Agents/1950",
      "category": "agents"
    },
    {
      "type": "name_match",
      "text": "ht",
      "confidence": 1.0,
      "uuid": "764df367-8d53-4a11-81a2-31ccfe122a8d",
      "name": "HT",
      "url": "https://haz-map.com/Agents/2168",
      "category": "agents"
    },
    {
      "type": "name_match",
      "text": "methylnaphthalene",
      "confidence": 1.0,
      "uuid": "1b7e0963-f004-487e-8b9f-2b9fbbcfa72b",
      "name": "Methylnaphthalene",
      "url": "https://haz-map.com/Agents/6128",
      "category": "agents"
    },
    {
      "type": "name_match",
      "text": "1,3-dimethylnaphthalene",
      "confidence": 1.0,
      "uuid": "cd65d166-ffab-4e39-a254-1bfae5378783",
      "name": "1,3-Dimethylnaphthalene",
      "url": "https://haz-map.com/Agents/9789",
      "category": "agents"
    },
    {
      "type": "name_match",
      "text": "dimethylnaphthalene",
      "confidence": 1.0,
      "uuid": "c2d4d035-b0d4-448d-80f2-484216ae99d0",
      "name": "Dimethylnaphthalene",
      "url": "https://haz-map.com/Agents/13214",
      "category": "agents"
    },
    {
      "type": "fuzzy_match",
      "text": "3-dimethylnaphthalene",
      "matched_name": "2,3-Dimethylnaphthalene",
      "confidence": 0.8898550724637682,
      "uuid": "a435aed8-fe75-406b-8d22-475a099b31e9",
      "category": "agents",
      "url": "https://haz-map.com/Agents/15238"
    }
  ],
  "all_links": [
    {
      "text": "Search PubMed",
      "url": "https://www.ncbi.nlm.nih.gov/pubmed?term=1%2c3-Dimethylnaphthalene%20AND%20human%5Bmh%5D%20AND%20%28Occupational%20Diseases%20%5Bmh%5D%20OR%20Occupational%20Exposure%20%5Bmh%5D%29%20%20AND%20%28tox%5Bsb%5D%29&cmd=search"
    }
  ]
}