{
  "metadata": {
    "scraped_from": "https://haz-map.com/Agents/4908",
    "entity_name": "Diisopropyl methylphosphonate",
    "category": "agents",
    "uuid": "cd92db16-4be1-482c-8020-e61c1426fb90",
    "scraped_at": "2025-07-23T19:46:31.958353"
  },
  "parsed_at": "2025-07-24T01:07:02.501408",
  "title": "Diisopropyl methylphosphonate",
  "sections": {
    "general": {
      "agent_name": {
        "original_name": "Agent Name",
        "value": "Diisopropyl methylphosphonate",
        "links": [],
        "cross_references": [
          {
            "type": "name_match",
            "text": "diisopropyl methylphosphonate",
            "confidence": 1.0,
            "uuid": "cd92db16-4be1-482c-8020-e61c1426fb90",
            "name": "Diisopropyl methylphosphonate",
            "url": "https://haz-map.com/Agents/4908",
            "category": "agents"
          }
        ]
      },
      "cas_number": {
        "original_name": "CAS Number",
        "value": "1445-75-6",
        "links": [],
        "cross_references": []
      },
      "formula": {
        "original_name": "Formula",
        "value": "C7-H17-O3-P",
        "links": [],
        "cross_references": []
      },
      "major_category": {
        "original_name": "Major Category",
        "value": "Toxic Gases & Vapors",
        "links": [],
        "cross_references": []
      },
      "synonyms": {
        "original_name": "Synonyms",
        "value": "DIMP; Diisopropyl methanephosphonate; Bis(1-methylethyl) methylphosphonate; Methylphosphonic acid bis(1-methylethyl)ester; Phosphonic acid, P-methyl-, bis(1-methylethyl) ester; Phosphonic acid, methyl-, diisopropyl ester; [ChemIDplus]",
        "links": [],
        "cross_references": [
          {
            "type": "name_match",
            "text": "methane",
            "confidence": 1.0,
            "uuid": "5018bf73-24be-4353-8643-c351d5f52186",
            "name": "Methane",
            "url": "https://haz-map.com/Agents/1074",
            "category": "agents"
          },
          {
            "type": "name_match",
            "text": "ethane",
            "confidence": 1.0,
            "uuid": "5162cc8c-dfb9-4060-81ac-38a8cec7f9dd",
            "name": "Ethane",
            "url": "https://haz-map.com/Agents/1075",
            "category": "agents"
          },
          {
            "type": "name_match",
            "text": "methylphosphonic acid",
            "confidence": 1.0,
            "uuid": "3fb05f69-115d-4eb5-87b4-71aa8574aabc",
            "name": "Methylphosphonic acid",
            "url": "https://haz-map.com/Agents/6137",
            "category": "agents"
          }
        ]
      },
      "category": {
        "original_name": "Category",
        "value": "Chemical Weapons",
        "links": [],
        "cross_references": [
          {
            "type": "name_match",
            "text": "mica",
            "confidence": 1.0,
            "uuid": "433f26f1-c399-4596-b179-ce3843cfd465",
            "name": "Mica",
            "url": "https://haz-map.com/Agents/621",
            "category": "agents"
          }
        ]
      },
      "description": {
        "original_name": "Description",
        "value": "Colorless liquid; [MSDSonline]",
        "links": [],
        "cross_references": []
      },
      "sourcesuses": {
        "original_name": "Sources/Uses",
        "value": "A byproduct from the manufacture of the nerve-agent Sarin (constitutes up to 20% of Sarin); [HSDB]",
        "links": [],
        "cross_references": [
          {
            "type": "name_match",
            "text": "sarin",
            "confidence": 1.0,
            "uuid": "0b2477bd-5683-4fa1-a959-0f0b278d6300",
            "name": "Sarin",
            "url": "https://haz-map.com/Agents/1452",
            "category": "agents"
          }
        ]
      },
      "comments": {
        "original_name": "Comments",
        "value": "A cholinesterase inhibitor in animal studies; Minks fed up to 1136 mg/kg bw/day for 90 days had no clinical morbidity or deaths; [HSDB] An irritant; [MSDSonline] See \"Sarin.\"",
        "links": [],
        "cross_references": [
          {
            "type": "name_match",
            "text": "sarin",
            "confidence": 1.0,
            "uuid": "0b2477bd-5683-4fa1-a959-0f0b278d6300",
            "name": "Sarin",
            "url": "https://haz-map.com/Agents/1452",
            "category": "agents"
          },
          {
            "type": "name_match",
            "text": "choline",
            "confidence": 1.0,
            "uuid": "a21a71e9-9d67-4563-9da2-98c4dcb1b766",
            "name": "Choline",
            "url": "https://haz-map.com/Agents/12978",
            "category": "agents"
          }
        ]
      },
      "biomedical_references": {
        "original_name": "Biomedical References",
        "value": "Search PubMed",
        "links": [
          {
            "text": "Search PubMed",
            "url": "https://www.ncbi.nlm.nih.gov/pubmed?term=Diisopropyl+methylphosphonate%20AND%20human%5Bmh%5D%20AND%20%28Occupational%20Diseases%20%5Bmh%5D%20OR%20Occupational%20Exposure%20%5Bmh%5D%29%20%20AND%20%28tox%5Bsb%5D%29&cmd=search"
          }
        ],
        "cross_references": []
      }
    },
    "exposure_assessment": {
      "vapor_pressure": {
        "original_name": "Vapor Pressure",
        "value": "0.28 mm Hg",
        "links": [],
        "cross_references": []
      }
    },
    "adverse_effects": {
      "other_poison": {
        "original_name": "Other Poison",
        "value": "Organophosphate",
        "links": [],
        "cross_references": []
      }
    },
    "diseases_processes_and_activities_linked_to_this_agent": {
      "diseases": {
        "original_name": "Diseases",
        "value": "Occupational diseases associated with exposure to this agent: Organophosphates & carbamates, acute poisoning",
        "links": [
          {
            "text": "Organophosphates & carbamates, acute poisoning",
            "url": "https://haz-map.com/Diseases/66"
          }
        ],
        "cross_references": [
          {
            "type": "url_match",
            "text": "Organophosphates & carbamates, acute poisoning",
            "url": "https://haz-map.com/Diseases/66",
            "confidence": 1.0,
            "uuid": "aea2cba9-fb36-463f-84d8-b819551bb327",
            "name": "Organophosphates & carbamates, acute poisoning",
            "category": "diseases"
          },
          {
            "type": "name_match",
            "text": "organophosphates",
            "confidence": 1.0,
            "uuid": "8d2d239c-20f9-4f02-9916-5e7667b9990c",
            "name": "ORGANOPHOSPHATES",
            "url": "https://haz-map.com/Agents/702",
            "category": "agents"
          }
        ]
      }
    }
  },
  "cross_references": [
    {
      "type": "url_match",
      "text": "Organophosphates & carbamates, acute poisoning",
      "url": "https://haz-map.com/Diseases/66",
      "confidence": 1.0,
      "uuid": "aea2cba9-fb36-463f-84d8-b819551bb327",
      "name": "Organophosphates & carbamates, acute poisoning",
      "category": "diseases"
    },
    {
      "type": "name_match",
      "text": "mica",
      "confidence": 1.0,
      "uuid": "433f26f1-c399-4596-b179-ce3843cfd465",
      "name": "Mica",
      "url": "https://haz-map.com/Agents/621",
      "category": "agents"
    },
    {
      "type": "name_match",
      "text": "organophosphates",
      "confidence": 1.0,
      "uuid": "8d2d239c-20f9-4f02-9916-5e7667b9990c",
      "name": "ORGANOPHOSPHATES",
      "url": "https://haz-map.com/Agents/702",
      "category": "agents"
    },
    {
      "type": "name_match",
      "text": "methane",
      "confidence": 1.0,
      "uuid": "5018bf73-24be-4353-8643-c351d5f52186",
      "name": "Methane",
      "url": "https://haz-map.com/Agents/1074",
      "category": "agents"
    },
    {
      "type": "name_match",
      "text": "ethane",
      "confidence": 1.0,
      "uuid": "5162cc8c-dfb9-4060-81ac-38a8cec7f9dd",
      "name": "Ethane",
      "url": "https://haz-map.com/Agents/1075",
      "category": "agents"
    },
    {
      "type": "name_match",
      "text": "sarin",
      "confidence": 1.0,
      "uuid": "0b2477bd-5683-4fa1-a959-0f0b278d6300",
      "name": "Sarin",
      "url": "https://haz-map.com/Agents/1452",
      "category": "agents"
    },
    {
      "type": "name_match",
      "text": "diisopropyl methylphosphonate",
      "confidence": 1.0,
      "uuid": "cd92db16-4be1-482c-8020-e61c1426fb90",
      "name": "Diisopropyl methylphosphonate",
      "url": "https://haz-map.com/Agents/4908",
      "category": "agents"
    },
    {
      "type": "name_match",
      "text": "methylphosphonic acid",
      "confidence": 1.0,
      "uuid": "3fb05f69-115d-4eb5-87b4-71aa8574aabc",
      "name": "Methylphosphonic acid",
      "url": "https://haz-map.com/Agents/6137",
      "category": "agents"
    },
    {
      "type": "name_match",
      "text": "choline",
      "confidence": 1.0,
      "uuid": "a21a71e9-9d67-4563-9da2-98c4dcb1b766",
      "name": "Choline",
      "url": "https://haz-map.com/Agents/12978",
      "category": "agents"
    }
  ],
  "all_links": [
    {
      "text": "Search PubMed",
      "url": "https://www.ncbi.nlm.nih.gov/pubmed?term=Diisopropyl+methylphosphonate%20AND%20human%5Bmh%5D%20AND%20%28Occupational%20Diseases%20%5Bmh%5D%20OR%20Occupational%20Exposure%20%5Bmh%5D%29%20%20AND%20%28tox%5Bsb%5D%29&cmd=search"
    },
    {
      "text": "Organophosphates & carbamates, acute poisoning",
      "url": "https://haz-map.com/Diseases/66"
    }
  ]
}