{
  "metadata": {
    "scraped_from": "https://haz-map.com/Agents/10155",
    "entity_name": "1-Dodecanesulfonic acid, sodium salt",
    "category": "agents",
    "uuid": "ce0147b4-5a60-47f0-b942-f489461a10a7",
    "scraped_at": "2025-07-23T20:44:46.005246"
  },
  "parsed_at": "2025-07-24T01:19:07.838464",
  "title": "1-Dodecanesulfonic acid, sodium salt",
  "sections": {
    "general": {
      "agent_name": {
        "original_name": "Agent Name",
        "value": "1-Dodecanesulfonic acid, sodium salt",
        "links": [],
        "cross_references": [
          {
            "type": "name_match",
            "text": "sodium",
            "confidence": 1.0,
            "uuid": "1adffc42-a4d8-44d5-81d6-7dbd96ef8a6f",
            "name": "Sodium",
            "url": "https://haz-map.com/Agents/1527",
            "category": "agents"
          },
          {
            "type": "name_match",
            "text": "dodecane",
            "confidence": 1.0,
            "uuid": "e446b8fe-aaab-4728-8e79-211dfc827a2e",
            "name": "Dodecane",
            "url": "https://haz-map.com/Agents/1785",
            "category": "agents"
          },
          {
            "type": "name_match",
            "text": "1-dodecanesulfonic acid, sodium salt",
            "confidence": 1.0,
            "uuid": "ce0147b4-5a60-47f0-b942-f489461a10a7",
            "name": "1-Dodecanesulfonic acid, sodium salt",
            "url": "https://haz-map.com/Agents/10155",
            "category": "agents"
          }
        ]
      },
      "cas_number": {
        "original_name": "CAS Number",
        "value": "2386-53-0",
        "links": [],
        "cross_references": []
      },
      "formula": {
        "original_name": "Formula",
        "value": "C12-H26-O3-S.Na",
        "links": [],
        "cross_references": []
      },
      "major_category": {
        "original_name": "Major Category",
        "value": "Other Classes",
        "links": [],
        "cross_references": []
      },
      "synonyms": {
        "original_name": "Synonyms",
        "value": "Sodium laurylsulfonate; Sodium dodecane-1-sulphonate; [ChemIDplus] Sodium 1-dodecanesulfonate; [Alfa Aesar MSDS]",
        "links": [],
        "cross_references": [
          {
            "type": "name_match",
            "text": "sodium",
            "confidence": 1.0,
            "uuid": "1adffc42-a4d8-44d5-81d6-7dbd96ef8a6f",
            "name": "Sodium",
            "url": "https://haz-map.com/Agents/1527",
            "category": "agents"
          },
          {
            "type": "name_match",
            "text": "dodecane",
            "confidence": 1.0,
            "uuid": "e446b8fe-aaab-4728-8e79-211dfc827a2e",
            "name": "Dodecane",
            "url": "https://haz-map.com/Agents/1785",
            "category": "agents"
          }
        ]
      },
      "category": {
        "original_name": "Category",
        "value": "Sulfonates, Alkane and Alkene",
        "links": [],
        "cross_references": []
      },
      "description": {
        "original_name": "Description",
        "value": "93% by weight: Colorless or yellowish solid; [OECD SIDS] White powder; [Alfa Aesar MSDS]",
        "links": [],
        "cross_references": [
          {
            "type": "name_match",
            "text": "ht",
            "confidence": 1.0,
            "uuid": "764df367-8d53-4a11-81a2-31ccfe122a8d",
            "name": "HT",
            "url": "https://haz-map.com/Agents/2168",
            "category": "agents"
          }
        ]
      },
      "sourcesuses": {
        "original_name": "Sources/Uses",
        "value": "Alkane sulfonates: Used in liquid detergents, concentrated shampoos, textile and leather auxiliaries (mercerising), metal cleaning preparations, steam jets, and pickling bathes; [OECD SIDS]",
        "links": [],
        "cross_references": [
          {
            "type": "name_match",
            "text": "tea",
            "confidence": 1.0,
            "uuid": "773409e5-ac1a-4c9e-9470-9667ca82091c",
            "name": "Tea",
            "url": "https://haz-map.com/Agents/878",
            "category": "agents"
          }
        ]
      },
      "comments": {
        "original_name": "Comments",
        "value": "1% solutions are mildly irritating; Do not induce skin sensitization; No serious injuries after ingestion reported; [Reference #1] May cause irritation; [Alfa Aesar MSDS]",
        "links": [],
        "cross_references": []
      },
      "reference_link_1": {
        "original_name": "Reference Link #1",
        "value": "INCHEM: Linear Alkylbenzene/Alpha-Olefin Sulfonates & Alkyl Sulfates",
        "links": [
          {
            "text": "INCHEM: Linear Alkylbenzene/Alpha-Olefin Sulfonates & Alkyl Sulfates",
            "url": "http://www.inchem.org/documents/ehc/ehc/ehc169.htm"
          }
        ],
        "cross_references": [
          {
            "type": "name_match",
            "text": "benzene",
            "confidence": 1.0,
            "uuid": "b05124de-5f34-4c14-8f04-ccb20c3780d9",
            "name": "Benzene",
            "url": "https://haz-map.com/Agents/5",
            "category": "agents"
          }
        ]
      },
      "biomedical_references": {
        "original_name": "Biomedical References",
        "value": "Search PubMed",
        "links": [
          {
            "text": "Search PubMed",
            "url": "https://www.ncbi.nlm.nih.gov/pubmed?term=1-Dodecanesulfonic+acid%2c+sodium+salt%20AND%20human%5Bmh%5D%20AND%20%28Occupational%20Diseases%20%5Bmh%5D%20OR%20Occupational%20Exposure%20%5Bmh%5D%29%20%20AND%20%28tox%5Bsb%5D%29&cmd=search"
          }
        ],
        "cross_references": []
      }
    },
    "exposure_assessment": {
      "vapor_pressure": {
        "original_name": "Vapor Pressure",
        "value": "1.13E-12 mm Hg",
        "links": [],
        "cross_references": []
      }
    },
    "adverse_effects": {
      "hepatotoxin": {
        "original_name": "Hepatotoxin",
        "value": "Hepatoxic (a) from occupational exposure (secondary effect) or (b) in animal studies or in humans after ingestion",
        "links": [],
        "cross_references": []
      }
    },
    "diseases_processes_and_activities_linked_to_this_agent": {
      "processes": {
        "original_name": "Processes",
        "value": "Industrial Processes with risk of exposure: Acid and Alkali Cleaning of Metals Leather Tanning and Processing Textiles (Fiber & Fabric Manufacturing)",
        "links": [
          {
            "text": "Acid and Alkali Cleaning of Metals",
            "url": "https://haz-map.com/Processes/6"
          },
          {
            "text": "Leather Tanning and Processing",
            "url": "https://haz-map.com/Processes/230"
          },
          {
            "text": "Textiles (Fiber & Fabric Manufacturing)",
            "url": "https://haz-map.com/Processes/135"
          }
        ],
        "cross_references": [
          {
            "type": "url_match",
            "text": "Acid and Alkali Cleaning of Metals",
            "url": "https://haz-map.com/Processes/6",
            "confidence": 1.0,
            "uuid": "e6728e33-1494-4ce5-866c-db33809e3917",
            "name": "Acid and Alkali Cleaning of Metals",
            "category": "processes"
          },
          {
            "type": "url_match",
            "text": "Textiles (Fiber & Fabric Manufacturing)",
            "url": "https://haz-map.com/Processes/135",
            "confidence": 1.0,
            "uuid": "43ebdcdb-bb09-4402-87b6-ae8cf169dddd",
            "name": "Textiles (Fiber & Fabric Manufacturing)",
            "category": "processes"
          }
        ]
      }
    }
  },
  "cross_references": [
    {
      "type": "url_match",
      "text": "Acid and Alkali Cleaning of Metals",
      "url": "https://haz-map.com/Processes/6",
      "confidence": 1.0,
      "uuid": "e6728e33-1494-4ce5-866c-db33809e3917",
      "name": "Acid and Alkali Cleaning of Metals",
      "category": "processes"
    },
    {
      "type": "url_match",
      "text": "Textiles (Fiber & Fabric Manufacturing)",
      "url": "https://haz-map.com/Processes/135",
      "confidence": 1.0,
      "uuid": "43ebdcdb-bb09-4402-87b6-ae8cf169dddd",
      "name": "Textiles (Fiber & Fabric Manufacturing)",
      "category": "processes"
    },
    {
      "type": "name_match",
      "text": "benzene",
      "confidence": 1.0,
      "uuid": "b05124de-5f34-4c14-8f04-ccb20c3780d9",
      "name": "Benzene",
      "url": "https://haz-map.com/Agents/5",
      "category": "agents"
    },
    {
      "type": "name_match",
      "text": "tea",
      "confidence": 1.0,
      "uuid": "773409e5-ac1a-4c9e-9470-9667ca82091c",
      "name": "Tea",
      "url": "https://haz-map.com/Agents/878",
      "category": "agents"
    },
    {
      "type": "name_match",
      "text": "sodium",
      "confidence": 1.0,
      "uuid": "1adffc42-a4d8-44d5-81d6-7dbd96ef8a6f",
      "name": "Sodium",
      "url": "https://haz-map.com/Agents/1527",
      "category": "agents"
    },
    {
      "type": "name_match",
      "text": "dodecane",
      "confidence": 1.0,
      "uuid": "e446b8fe-aaab-4728-8e79-211dfc827a2e",
      "name": "Dodecane",
      "url": "https://haz-map.com/Agents/1785",
      "category": "agents"
    },
    {
      "type": "name_match",
      "text": "ht",
      "confidence": 1.0,
      "uuid": "764df367-8d53-4a11-81a2-31ccfe122a8d",
      "name": "HT",
      "url": "https://haz-map.com/Agents/2168",
      "category": "agents"
    },
    {
      "type": "name_match",
      "text": "1-dodecanesulfonic acid, sodium salt",
      "confidence": 1.0,
      "uuid": "ce0147b4-5a60-47f0-b942-f489461a10a7",
      "name": "1-Dodecanesulfonic acid, sodium salt",
      "url": "https://haz-map.com/Agents/10155",
      "category": "agents"
    }
  ],
  "all_links": [
    {
      "text": "INCHEM: Linear Alkylbenzene/Alpha-Olefin Sulfonates & Alkyl Sulfates",
      "url": "http://www.inchem.org/documents/ehc/ehc/ehc169.htm"
    },
    {
      "text": "Search PubMed",
      "url": "https://www.ncbi.nlm.nih.gov/pubmed?term=1-Dodecanesulfonic+acid%2c+sodium+salt%20AND%20human%5Bmh%5D%20AND%20%28Occupational%20Diseases%20%5Bmh%5D%20OR%20Occupational%20Exposure%20%5Bmh%5D%29%20%20AND%20%28tox%5Bsb%5D%29&cmd=search"
    },
    {
      "text": "Acid and Alkali Cleaning of Metals",
      "url": "https://haz-map.com/Processes/6"
    },
    {
      "text": "Leather Tanning and Processing",
      "url": "https://haz-map.com/Processes/230"
    },
    {
      "text": "Textiles (Fiber & Fabric Manufacturing)",
      "url": "https://haz-map.com/Processes/135"
    }
  ]
}