{
  "metadata": {
    "scraped_from": "https://haz-map.com/Agents/20839",
    "entity_name": "Methyl isonicotinate",
    "category": "agents",
    "uuid": "ce35195c-fbdf-4d4d-b219-198afc998182",
    "scraped_at": "2025-07-23T22:32:47.589942"
  },
  "parsed_at": "2025-07-24T01:18:56.763421",
  "title": "Methyl isonicotinate",
  "sections": {
    "general": {
      "agent_name": {
        "original_name": "Agent Name",
        "value": "Methyl isonicotinate",
        "links": [],
        "cross_references": [
          {
            "type": "name_match",
            "text": "methyl isonicotinate",
            "confidence": 1.0,
            "uuid": "ce35195c-fbdf-4d4d-b219-198afc998182",
            "name": "Methyl isonicotinate",
            "url": "https://haz-map.com/Agents/20839",
            "category": "agents"
          }
        ]
      },
      "cas_number": {
        "original_name": "CAS Number",
        "value": "2459-09-8",
        "links": [],
        "cross_references": []
      },
      "formula": {
        "original_name": "Formula",
        "value": "C7-H7-N-O2",
        "links": [],
        "cross_references": []
      },
      "major_category": {
        "original_name": "Major Category",
        "value": "Nitrogen Compounds",
        "links": [],
        "cross_references": [
          {
            "type": "name_match",
            "text": "nitrogen",
            "confidence": 1.0,
            "uuid": "db5e90a9-06d2-45b9-8b81-f345a89b0bc0",
            "name": "Nitrogen",
            "url": "https://haz-map.com/Agents/1072",
            "category": "agents"
          }
        ]
      },
      "synonyms": {
        "original_name": "Synonyms",
        "value": "4-Methoxycarbonylpyridine; Isonicotinic acid methyl ester; Methyl 4-pyridinecarboxylate; 4-Pyridinecarboxylic acid, methyl ester; Isonicotinic acid, methyl ester (8CI); [ChemIDplus]",
        "links": [],
        "cross_references": [
          {
            "type": "name_match",
            "text": "pyridine",
            "confidence": 1.0,
            "uuid": "a2d916a4-844b-4df6-9be5-868b2b364d71",
            "name": "Pyridine",
            "url": "https://haz-map.com/Agents/616",
            "category": "agents"
          },
          {
            "type": "name_match",
            "text": "carbon",
            "confidence": 1.0,
            "uuid": "b53f8815-ee80-40ef-b4aa-3b000e17dab5",
            "name": "Carbon",
            "url": "https://haz-map.com/Agents/1891",
            "category": "agents"
          },
          {
            "type": "name_match",
            "text": "nicotinic acid",
            "confidence": 1.0,
            "uuid": "a2557ad0-66df-43a7-b01e-f9390d8e602f",
            "name": "Nicotinic acid",
            "url": "https://haz-map.com/Agents/15893",
            "category": "agents"
          },
          {
            "type": "name_match",
            "text": "isonicotinic acid",
            "confidence": 1.0,
            "uuid": "bc949ff8-5445-456f-97ae-5b5eac9ad56b",
            "name": "Isonicotinic acid",
            "url": "https://haz-map.com/Agents/21060",
            "category": "agents"
          }
        ]
      },
      "category": {
        "original_name": "Category",
        "value": "Pyridines",
        "links": [],
        "cross_references": [
          {
            "type": "name_match",
            "text": "pyridine",
            "confidence": 1.0,
            "uuid": "a2d916a4-844b-4df6-9be5-868b2b364d71",
            "name": "Pyridine",
            "url": "https://haz-map.com/Agents/616",
            "category": "agents"
          }
        ]
      },
      "description": {
        "original_name": "Description",
        "value": "Colorless liquid; mp = 7-9 deg C; [Alfa Aesar MSDS]",
        "links": [],
        "cross_references": []
      },
      "comments": {
        "original_name": "Comments",
        "value": "A strong eye irritant; [Alfa Aesar MSDS] See \"Isonicotinic acid.\"",
        "links": [],
        "cross_references": [
          {
            "type": "name_match",
            "text": "nicotinic acid",
            "confidence": 1.0,
            "uuid": "a2557ad0-66df-43a7-b01e-f9390d8e602f",
            "name": "Nicotinic acid",
            "url": "https://haz-map.com/Agents/15893",
            "category": "agents"
          },
          {
            "type": "name_match",
            "text": "isonicotinic acid",
            "confidence": 1.0,
            "uuid": "bc949ff8-5445-456f-97ae-5b5eac9ad56b",
            "name": "Isonicotinic acid",
            "url": "https://haz-map.com/Agents/21060",
            "category": "agents"
          }
        ]
      },
      "biomedical_references": {
        "original_name": "Biomedical References",
        "value": "Search PubMed",
        "links": [
          {
            "text": "Search PubMed",
            "url": "https://www.ncbi.nlm.nih.gov/pubmed?term=Methyl+isonicotinate%20AND%20human%5Bmh%5D%20AND%20%28Occupational%20Diseases%20%5Bmh%5D%20OR%20Occupational%20Exposure%20%5Bmh%5D%29%20%20AND%20%28tox%5Bsb%5D%29&cmd=search"
          }
        ],
        "cross_references": []
      }
    },
    "exposure_assessment": {
      "vapor_pressure": {
        "original_name": "Vapor Pressure",
        "value": "0.277 mm Hg",
        "links": [],
        "cross_references": []
      }
    },
    "diseases_processes_and_activities_linked_to_this_agent": {
      "other_information": {
        "original_name": "Other Information",
        "value": "No other related information on this agent was found.",
        "links": [],
        "cross_references": []
      }
    }
  },
  "cross_references": [
    {
      "type": "name_match",
      "text": "pyridine",
      "confidence": 1.0,
      "uuid": "a2d916a4-844b-4df6-9be5-868b2b364d71",
      "name": "Pyridine",
      "url": "https://haz-map.com/Agents/616",
      "category": "agents"
    },
    {
      "type": "name_match",
      "text": "nitrogen",
      "confidence": 1.0,
      "uuid": "db5e90a9-06d2-45b9-8b81-f345a89b0bc0",
      "name": "Nitrogen",
      "url": "https://haz-map.com/Agents/1072",
      "category": "agents"
    },
    {
      "type": "name_match",
      "text": "carbon",
      "confidence": 1.0,
      "uuid": "b53f8815-ee80-40ef-b4aa-3b000e17dab5",
      "name": "Carbon",
      "url": "https://haz-map.com/Agents/1891",
      "category": "agents"
    },
    {
      "type": "name_match",
      "text": "nicotinic acid",
      "confidence": 1.0,
      "uuid": "a2557ad0-66df-43a7-b01e-f9390d8e602f",
      "name": "Nicotinic acid",
      "url": "https://haz-map.com/Agents/15893",
      "category": "agents"
    },
    {
      "type": "name_match",
      "text": "methyl isonicotinate",
      "confidence": 1.0,
      "uuid": "ce35195c-fbdf-4d4d-b219-198afc998182",
      "name": "Methyl isonicotinate",
      "url": "https://haz-map.com/Agents/20839",
      "category": "agents"
    },
    {
      "type": "name_match",
      "text": "isonicotinic acid",
      "confidence": 1.0,
      "uuid": "bc949ff8-5445-456f-97ae-5b5eac9ad56b",
      "name": "Isonicotinic acid",
      "url": "https://haz-map.com/Agents/21060",
      "category": "agents"
    }
  ],
  "all_links": [
    {
      "text": "Search PubMed",
      "url": "https://www.ncbi.nlm.nih.gov/pubmed?term=Methyl+isonicotinate%20AND%20human%5Bmh%5D%20AND%20%28Occupational%20Diseases%20%5Bmh%5D%20OR%20Occupational%20Exposure%20%5Bmh%5D%29%20%20AND%20%28tox%5Bsb%5D%29&cmd=search"
    }
  ]
}