{
  "metadata": {
    "scraped_from": "https://haz-map.com/Agents/7416",
    "entity_name": "Thionazin",
    "category": "agents",
    "uuid": "ce5899ad-0585-41aa-926b-921e21e58b16",
    "scraped_at": "2025-07-23T20:12:35.929846"
  },
  "parsed_at": "2025-07-24T01:05:40.754811",
  "title": "Thionazin",
  "sections": {
    "general": {
      "agent_name": {
        "original_name": "Agent Name",
        "value": "Thionazin",
        "links": [],
        "cross_references": [
          {
            "type": "name_match",
            "text": "thionazin",
            "confidence": 1.0,
            "uuid": "ce5899ad-0585-41aa-926b-921e21e58b16",
            "name": "Thionazin",
            "url": "https://haz-map.com/Agents/7416",
            "category": "agents"
          }
        ]
      },
      "cas_number": {
        "original_name": "CAS Number",
        "value": "297-97-2",
        "links": [],
        "cross_references": []
      },
      "formula": {
        "original_name": "Formula",
        "value": "C8-H13-N2-O3-P-S",
        "links": [],
        "cross_references": []
      },
      "major_category": {
        "original_name": "Major Category",
        "value": "Pesticides",
        "links": [],
        "cross_references": []
      },
      "synonyms": {
        "original_name": "Synonyms",
        "value": "AC 18133; ACC 18133; American Cyanamid 18133; CL 18133; Cynem; Cynophos; Diethyl O-2-pyrazinyl phosphorothionate; EN 18133; ENT 25,580; Ethyl pyrazinyl phosphorothioate; Experimental nematocide 18,133; Nemafos; Nemafos 10 G; Nemaphos; Nematocide GR; O,O-Diaethyl-O-(2-pyrazinyl)-thionophosphat [German]; O,O-Diaethyl-O-(pyrazin-2-yl)-monothiophosphat [German]; O,O-Diethyl O,2-pyrazinyl phosphorothioate; O,O-Diethyl O-2-pyrazinyl phosphorothionate; O,O-Diethyl O-pyrazinyl phosphorothioate; O,O-Diethyl O-pyrazinyl thiophosphate; Phosphorothioic acid, O,O-diethyl O-2-pyrazinyl ester; Phosphorothioic acid, O,O-diethyl O-pyrazinyl ester; Pyrazinol, O-ester with O,O-diethyl phosphorothioate; Thionazin [BSI]; Thionazine; Zinofos; Zinophos; Zinophos 10-G granular; Zinophos 4-E emulsifiable concentrate; Zinphos Insecticide, Nematicide; Zynophos; [ChemIDplus]",
        "links": [],
        "cross_references": [
          {
            "type": "name_match",
            "text": "thionazin",
            "confidence": 1.0,
            "uuid": "ce5899ad-0585-41aa-926b-921e21e58b16",
            "name": "Thionazin",
            "url": "https://haz-map.com/Agents/7416",
            "category": "agents"
          }
        ]
      },
      "category": {
        "original_name": "Category",
        "value": "Organophosphate Insecticides",
        "links": [],
        "cross_references": []
      },
      "description": {
        "original_name": "Description",
        "value": "Nearly colorless liquid when pure; Technical product: Light brown to tan liquid; [HSDB] Clear very deep brown liquid; [MSDSonline]",
        "links": [],
        "cross_references": [
          {
            "type": "name_match",
            "text": "ht",
            "confidence": 1.0,
            "uuid": "764df367-8d53-4a11-81a2-31ccfe122a8d",
            "name": "HT",
            "url": "https://haz-map.com/Agents/2168",
            "category": "agents"
          }
        ]
      },
      "sourcesuses": {
        "original_name": "Sources/Uses",
        "value": "Used as soil insecticide and nematocide to protect vegetables, corn, and other crops; No longer commercially produced in the US; [HSDB] Used in insecticides, fungicides, and nematocides; [CAMEO]",
        "links": [],
        "cross_references": [
          {
            "type": "name_match",
            "text": "fungicides",
            "confidence": 1.0,
            "uuid": "f4a9c1e1-4d57-4480-be97-d3590d38ce39",
            "name": "FUNGICIDES",
            "url": "https://haz-map.com/Agents/763",
            "category": "agents"
          },
          {
            "type": "name_match",
            "text": "fungi",
            "confidence": 1.0,
            "uuid": "e0d489cb-bfee-4aee-b665-999c017268a2",
            "name": "Fungi",
            "url": "https://haz-map.com/Agents/1988",
            "category": "agents"
          }
        ]
      },
      "comments": {
        "original_name": "Comments",
        "value": "A cholinesterase inhibitor; [CAMEO] “The average of two baseline respective cholinesterase activity determinations three days apart, with no exposures to enzyme inhibiting pesticides for at least 30 days, is recommended for each worker prior to exposure to cholinesterase inhibitors because of large inter-individual differences in published baseline values. To be established at least once a year. Removal from workplace exposures is recommended until the cholinesterase activity returns to within 20% of baseline.” [TLVs and BEIs]",
        "links": [],
        "cross_references": [
          {
            "type": "name_match",
            "text": "choline",
            "confidence": 1.0,
            "uuid": "a21a71e9-9d67-4563-9da2-98c4dcb1b766",
            "name": "Choline",
            "url": "https://haz-map.com/Agents/12978",
            "category": "agents"
          }
        ]
      },
      "restricted": {
        "original_name": "Restricted",
        "value": "Not registered with the EPA for use as pesticide in the US; [CAMEO]",
        "links": [],
        "cross_references": []
      },
      "biomedical_references": {
        "original_name": "Biomedical References",
        "value": "Search PubMed",
        "links": [
          {
            "text": "Search PubMed",
            "url": "https://www.ncbi.nlm.nih.gov/pubmed?term=Thionazin%20AND%20human%5Bmh%5D%20AND%20%28Occupational%20Diseases%20%5Bmh%5D%20OR%20Occupational%20Exposure%20%5Bmh%5D%29%20%20AND%20%28tox%5Bsb%5D%29&cmd=search"
          }
        ],
        "cross_references": []
      }
    },
    "exposure_assessment": {
      "bei": {
        "original_name": "BEI",
        "value": "Acetylcholinesterase activity in red blood cells = 70% of individual's baseline; Butylcholinesterase activity in serum or plasma = 60% of individual's baseline; Sample at end of shift; [TLVs and BEIs]",
        "links": [],
        "cross_references": [
          {
            "type": "name_match",
            "text": "choline",
            "confidence": 1.0,
            "uuid": "a21a71e9-9d67-4563-9da2-98c4dcb1b766",
            "name": "Choline",
            "url": "https://haz-map.com/Agents/12978",
            "category": "agents"
          }
        ]
      },
      "vapor_pressure": {
        "original_name": "Vapor Pressure",
        "value": "0.003 mm Hg",
        "links": [],
        "cross_references": []
      }
    },
    "adverse_effects": {
      "other_poison": {
        "original_name": "Other Poison",
        "value": "Organophosphate",
        "links": [],
        "cross_references": []
      }
    },
    "diseases_processes_and_activities_linked_to_this_agent": {
      "diseases": {
        "original_name": "Diseases",
        "value": "Occupational diseases associated with exposure to this agent: Organophosphates & carbamates, acute poisoning",
        "links": [
          {
            "text": "Organophosphates & carbamates, acute poisoning",
            "url": "https://haz-map.com/Diseases/66"
          }
        ],
        "cross_references": [
          {
            "type": "url_match",
            "text": "Organophosphates & carbamates, acute poisoning",
            "url": "https://haz-map.com/Diseases/66",
            "confidence": 1.0,
            "uuid": "aea2cba9-fb36-463f-84d8-b819551bb327",
            "name": "Organophosphates & carbamates, acute poisoning",
            "category": "diseases"
          },
          {
            "type": "name_match",
            "text": "organophosphates",
            "confidence": 1.0,
            "uuid": "8d2d239c-20f9-4f02-9916-5e7667b9990c",
            "name": "ORGANOPHOSPHATES",
            "url": "https://haz-map.com/Agents/702",
            "category": "agents"
          }
        ]
      },
      "processes": {
        "original_name": "Processes",
        "value": "Industrial Processes with risk of exposure: Farming (Pesticides)",
        "links": [
          {
            "text": "Farming (Pesticides)",
            "url": "https://haz-map.com/Processes/218"
          }
        ],
        "cross_references": [
          {
            "type": "url_match",
            "text": "Farming (Pesticides)",
            "url": "https://haz-map.com/Processes/218",
            "confidence": 1.0,
            "uuid": "cf1e5815-c9bb-4917-82a5-391848170b7e",
            "name": "Farming (Pesticides)",
            "category": "processes"
          }
        ]
      }
    }
  },
  "cross_references": [
    {
      "type": "url_match",
      "text": "Organophosphates & carbamates, acute poisoning",
      "url": "https://haz-map.com/Diseases/66",
      "confidence": 1.0,
      "uuid": "aea2cba9-fb36-463f-84d8-b819551bb327",
      "name": "Organophosphates & carbamates, acute poisoning",
      "category": "diseases"
    },
    {
      "type": "url_match",
      "text": "Farming (Pesticides)",
      "url": "https://haz-map.com/Processes/218",
      "confidence": 1.0,
      "uuid": "cf1e5815-c9bb-4917-82a5-391848170b7e",
      "name": "Farming (Pesticides)",
      "category": "processes"
    },
    {
      "type": "name_match",
      "text": "organophosphates",
      "confidence": 1.0,
      "uuid": "8d2d239c-20f9-4f02-9916-5e7667b9990c",
      "name": "ORGANOPHOSPHATES",
      "url": "https://haz-map.com/Agents/702",
      "category": "agents"
    },
    {
      "type": "name_match",
      "text": "fungicides",
      "confidence": 1.0,
      "uuid": "f4a9c1e1-4d57-4480-be97-d3590d38ce39",
      "name": "FUNGICIDES",
      "url": "https://haz-map.com/Agents/763",
      "category": "agents"
    },
    {
      "type": "name_match",
      "text": "fungi",
      "confidence": 1.0,
      "uuid": "e0d489cb-bfee-4aee-b665-999c017268a2",
      "name": "Fungi",
      "url": "https://haz-map.com/Agents/1988",
      "category": "agents"
    },
    {
      "type": "name_match",
      "text": "ht",
      "confidence": 1.0,
      "uuid": "764df367-8d53-4a11-81a2-31ccfe122a8d",
      "name": "HT",
      "url": "https://haz-map.com/Agents/2168",
      "category": "agents"
    },
    {
      "type": "name_match",
      "text": "thionazin",
      "confidence": 1.0,
      "uuid": "ce5899ad-0585-41aa-926b-921e21e58b16",
      "name": "Thionazin",
      "url": "https://haz-map.com/Agents/7416",
      "category": "agents"
    },
    {
      "type": "name_match",
      "text": "choline",
      "confidence": 1.0,
      "uuid": "a21a71e9-9d67-4563-9da2-98c4dcb1b766",
      "name": "Choline",
      "url": "https://haz-map.com/Agents/12978",
      "category": "agents"
    }
  ],
  "all_links": [
    {
      "text": "Search PubMed",
      "url": "https://www.ncbi.nlm.nih.gov/pubmed?term=Thionazin%20AND%20human%5Bmh%5D%20AND%20%28Occupational%20Diseases%20%5Bmh%5D%20OR%20Occupational%20Exposure%20%5Bmh%5D%29%20%20AND%20%28tox%5Bsb%5D%29&cmd=search"
    },
    {
      "text": "Organophosphates & carbamates, acute poisoning",
      "url": "https://haz-map.com/Diseases/66"
    },
    {
      "text": "Farming (Pesticides)",
      "url": "https://haz-map.com/Processes/218"
    }
  ]
}