{
  "metadata": {
    "scraped_from": "https://haz-map.com/Agents/3590",
    "entity_name": "alpha-Phellandrene",
    "category": "agents",
    "uuid": "ce7d7c11-91b7-465e-a124-f1851e355c2f",
    "scraped_at": "2025-07-23T19:31:07.157612"
  },
  "parsed_at": "2025-07-24T01:05:20.365628",
  "title": "alpha-Phellandrene",
  "sections": {
    "general": {
      "agent_name": {
        "original_name": "Agent Name",
        "value": "alpha-Phellandrene",
        "links": [],
        "cross_references": [
          {
            "type": "name_match",
            "text": "alpha-phellandrene",
            "confidence": 1.0,
            "uuid": "ce7d7c11-91b7-465e-a124-f1851e355c2f",
            "name": "alpha-Phellandrene",
            "url": "https://haz-map.com/Agents/3590",
            "category": "agents"
          }
        ]
      },
      "cas_number": {
        "original_name": "CAS Number",
        "value": "99-83-2",
        "links": [],
        "cross_references": []
      },
      "formula": {
        "original_name": "Formula",
        "value": "C10-H16",
        "links": [],
        "cross_references": []
      },
      "major_category": {
        "original_name": "Major Category",
        "value": "Biological Agents",
        "links": [],
        "cross_references": []
      },
      "synonyms": {
        "original_name": "Synonyms",
        "value": "1,3-Cyclohexadiene, 2-methyl-5-(1-methylethyl)-; 1-Isopropyl-4-methyl-2,4-cyclohexadiene; 1-Methyl-4-isopropyl-1,5-cyclohexadiene; 2-Methyl-5-isopropyl-1,3-cyclohexadiene; 4-Isopropyl-1-methyl-1,5-cyclohexadiene; 5-Isopropyl-2-methyl-1,3-cyclohexadiene; Dihydro-p-cymene; Menthadiene; alpha-Fellandrene; alpha-Phellandrene (natural); p-Mentha-1,5-diene; Phellandrene, alpha-; [ChemIDplus] UN2319",
        "links": [],
        "cross_references": [
          {
            "type": "name_match",
            "text": "alpha-phellandrene",
            "confidence": 1.0,
            "uuid": "ce7d7c11-91b7-465e-a124-f1851e355c2f",
            "name": "alpha-Phellandrene",
            "url": "https://haz-map.com/Agents/3590",
            "category": "agents"
          },
          {
            "type": "name_match",
            "text": "p-cymene",
            "confidence": 1.0,
            "uuid": "7c26b58e-9cb6-494e-9133-ac247d5e5d43",
            "name": "p-Cymene",
            "url": "https://haz-map.com/Agents/8267",
            "category": "agents"
          },
          {
            "type": "name_match",
            "text": "1,3-cyclohexadiene",
            "confidence": 1.0,
            "uuid": "ca7bbf5a-6064-485d-9ed8-54eb19d09f28",
            "name": "1,3-Cyclohexadiene",
            "url": "https://haz-map.com/Agents/9615",
            "category": "agents"
          },
          {
            "type": "fuzzy_match",
            "text": "4-cyclohexadiene",
            "matched_name": "1,4-Cyclohexadiene",
            "confidence": 0.8777777777777778,
            "uuid": "f6303b2c-b0e6-4958-a94a-317f168443de",
            "category": "agents",
            "url": "https://haz-map.com/Agents/8514"
          }
        ]
      },
      "category": {
        "original_name": "Category",
        "value": "Plant Oils and Extracts",
        "links": [],
        "cross_references": []
      },
      "description": {
        "original_name": "Description",
        "value": "Colorless liquid; [Hawley]",
        "links": [],
        "cross_references": []
      },
      "sourcesuses": {
        "original_name": "Sources/Uses",
        "value": "Found in Ceylon ginger oil, Seychelles cinnamon oil, and eucalyptus oil; Used in flavors and perfumes; [Hawley] Used as a chemical intermediate; [HSDB]",
        "links": [],
        "cross_references": [
          {
            "type": "name_match",
            "text": "mica",
            "confidence": 1.0,
            "uuid": "433f26f1-c399-4596-b179-ce3843cfd465",
            "name": "Mica",
            "url": "https://haz-map.com/Agents/621",
            "category": "agents"
          },
          {
            "type": "name_match",
            "text": "cinnamon",
            "confidence": 1.0,
            "uuid": "98b53a47-9754-495d-8d14-483673064927",
            "name": "Cinnamon",
            "url": "https://haz-map.com/Agents/970",
            "category": "agents"
          }
        ]
      },
      "comments": {
        "original_name": "Comments",
        "value": "A strong irritant; [Hawley] Emergency treatment: Irritants; [HSDB] Can cause diarrhea and vomiting after ingestion; [Merck Index] Safe when used as a flavoring agent in food; [JECFA] An irritant; Can be absorbed through skin; May cause skin and respiratory sensitization; [Aldrich MSDS]",
        "links": [],
        "cross_references": [
          {
            "type": "name_match",
            "text": "diarrhea",
            "confidence": 1.0,
            "uuid": "001ae7b5-5f3c-42c2-bc33-81e7581abd53",
            "name": "diarrhea",
            "url": "https://haz-map.com/Findings/15",
            "category": "findings"
          },
          {
            "type": "name_match",
            "text": "irritants",
            "confidence": 1.0,
            "uuid": "9d2b9572-8c3e-48a4-ac68-63d6e2eb6f49",
            "name": "Irritants",
            "url": "https://haz-map.com/Agents/2063",
            "category": "agents"
          }
        ]
      },
      "biomedical_references": {
        "original_name": "Biomedical References",
        "value": "Search PubMed",
        "links": [
          {
            "text": "Search PubMed",
            "url": "https://www.ncbi.nlm.nih.gov/pubmed?term=alpha-Phellandrene%20AND%20human%5Bmh%5D%20AND%20%28Occupational%20Diseases%20%5Bmh%5D%20OR%20Occupational%20Exposure%20%5Bmh%5D%29%20%20AND%20%28tox%5Bsb%5D%29&cmd=search"
          }
        ],
        "cross_references": []
      }
    },
    "exposure_assessment": {
      "vapor_pressure": {
        "original_name": "Vapor Pressure",
        "value": "1.4 mm Hg",
        "links": [],
        "cross_references": []
      },
      "explanatory_notes": {
        "original_name": "Explanatory Notes",
        "value": "The Guide in the Emergency Response Guidebook is for \"Terpene hydrocarbons, n.o.s.\" VP from ChemIDplus;",
        "links": [],
        "cross_references": [
          {
            "type": "name_match",
            "text": "carbon",
            "confidence": 1.0,
            "uuid": "b53f8815-ee80-40ef-b4aa-3b000e17dab5",
            "name": "Carbon",
            "url": "https://haz-map.com/Agents/1891",
            "category": "agents"
          },
          {
            "type": "fuzzy_match",
            "text": "hydrocarbons",
            "matched_name": "Hydrocarbons, C>3",
            "confidence": 0.7100840336134454,
            "uuid": "8eaa37ac-3931-44e4-9242-2734127fd661",
            "category": "agents",
            "url": "https://haz-map.com/Agents/14795"
          }
        ]
      }
    },
    "diseases_processes_and_activities_linked_to_this_agent": {
      "other_information": {
        "original_name": "Other Information",
        "value": "No other related information on this agent was found.",
        "links": [],
        "cross_references": []
      }
    }
  },
  "cross_references": [
    {
      "type": "name_match",
      "text": "diarrhea",
      "confidence": 1.0,
      "uuid": "001ae7b5-5f3c-42c2-bc33-81e7581abd53",
      "name": "diarrhea",
      "url": "https://haz-map.com/Findings/15",
      "category": "findings"
    },
    {
      "type": "name_match",
      "text": "mica",
      "confidence": 1.0,
      "uuid": "433f26f1-c399-4596-b179-ce3843cfd465",
      "name": "Mica",
      "url": "https://haz-map.com/Agents/621",
      "category": "agents"
    },
    {
      "type": "name_match",
      "text": "cinnamon",
      "confidence": 1.0,
      "uuid": "98b53a47-9754-495d-8d14-483673064927",
      "name": "Cinnamon",
      "url": "https://haz-map.com/Agents/970",
      "category": "agents"
    },
    {
      "type": "name_match",
      "text": "carbon",
      "confidence": 1.0,
      "uuid": "b53f8815-ee80-40ef-b4aa-3b000e17dab5",
      "name": "Carbon",
      "url": "https://haz-map.com/Agents/1891",
      "category": "agents"
    },
    {
      "type": "name_match",
      "text": "irritants",
      "confidence": 1.0,
      "uuid": "9d2b9572-8c3e-48a4-ac68-63d6e2eb6f49",
      "name": "Irritants",
      "url": "https://haz-map.com/Agents/2063",
      "category": "agents"
    },
    {
      "type": "name_match",
      "text": "alpha-phellandrene",
      "confidence": 1.0,
      "uuid": "ce7d7c11-91b7-465e-a124-f1851e355c2f",
      "name": "alpha-Phellandrene",
      "url": "https://haz-map.com/Agents/3590",
      "category": "agents"
    },
    {
      "type": "name_match",
      "text": "p-cymene",
      "confidence": 1.0,
      "uuid": "7c26b58e-9cb6-494e-9133-ac247d5e5d43",
      "name": "p-Cymene",
      "url": "https://haz-map.com/Agents/8267",
      "category": "agents"
    },
    {
      "type": "name_match",
      "text": "1,3-cyclohexadiene",
      "confidence": 1.0,
      "uuid": "ca7bbf5a-6064-485d-9ed8-54eb19d09f28",
      "name": "1,3-Cyclohexadiene",
      "url": "https://haz-map.com/Agents/9615",
      "category": "agents"
    },
    {
      "type": "fuzzy_match",
      "text": "4-cyclohexadiene",
      "matched_name": "1,4-Cyclohexadiene",
      "confidence": 0.8777777777777778,
      "uuid": "f6303b2c-b0e6-4958-a94a-317f168443de",
      "category": "agents",
      "url": "https://haz-map.com/Agents/8514"
    },
    {
      "type": "fuzzy_match",
      "text": "hydrocarbons",
      "matched_name": "Hydrocarbons, C>3",
      "confidence": 0.7100840336134454,
      "uuid": "8eaa37ac-3931-44e4-9242-2734127fd661",
      "category": "agents",
      "url": "https://haz-map.com/Agents/14795"
    }
  ],
  "all_links": [
    {
      "text": "Search PubMed",
      "url": "https://www.ncbi.nlm.nih.gov/pubmed?term=alpha-Phellandrene%20AND%20human%5Bmh%5D%20AND%20%28Occupational%20Diseases%20%5Bmh%5D%20OR%20Occupational%20Exposure%20%5Bmh%5D%29%20%20AND%20%28tox%5Bsb%5D%29&cmd=search"
    }
  ]
}