{
  "metadata": {
    "scraped_from": "https://haz-map.com/Agents/3040",
    "entity_name": "2,6-Dichlorobenzamide",
    "category": "agents",
    "uuid": "cf1713a9-fe46-4a41-8b9e-7dfc6437d763",
    "scraped_at": "2025-07-23T19:23:07.313176"
  },
  "parsed_at": "2025-07-24T01:05:36.224657",
  "title": "2,6-Dichlorobenzamide",
  "sections": {
    "general": {
      "agent_name": {
        "original_name": "Agent Name",
        "value": "2,6-Dichlorobenzamide",
        "links": [],
        "cross_references": [
          {
            "type": "name_match",
            "text": "2,6-dichlorobenzamide",
            "confidence": 1.0,
            "uuid": "cf1713a9-fe46-4a41-8b9e-7dfc6437d763",
            "name": "2,6-Dichlorobenzamide",
            "url": "https://haz-map.com/Agents/3040",
            "category": "agents"
          },
          {
            "type": "name_match",
            "text": "benzamide",
            "confidence": 1.0,
            "uuid": "8900c544-7f26-477e-a4c1-ff24fcc01b2c",
            "name": "Benzamide",
            "url": "https://haz-map.com/Agents/3828",
            "category": "agents"
          }
        ]
      },
      "cas_number": {
        "original_name": "CAS Number",
        "value": "2008-58-4",
        "links": [],
        "cross_references": []
      },
      "formula": {
        "original_name": "Formula",
        "value": "C7-H5-Cl2-N-O",
        "links": [],
        "cross_references": []
      },
      "major_category": {
        "original_name": "Major Category",
        "value": "Nitrogen Compounds",
        "links": [],
        "cross_references": [
          {
            "type": "name_match",
            "text": "nitrogen",
            "confidence": 1.0,
            "uuid": "db5e90a9-06d2-45b9-8b81-f345a89b0bc0",
            "name": "Nitrogen",
            "url": "https://haz-map.com/Agents/1072",
            "category": "agents"
          }
        ]
      },
      "synonyms": {
        "original_name": "Synonyms",
        "value": "2,6-BAM; BAM; Benzamide, 2,6-dichloro-; [ChemIDplus]",
        "links": [],
        "cross_references": [
          {
            "type": "name_match",
            "text": "benzamide",
            "confidence": 1.0,
            "uuid": "8900c544-7f26-477e-a4c1-ff24fcc01b2c",
            "name": "Benzamide",
            "url": "https://haz-map.com/Agents/3828",
            "category": "agents"
          }
        ]
      },
      "category": {
        "original_name": "Category",
        "value": "Other Aromatics (Nitrogen)",
        "links": [],
        "cross_references": [
          {
            "type": "name_match",
            "text": "nitrogen",
            "confidence": 1.0,
            "uuid": "db5e90a9-06d2-45b9-8b81-f345a89b0bc0",
            "name": "Nitrogen",
            "url": "https://haz-map.com/Agents/1072",
            "category": "agents"
          }
        ]
      },
      "description": {
        "original_name": "Description",
        "value": "Off-white powder; [MSDSonline]",
        "links": [],
        "cross_references": []
      },
      "sourcesuses": {
        "original_name": "Sources/Uses",
        "value": "Used in the synthesis of dichlobenil; [HSDB]",
        "links": [],
        "cross_references": [
          {
            "type": "name_match",
            "text": "dichlobenil",
            "confidence": 1.0,
            "uuid": "9ec003be-eaf8-4759-b2ed-c33722a3d0fa",
            "name": "Dichlobenil",
            "url": "https://haz-map.com/Agents/1149",
            "category": "agents"
          }
        ]
      },
      "comments": {
        "original_name": "Comments",
        "value": "May cause irritation; [MSDSonline] See \"Benzamide.\"",
        "links": [],
        "cross_references": [
          {
            "type": "name_match",
            "text": "benzamide",
            "confidence": 1.0,
            "uuid": "8900c544-7f26-477e-a4c1-ff24fcc01b2c",
            "name": "Benzamide",
            "url": "https://haz-map.com/Agents/3828",
            "category": "agents"
          }
        ]
      },
      "biomedical_references": {
        "original_name": "Biomedical References",
        "value": "Search PubMed",
        "links": [
          {
            "text": "Search PubMed",
            "url": "https://www.ncbi.nlm.nih.gov/pubmed?term=2%2c6-Dichlorobenzamide%20AND%20human%5Bmh%5D%20AND%20%28Occupational%20Diseases%20%5Bmh%5D%20OR%20Occupational%20Exposure%20%5Bmh%5D%29%20%20AND%20%28tox%5Bsb%5D%29&cmd=search"
          }
        ],
        "cross_references": []
      }
    },
    "exposure_assessment": {
      "vapor_pressure": {
        "original_name": "Vapor Pressure",
        "value": "3.26E-05 mm Hg",
        "links": [],
        "cross_references": []
      }
    },
    "diseases_processes_and_activities_linked_to_this_agent": {
      "other_information": {
        "original_name": "Other Information",
        "value": "No other related information on this agent was found.",
        "links": [],
        "cross_references": []
      }
    }
  },
  "cross_references": [
    {
      "type": "name_match",
      "text": "nitrogen",
      "confidence": 1.0,
      "uuid": "db5e90a9-06d2-45b9-8b81-f345a89b0bc0",
      "name": "Nitrogen",
      "url": "https://haz-map.com/Agents/1072",
      "category": "agents"
    },
    {
      "type": "name_match",
      "text": "dichlobenil",
      "confidence": 1.0,
      "uuid": "9ec003be-eaf8-4759-b2ed-c33722a3d0fa",
      "name": "Dichlobenil",
      "url": "https://haz-map.com/Agents/1149",
      "category": "agents"
    },
    {
      "type": "name_match",
      "text": "2,6-dichlorobenzamide",
      "confidence": 1.0,
      "uuid": "cf1713a9-fe46-4a41-8b9e-7dfc6437d763",
      "name": "2,6-Dichlorobenzamide",
      "url": "https://haz-map.com/Agents/3040",
      "category": "agents"
    },
    {
      "type": "name_match",
      "text": "benzamide",
      "confidence": 1.0,
      "uuid": "8900c544-7f26-477e-a4c1-ff24fcc01b2c",
      "name": "Benzamide",
      "url": "https://haz-map.com/Agents/3828",
      "category": "agents"
    }
  ],
  "all_links": [
    {
      "text": "Search PubMed",
      "url": "https://www.ncbi.nlm.nih.gov/pubmed?term=2%2c6-Dichlorobenzamide%20AND%20human%5Bmh%5D%20AND%20%28Occupational%20Diseases%20%5Bmh%5D%20OR%20Occupational%20Exposure%20%5Bmh%5D%29%20%20AND%20%28tox%5Bsb%5D%29&cmd=search"
    }
  ]
}