{
  "metadata": {
    "scraped_from": "https://haz-map.com/Agents/7468",
    "entity_name": "Tonalid",
    "category": "agents",
    "uuid": "cfb2fcb2-ad2c-4545-b4fd-1feed9c175fe",
    "scraped_at": "2025-07-23T20:12:57.609820"
  },
  "parsed_at": "2025-07-24T00:53:39.219342",
  "title": "Tonalid",
  "sections": {
    "general": {
      "agent_name": {
        "original_name": "Agent Name",
        "value": "Tonalid",
        "links": [],
        "cross_references": [
          {
            "type": "name_match",
            "text": "tonalid",
            "confidence": 1.0,
            "uuid": "cfb2fcb2-ad2c-4545-b4fd-1feed9c175fe",
            "name": "Tonalid",
            "url": "https://haz-map.com/Agents/7468",
            "category": "agents"
          }
        ]
      },
      "cas_number": {
        "original_name": "CAS Number",
        "value": "21145-77-7; 1506-02-1",
        "links": [],
        "cross_references": []
      },
      "formula": {
        "original_name": "Formula",
        "value": "C18-H26-O",
        "links": [],
        "cross_references": []
      },
      "major_category": {
        "original_name": "Major Category",
        "value": "Other Classes",
        "links": [],
        "cross_references": []
      },
      "synonyms": {
        "original_name": "Synonyms",
        "value": "2'-Acetonaphthone, 5',6',7',8'-tetrahydro-3',5',5',6',8',8'-hexamethyl-; AHMT; AHMT (perfume); AHTN; Musk tonalid; Tentarome; Tetralide; Tonalide; 1-(5,6,7,8-Tetrahydro-3,5,5,6,8,8-hexamethyl-2-naphthyl)ethan-1-one; Ethanone, 1-(5,6,7,8-tetrahydro-3,5,5,6,8,8-hexamethyl-2-naphthalenyl)-; [ChemIDplus]",
        "links": [],
        "cross_references": [
          {
            "type": "name_match",
            "text": "ht",
            "confidence": 1.0,
            "uuid": "764df367-8d53-4a11-81a2-31ccfe122a8d",
            "name": "HT",
            "url": "https://haz-map.com/Agents/2168",
            "category": "agents"
          },
          {
            "type": "name_match",
            "text": "tonalid",
            "confidence": 1.0,
            "uuid": "cfb2fcb2-ad2c-4545-b4fd-1feed9c175fe",
            "name": "Tonalid",
            "url": "https://haz-map.com/Agents/7468",
            "category": "agents"
          }
        ]
      },
      "category": {
        "original_name": "Category",
        "value": "Aromatic Ketones",
        "links": [],
        "cross_references": []
      },
      "description": {
        "original_name": "Description",
        "value": "Solid with an odor of musk; [HSDB]",
        "links": [],
        "cross_references": []
      },
      "sourcesuses": {
        "original_name": "Sources/Uses",
        "value": "Used as fragrance for cosmetics, detergents, fabric softeners, household cleaning products, and air fresheners; [HSDB]",
        "links": [],
        "cross_references": []
      },
      "comments": {
        "original_name": "Comments",
        "value": "A mild eye irritant, based on animal studies; [CHEMINFO] Causes liver injury in high-dose animal experiments; [RTECS] May be safely used as a fragrance in cosmetics up to 12%; [European Commission] Included in list of \"fragrance substances with negative human data, i.e. patch tests of patients with suspected contact allergy to fragrance ingredients which yielded negative results.\"; [EC: Scientific Committee on Consumer Safety: Fragrance allergens in cosmetic products (2011)] May cause irritation; [MSDSonline]",
        "links": [],
        "cross_references": []
      },
      "biomedical_references": {
        "original_name": "Biomedical References",
        "value": "Search PubMed",
        "links": [
          {
            "text": "Search PubMed",
            "url": "https://www.ncbi.nlm.nih.gov/pubmed?term=Tonalid%20AND%20human%5Bmh%5D%20AND%20%28Occupational%20Diseases%20%5Bmh%5D%20OR%20Occupational%20Exposure%20%5Bmh%5D%29%20%20AND%20%28tox%5Bsb%5D%29&cmd=search"
          }
        ],
        "cross_references": []
      }
    },
    "exposure_assessment": {
      "vapor_pressure": {
        "original_name": "Vapor Pressure",
        "value": "0.000512 mm Hg",
        "links": [],
        "cross_references": []
      }
    },
    "adverse_effects": {
      "hepatotoxin": {
        "original_name": "Hepatotoxin",
        "value": "Hepatoxic (a) from occupational exposure (secondary effect) or (b) in animal studies or in humans after ingestion",
        "links": [],
        "cross_references": []
      }
    },
    "diseases_processes_and_activities_linked_to_this_agent": {
      "other_information": {
        "original_name": "Other Information",
        "value": "No other related information on this agent was found.",
        "links": [],
        "cross_references": []
      }
    }
  },
  "cross_references": [
    {
      "type": "name_match",
      "text": "ht",
      "confidence": 1.0,
      "uuid": "764df367-8d53-4a11-81a2-31ccfe122a8d",
      "name": "HT",
      "url": "https://haz-map.com/Agents/2168",
      "category": "agents"
    },
    {
      "type": "name_match",
      "text": "tonalid",
      "confidence": 1.0,
      "uuid": "cfb2fcb2-ad2c-4545-b4fd-1feed9c175fe",
      "name": "Tonalid",
      "url": "https://haz-map.com/Agents/7468",
      "category": "agents"
    }
  ],
  "all_links": [
    {
      "text": "Search PubMed",
      "url": "https://www.ncbi.nlm.nih.gov/pubmed?term=Tonalid%20AND%20human%5Bmh%5D%20AND%20%28Occupational%20Diseases%20%5Bmh%5D%20OR%20Occupational%20Exposure%20%5Bmh%5D%29%20%20AND%20%28tox%5Bsb%5D%29&cmd=search"
    }
  ]
}