{
  "metadata": {
    "scraped_from": "https://haz-map.com/Agents/5255",
    "entity_name": "Ethyl thiocyanate",
    "category": "agents",
    "uuid": "d004435a-6a9a-4f38-b723-30026aa30288",
    "scraped_at": "2025-07-23T19:50:38.618807"
  },
  "parsed_at": "2025-07-24T01:04:14.039920",
  "title": "Ethyl thiocyanate",
  "sections": {
    "general": {
      "agent_name": {
        "original_name": "Agent Name",
        "value": "Ethyl thiocyanate",
        "links": [],
        "cross_references": [
          {
            "type": "name_match",
            "text": "ethyl thiocyanate",
            "confidence": 1.0,
            "uuid": "d004435a-6a9a-4f38-b723-30026aa30288",
            "name": "Ethyl thiocyanate",
            "url": "https://haz-map.com/Agents/5255",
            "category": "agents"
          }
        ]
      },
      "cas_number": {
        "original_name": "CAS Number",
        "value": "542-90-5",
        "links": [],
        "cross_references": []
      },
      "formula": {
        "original_name": "Formula",
        "value": "C3-H5-N-S",
        "links": [],
        "cross_references": []
      },
      "major_category": {
        "original_name": "Major Category",
        "value": "Pesticides",
        "links": [],
        "cross_references": []
      },
      "synonyms": {
        "original_name": "Synonyms",
        "value": "Aethylrhodanid [German]; Ethane, thiocyanato-; Ethyl rhodanate; Ethyl sulfocyanate; Ethylthiocyanate; Ethylthiokyanat [Czech]; Thiocyanic acid, ethyl ester; [ChemIDplus] UN1992",
        "links": [],
        "cross_references": [
          {
            "type": "name_match",
            "text": "ethane",
            "confidence": 1.0,
            "uuid": "5162cc8c-dfb9-4060-81ac-38a8cec7f9dd",
            "name": "Ethane",
            "url": "https://haz-map.com/Agents/1075",
            "category": "agents"
          },
          {
            "type": "name_match",
            "text": "thiocyanic acid",
            "confidence": 1.0,
            "uuid": "1ea9faab-6fd3-4195-bb95-eb98a8e81823",
            "name": "Thiocyanic acid",
            "url": "https://haz-map.com/Agents/19869",
            "category": "agents"
          }
        ]
      },
      "category": {
        "original_name": "Category",
        "value": "Other Insecticides",
        "links": [],
        "cross_references": []
      },
      "description": {
        "original_name": "Description",
        "value": "Volatile liquid; [HSDB] Clear faintly yellow liquid; [MSDSonline]",
        "links": [],
        "cross_references": []
      },
      "sourcesuses": {
        "original_name": "Sources/Uses",
        "value": "Used as agricultural insecticide; as insecticidal fumigant; [HSDB]",
        "links": [],
        "cross_references": []
      },
      "comments": {
        "original_name": "Comments",
        "value": "In high-dose animal studies, causes somnolence, convulsions, ataxia, paralysis, and changes to the liver and kidneys; [RTECS] Thiocyanates are goitrogenic; [HSDB] A severe irritant capable of causing serious injury in high concentrations; A lachrymator; Effects in high-dose animal studies include convulsions; [MSDSonline] See \"CYANIDES.\"",
        "links": [],
        "cross_references": [
          {
            "type": "name_match",
            "text": "convulsion",
            "confidence": 1.0,
            "uuid": "af2c36f8-707a-48e3-a62b-1aa07adc9b72",
            "name": "convulsion",
            "url": "https://haz-map.com/Findings/14",
            "category": "findings"
          },
          {
            "type": "name_match",
            "text": "cyanides",
            "confidence": 1.0,
            "uuid": "e0820766-8caf-4340-b774-eaf713436c8c",
            "name": "CYANIDES",
            "url": "https://haz-map.com/Agents/714",
            "category": "agents"
          },
          {
            "type": "name_match",
            "text": "cyanide",
            "confidence": 1.0,
            "uuid": "0b4d38ba-cc5c-4386-8079-9e7ff8fb2d3a",
            "name": "Cyanide",
            "url": "https://haz-map.com/Agents/13350",
            "category": "agents"
          }
        ]
      },
      "biomedical_references": {
        "original_name": "Biomedical References",
        "value": "Search PubMed",
        "links": [
          {
            "text": "Search PubMed",
            "url": "https://www.ncbi.nlm.nih.gov/pubmed?term=Ethyl+thiocyanate%20AND%20human%5Bmh%5D%20AND%20%28Occupational%20Diseases%20%5Bmh%5D%20OR%20Occupational%20Exposure%20%5Bmh%5D%29%20%20AND%20%28tox%5Bsb%5D%29&cmd=search"
          }
        ],
        "cross_references": []
      }
    },
    "exposure_assessment": {
      "vapor_pressure": {
        "original_name": "Vapor Pressure",
        "value": "4.83 mm Hg",
        "links": [],
        "cross_references": []
      },
      "explanatory_notes": {
        "original_name": "Explanatory Notes",
        "value": "The Guide in the Emergency Response Guidebook is for \"Flammable liquid, toxic, n.o.s.\" VP from ChemIDplus;",
        "links": [],
        "cross_references": []
      }
    },
    "adverse_effects": {
      "lachrymator": {
        "original_name": "Lachrymator",
        "value": "Yes",
        "links": [],
        "cross_references": []
      },
      "neurotoxin": {
        "original_name": "Neurotoxin",
        "value": "Other CNS neurotoxin",
        "links": [],
        "cross_references": []
      },
      "hepatotoxin": {
        "original_name": "Hepatotoxin",
        "value": "Hepatoxic (a) from occupational exposure (secondary effect) or (b) in animal studies or in humans after ingestion",
        "links": [],
        "cross_references": []
      }
    },
    "diseases_processes_and_activities_linked_to_this_agent": {
      "processes": {
        "original_name": "Processes",
        "value": "Industrial Processes with risk of exposure: Farming (Pesticides)",
        "links": [
          {
            "text": "Farming (Pesticides)",
            "url": "https://haz-map.com/Processes/218"
          }
        ],
        "cross_references": [
          {
            "type": "url_match",
            "text": "Farming (Pesticides)",
            "url": "https://haz-map.com/Processes/218",
            "confidence": 1.0,
            "uuid": "cf1e5815-c9bb-4917-82a5-391848170b7e",
            "name": "Farming (Pesticides)",
            "category": "processes"
          }
        ]
      }
    }
  },
  "cross_references": [
    {
      "type": "url_match",
      "text": "Farming (Pesticides)",
      "url": "https://haz-map.com/Processes/218",
      "confidence": 1.0,
      "uuid": "cf1e5815-c9bb-4917-82a5-391848170b7e",
      "name": "Farming (Pesticides)",
      "category": "processes"
    },
    {
      "type": "name_match",
      "text": "convulsion",
      "confidence": 1.0,
      "uuid": "af2c36f8-707a-48e3-a62b-1aa07adc9b72",
      "name": "convulsion",
      "url": "https://haz-map.com/Findings/14",
      "category": "findings"
    },
    {
      "type": "name_match",
      "text": "cyanides",
      "confidence": 1.0,
      "uuid": "e0820766-8caf-4340-b774-eaf713436c8c",
      "name": "CYANIDES",
      "url": "https://haz-map.com/Agents/714",
      "category": "agents"
    },
    {
      "type": "name_match",
      "text": "ethane",
      "confidence": 1.0,
      "uuid": "5162cc8c-dfb9-4060-81ac-38a8cec7f9dd",
      "name": "Ethane",
      "url": "https://haz-map.com/Agents/1075",
      "category": "agents"
    },
    {
      "type": "name_match",
      "text": "ethyl thiocyanate",
      "confidence": 1.0,
      "uuid": "d004435a-6a9a-4f38-b723-30026aa30288",
      "name": "Ethyl thiocyanate",
      "url": "https://haz-map.com/Agents/5255",
      "category": "agents"
    },
    {
      "type": "name_match",
      "text": "cyanide",
      "confidence": 1.0,
      "uuid": "0b4d38ba-cc5c-4386-8079-9e7ff8fb2d3a",
      "name": "Cyanide",
      "url": "https://haz-map.com/Agents/13350",
      "category": "agents"
    },
    {
      "type": "name_match",
      "text": "thiocyanic acid",
      "confidence": 1.0,
      "uuid": "1ea9faab-6fd3-4195-bb95-eb98a8e81823",
      "name": "Thiocyanic acid",
      "url": "https://haz-map.com/Agents/19869",
      "category": "agents"
    }
  ],
  "all_links": [
    {
      "text": "Search PubMed",
      "url": "https://www.ncbi.nlm.nih.gov/pubmed?term=Ethyl+thiocyanate%20AND%20human%5Bmh%5D%20AND%20%28Occupational%20Diseases%20%5Bmh%5D%20OR%20Occupational%20Exposure%20%5Bmh%5D%29%20%20AND%20%28tox%5Bsb%5D%29&cmd=search"
    },
    {
      "text": "Farming (Pesticides)",
      "url": "https://haz-map.com/Processes/218"
    }
  ]
}