{
  "metadata": {
    "scraped_from": "https://haz-map.com/Agents/10956",
    "entity_name": "3-Methyl-2-pentanone",
    "category": "agents",
    "uuid": "d0963886-266f-4b28-8387-1e177a540db7",
    "scraped_at": "2025-07-23T20:54:40.441106"
  },
  "parsed_at": "2025-07-24T01:19:17.127855",
  "title": "3-Methyl-2-pentanone",
  "sections": {
    "general": {
      "agent_name": {
        "original_name": "Agent Name",
        "value": "3-Methyl-2-pentanone",
        "links": [],
        "cross_references": [
          {
            "type": "name_match",
            "text": "3-methyl-2-pentanone",
            "confidence": 1.0,
            "uuid": "d0963886-266f-4b28-8387-1e177a540db7",
            "name": "3-Methyl-2-pentanone",
            "url": "https://haz-map.com/Agents/10956",
            "category": "agents"
          }
        ]
      },
      "cas_number": {
        "original_name": "CAS Number",
        "value": "565-61-7",
        "links": [],
        "cross_references": []
      },
      "formula": {
        "original_name": "Formula",
        "value": "C6-H12-O",
        "links": [],
        "cross_references": []
      },
      "major_category": {
        "original_name": "Major Category",
        "value": "Solvents",
        "links": [],
        "cross_references": []
      },
      "synonyms": {
        "original_name": "Synonyms",
        "value": "Methyl 1-methylpropyl ketone; Methyl sec-butyl ketone; sec-Butyl methyl ketone; 2-Pentanone, 3-methyl-; 3-Methylpentan-2-one; [ChemIDplus] UN1224",
        "links": [],
        "cross_references": []
      },
      "category": {
        "original_name": "Category",
        "value": "Ketones (<C12)",
        "links": [],
        "cross_references": []
      },
      "description": {
        "original_name": "Description",
        "value": "Colorless liquid; [Alfa Aesar MSDS]",
        "links": [],
        "cross_references": []
      },
      "comments": {
        "original_name": "Comments",
        "value": "An irritant; [Alfa Aesar MSDS] See \"Methyl isobutyl ketone.\"",
        "links": [],
        "cross_references": [
          {
            "type": "name_match",
            "text": "methyl isobutyl ketone",
            "confidence": 1.0,
            "uuid": "abf27a05-6b2a-499e-8914-5949c488acd4",
            "name": "Methyl isobutyl ketone",
            "url": "https://haz-map.com/Agents/147",
            "category": "agents"
          }
        ]
      },
      "biomedical_references": {
        "original_name": "Biomedical References",
        "value": "Search PubMed",
        "links": [
          {
            "text": "Search PubMed",
            "url": "https://www.ncbi.nlm.nih.gov/pubmed?term=3-Methyl-2-pentanone%20AND%20human%5Bmh%5D%20AND%20%28Occupational%20Diseases%20%5Bmh%5D%20OR%20Occupational%20Exposure%20%5Bmh%5D%29%20%20AND%20%28tox%5Bsb%5D%29&cmd=search"
          }
        ],
        "cross_references": []
      }
    },
    "exposure_assessment": {
      "vapor_pressure": {
        "original_name": "Vapor Pressure",
        "value": "11.6 mm Hg",
        "links": [],
        "cross_references": []
      },
      "explanatory_notes": {
        "original_name": "Explanatory Notes",
        "value": "The Guide in the Emergency Response Guidebook is for \"Ketones, liquid, n.o.s.\" VP from ChemIDplus;",
        "links": [],
        "cross_references": []
      }
    },
    "adverse_effects": {
      "neurotoxin": {
        "original_name": "Neurotoxin",
        "value": "Acute solvent syndrome",
        "links": [],
        "cross_references": []
      }
    },
    "diseases_processes_and_activities_linked_to_this_agent": {
      "diseases": {
        "original_name": "Diseases",
        "value": "Occupational diseases associated with exposure to this agent: Solvents, acute toxic effect",
        "links": [
          {
            "text": "Solvents, acute toxic effect",
            "url": "https://haz-map.com/Diseases/326"
          }
        ],
        "cross_references": [
          {
            "type": "url_match",
            "text": "Solvents, acute toxic effect",
            "url": "https://haz-map.com/Diseases/326",
            "confidence": 1.0,
            "uuid": "581e90e3-9d0c-45f0-aa6c-3468c28da129",
            "name": "Solvents, acute toxic effect",
            "category": "diseases"
          }
        ]
      }
    }
  },
  "cross_references": [
    {
      "type": "url_match",
      "text": "Solvents, acute toxic effect",
      "url": "https://haz-map.com/Diseases/326",
      "confidence": 1.0,
      "uuid": "581e90e3-9d0c-45f0-aa6c-3468c28da129",
      "name": "Solvents, acute toxic effect",
      "category": "diseases"
    },
    {
      "type": "name_match",
      "text": "methyl isobutyl ketone",
      "confidence": 1.0,
      "uuid": "abf27a05-6b2a-499e-8914-5949c488acd4",
      "name": "Methyl isobutyl ketone",
      "url": "https://haz-map.com/Agents/147",
      "category": "agents"
    },
    {
      "type": "name_match",
      "text": "3-methyl-2-pentanone",
      "confidence": 1.0,
      "uuid": "d0963886-266f-4b28-8387-1e177a540db7",
      "name": "3-Methyl-2-pentanone",
      "url": "https://haz-map.com/Agents/10956",
      "category": "agents"
    }
  ],
  "all_links": [
    {
      "text": "Search PubMed",
      "url": "https://www.ncbi.nlm.nih.gov/pubmed?term=3-Methyl-2-pentanone%20AND%20human%5Bmh%5D%20AND%20%28Occupational%20Diseases%20%5Bmh%5D%20OR%20Occupational%20Exposure%20%5Bmh%5D%29%20%20AND%20%28tox%5Bsb%5D%29&cmd=search"
    },
    {
      "text": "Solvents, acute toxic effect",
      "url": "https://haz-map.com/Diseases/326"
    }
  ]
}