{
  "metadata": {
    "scraped_from": "https://haz-map.com/Agents/3560",
    "entity_name": "Allantoin",
    "category": "agents",
    "uuid": "d0e0314e-74f1-4a57-a6f4-d28768f91281",
    "scraped_at": "2025-07-23T19:30:50.486796"
  },
  "parsed_at": "2025-07-24T01:05:18.987026",
  "title": "Allantoin",
  "sections": {
    "general": {
      "agent_name": {
        "original_name": "Agent Name",
        "value": "Allantoin",
        "links": [],
        "cross_references": [
          {
            "type": "name_match",
            "text": "allantoin",
            "confidence": 1.0,
            "uuid": "d0e0314e-74f1-4a57-a6f4-d28768f91281",
            "name": "Allantoin",
            "url": "https://haz-map.com/Agents/3560",
            "category": "agents"
          }
        ]
      },
      "cas_number": {
        "original_name": "CAS Number",
        "value": "97-59-6",
        "links": [],
        "cross_references": []
      },
      "formula": {
        "original_name": "Formula",
        "value": "C4-H6-N4-O3",
        "links": [],
        "cross_references": []
      },
      "major_category": {
        "original_name": "Major Category",
        "value": "Biological Agents",
        "links": [],
        "cross_references": []
      },
      "synonyms": {
        "original_name": "Synonyms",
        "value": "(2,5-Dioxo-4-imidazolidinyl)urea; 5-Ureido-2,4-imidazolidindion; 5-Ureidohydantoin; AVC/Dienestrolcream; Alantan; Allantol; Cordianine; Cutemol emollient; Glyoxyldiureid; Glyoxyldiureide; Hydantoin, 5-ureido-; Sebical; Uniderm A; Urea, (2,5-dioxo-4-imidazolidinyl)-; Urea, N-(2,5-dioxo-4-imidazolidinyl)-; [ChemIDplus]",
        "links": [],
        "cross_references": [
          {
            "type": "name_match",
            "text": "urea",
            "confidence": 1.0,
            "uuid": "a92a6129-bddd-4f79-9a78-136812ae610f",
            "name": "Urea",
            "url": "https://haz-map.com/Agents/2078",
            "category": "agents"
          },
          {
            "type": "name_match",
            "text": "hydantoin",
            "confidence": 1.0,
            "uuid": "d6180823-0373-45ff-b5ac-d9034f17fb80",
            "name": "Hydantoin",
            "url": "https://haz-map.com/Agents/14779",
            "category": "agents"
          }
        ]
      },
      "category": {
        "original_name": "Category",
        "value": "Plant Oils and Extracts",
        "links": [],
        "cross_references": []
      },
      "description": {
        "original_name": "Description",
        "value": "Colorless to white odorless solid; [Hawley] White powder; [MSDSonline]",
        "links": [],
        "cross_references": []
      },
      "sourcesuses": {
        "original_name": "Sources/Uses",
        "value": "Occurs naturally in tobacco seeds, sugar beets, and wheat sprouts; [Hawley] Used as a medicine for wound healing, in biochemical research, and in the preparation of estrogenic compounds; Also used as a dermatological preparation to treat dandruff, seborrheic dermatitis, psoriasis, hair loss, corns, and calluses; It is an ingredient in sunscreens; [HSDB]",
        "links": [],
        "cross_references": [
          {
            "type": "name_match",
            "text": "dermatitis",
            "confidence": 1.0,
            "uuid": "fe9c05f2-b19f-4ceb-ac7a-ffb7d7a0cae0",
            "name": "dermatitis",
            "url": "https://haz-map.com/Findings/59",
            "category": "findings"
          },
          {
            "type": "name_match",
            "text": "mica",
            "confidence": 1.0,
            "uuid": "433f26f1-c399-4596-b179-ce3843cfd465",
            "name": "Mica",
            "url": "https://haz-map.com/Agents/621",
            "category": "agents"
          },
          {
            "type": "name_match",
            "text": "sunscreens",
            "confidence": 1.0,
            "uuid": "7527d0ea-c1e0-4597-897e-e7f8794ae03b",
            "name": "SUNSCREENS",
            "url": "https://haz-map.com/Agents/1167",
            "category": "agents"
          }
        ]
      },
      "comments": {
        "original_name": "Comments",
        "value": "May cause irritation; [MSDSonline] No increased congenital anomalies found in children of 51 women treated with allantoin during the first trimester of pregnancy; [REPROTOX]",
        "links": [],
        "cross_references": [
          {
            "type": "name_match",
            "text": "allantoin",
            "confidence": 1.0,
            "uuid": "d0e0314e-74f1-4a57-a6f4-d28768f91281",
            "name": "Allantoin",
            "url": "https://haz-map.com/Agents/3560",
            "category": "agents"
          }
        ]
      },
      "biomedical_references": {
        "original_name": "Biomedical References",
        "value": "Search PubMed",
        "links": [
          {
            "text": "Search PubMed",
            "url": "https://www.ncbi.nlm.nih.gov/pubmed?term=Allantoin%20AND%20human%5Bmh%5D%20AND%20%28Occupational%20Diseases%20%5Bmh%5D%20OR%20Occupational%20Exposure%20%5Bmh%5D%29%20%20AND%20%28tox%5Bsb%5D%29&cmd=search"
          }
        ],
        "cross_references": []
      }
    },
    "exposure_assessment": {
      "vapor_pressure": {
        "original_name": "Vapor Pressure",
        "value": "4.32E-09 mm Hg",
        "links": [],
        "cross_references": []
      }
    },
    "diseases_processes_and_activities_linked_to_this_agent": {
      "other_information": {
        "original_name": "Other Information",
        "value": "No other related information on this agent was found.",
        "links": [],
        "cross_references": []
      }
    }
  },
  "cross_references": [
    {
      "type": "name_match",
      "text": "dermatitis",
      "confidence": 1.0,
      "uuid": "fe9c05f2-b19f-4ceb-ac7a-ffb7d7a0cae0",
      "name": "dermatitis",
      "url": "https://haz-map.com/Findings/59",
      "category": "findings"
    },
    {
      "type": "name_match",
      "text": "mica",
      "confidence": 1.0,
      "uuid": "433f26f1-c399-4596-b179-ce3843cfd465",
      "name": "Mica",
      "url": "https://haz-map.com/Agents/621",
      "category": "agents"
    },
    {
      "type": "name_match",
      "text": "sunscreens",
      "confidence": 1.0,
      "uuid": "7527d0ea-c1e0-4597-897e-e7f8794ae03b",
      "name": "SUNSCREENS",
      "url": "https://haz-map.com/Agents/1167",
      "category": "agents"
    },
    {
      "type": "name_match",
      "text": "urea",
      "confidence": 1.0,
      "uuid": "a92a6129-bddd-4f79-9a78-136812ae610f",
      "name": "Urea",
      "url": "https://haz-map.com/Agents/2078",
      "category": "agents"
    },
    {
      "type": "name_match",
      "text": "allantoin",
      "confidence": 1.0,
      "uuid": "d0e0314e-74f1-4a57-a6f4-d28768f91281",
      "name": "Allantoin",
      "url": "https://haz-map.com/Agents/3560",
      "category": "agents"
    },
    {
      "type": "name_match",
      "text": "hydantoin",
      "confidence": 1.0,
      "uuid": "d6180823-0373-45ff-b5ac-d9034f17fb80",
      "name": "Hydantoin",
      "url": "https://haz-map.com/Agents/14779",
      "category": "agents"
    }
  ],
  "all_links": [
    {
      "text": "Search PubMed",
      "url": "https://www.ncbi.nlm.nih.gov/pubmed?term=Allantoin%20AND%20human%5Bmh%5D%20AND%20%28Occupational%20Diseases%20%5Bmh%5D%20OR%20Occupational%20Exposure%20%5Bmh%5D%29%20%20AND%20%28tox%5Bsb%5D%29&cmd=search"
    }
  ]
}