{
  "metadata": {
    "scraped_from": "https://haz-map.com/Agents/5879",
    "entity_name": "m-Cresol, 4,4'-butylidenebis(6-tert-butyl-",
    "category": "agents",
    "uuid": "d0e8f6b9-0076-46d2-868b-db455ba3e376",
    "scraped_at": "2025-07-23T19:56:39.868637"
  },
  "parsed_at": "2025-07-24T01:08:04.256616",
  "title": "m-Cresol, 4,4'-butylidenebis(6-tert-butyl-",
  "sections": {
    "general": {
      "agent_name": {
        "original_name": "Agent Name",
        "value": "m-Cresol, 4,4'-butylidenebis(6-tert-butyl-",
        "links": [],
        "cross_references": [
          {
            "type": "name_match",
            "text": "m-cresol, 4,4'-butylidenebis(6-tert-butyl-",
            "confidence": 1.0,
            "uuid": "d0e8f6b9-0076-46d2-868b-db455ba3e376",
            "name": "m-Cresol, 4,4'-butylidenebis(6-tert-butyl-",
            "url": "https://haz-map.com/Agents/5879",
            "category": "agents"
          },
          {
            "type": "name_match",
            "text": "m-cresol",
            "confidence": 1.0,
            "uuid": "33975f23-f0cb-49a7-a631-36f1ad4f95de",
            "name": "m-Cresol",
            "url": "https://haz-map.com/Agents/15395",
            "category": "agents"
          }
        ]
      },
      "alternative_name": {
        "original_name": "Alternative Name",
        "value": "Santowhite powder",
        "links": [],
        "cross_references": []
      },
      "cas_number": {
        "original_name": "CAS Number",
        "value": "85-60-9",
        "links": [],
        "cross_references": []
      },
      "formula": {
        "original_name": "Formula",
        "value": "C26-H38-O2",
        "links": [],
        "cross_references": []
      },
      "major_category": {
        "original_name": "Major Category",
        "value": "Plastics & Rubber",
        "links": [],
        "cross_references": []
      },
      "synonyms": {
        "original_name": "Synonyms",
        "value": "Santowhite powder; 1,1-Bis(2-methyl-4-hydroxy-5-tert-butylphenyl)butane; 4,4'-Butylidene bis(6-tert-butyl-3-methylphenol); 4,4'-Butylidenebis(3-methyl-6-tert-butylphenol); 4,4'-Butylidenebis(6-tert-butyl-m-cresol); Annulex PBA 15; Antage W300; Anullex PBA 15; BBM; Noclizer NS 30; Phenol, 4,4'-butylidenebis(2-(1,1-dimethylethyl)-5-methyl-; SWP; SWP (VAN); SWP (antioxidant); Santowhite; Santowhite powder; Sumilit BBM; Sumilizer BBM; Sumilizer BBM-S; Yoshinox BB; 6,6'-Di-tert-butyl-4,4'-butylidenedi-m-cresol; [ChemIDplus]",
        "links": [],
        "cross_references": [
          {
            "type": "name_match",
            "text": "phenol",
            "confidence": 1.0,
            "uuid": "03141a03-a7df-4f51-9a37-adde1a7c4b31",
            "name": "Phenol",
            "url": "https://haz-map.com/Agents/84",
            "category": "agents"
          },
          {
            "type": "name_match",
            "text": "m-cresol",
            "confidence": 1.0,
            "uuid": "33975f23-f0cb-49a7-a631-36f1ad4f95de",
            "name": "m-Cresol",
            "url": "https://haz-map.com/Agents/15395",
            "category": "agents"
          },
          {
            "type": "fuzzy_match",
            "text": "4'-butylidenebis(6-tert-butyl-",
            "matched_name": "m-Cresol, 4,4'-butylidenebis(6-tert-butyl-",
            "confidence": 0.7380952380952381,
            "uuid": "d0e8f6b9-0076-46d2-868b-db455ba3e376",
            "category": "agents",
            "url": "https://haz-map.com/Agents/5879"
          }
        ]
      },
      "category": {
        "original_name": "Category",
        "value": "Rubber Additives",
        "links": [],
        "cross_references": []
      },
      "description": {
        "original_name": "Description",
        "value": "White solid; [HSDB] White to off-white powder; [MSDSonline]",
        "links": [],
        "cross_references": []
      },
      "sourcesuses": {
        "original_name": "Sources/Uses",
        "value": "Used as antioxidant for natural and synthetic rubber and latex; [HSDB]",
        "links": [],
        "cross_references": []
      },
      "comments": {
        "original_name": "Comments",
        "value": "Oral LDLo (rat) = 17,000 mg/kg; Effects included somnolence, altered food intake, and gastritis; [RTECS] Acute and long term feeding studies of rats: liver effects including hyperemia, increased weight, and hepatocellular necrosis; [eChemPortal: HPVIS] May cause irritation; May have effects on the liver and lymph nodes, based on animal studies; [MSDSonline]",
        "links": [],
        "cross_references": [
          {
            "type": "name_match",
            "text": "ht",
            "confidence": 1.0,
            "uuid": "764df367-8d53-4a11-81a2-31ccfe122a8d",
            "name": "HT",
            "url": "https://haz-map.com/Agents/2168",
            "category": "agents"
          }
        ]
      },
      "biomedical_references": {
        "original_name": "Biomedical References",
        "value": "Search PubMed",
        "links": [
          {
            "text": "Search PubMed",
            "url": "https://www.ncbi.nlm.nih.gov/pubmed?term=m-Cresol%2c+4%2c4%26%2339%3b-butylidenebis(6-tert-butyl-%20AND%20human%5Bmh%5D%20AND%20%28Occupational%20Diseases%20%5Bmh%5D%20OR%20Occupational%20Exposure%20%5Bmh%5D%29%20%20AND%20%28tox%5Bsb%5D%29&cmd=search"
          }
        ],
        "cross_references": []
      }
    },
    "exposure_assessment": {
      "vapor_pressure": {
        "original_name": "Vapor Pressure",
        "value": "5.26E-11 mm Hg",
        "links": [],
        "cross_references": []
      }
    },
    "adverse_effects": {
      "hepatotoxin": {
        "original_name": "Hepatotoxin",
        "value": "Hepatoxic (a) from occupational exposure (secondary effect) or (b) in animal studies or in humans after ingestion",
        "links": [],
        "cross_references": []
      }
    },
    "diseases_processes_and_activities_linked_to_this_agent": {
      "other_information": {
        "original_name": "Other Information",
        "value": "No other related information on this agent was found.",
        "links": [],
        "cross_references": []
      }
    }
  },
  "cross_references": [
    {
      "type": "name_match",
      "text": "phenol",
      "confidence": 1.0,
      "uuid": "03141a03-a7df-4f51-9a37-adde1a7c4b31",
      "name": "Phenol",
      "url": "https://haz-map.com/Agents/84",
      "category": "agents"
    },
    {
      "type": "name_match",
      "text": "ht",
      "confidence": 1.0,
      "uuid": "764df367-8d53-4a11-81a2-31ccfe122a8d",
      "name": "HT",
      "url": "https://haz-map.com/Agents/2168",
      "category": "agents"
    },
    {
      "type": "name_match",
      "text": "m-cresol, 4,4'-butylidenebis(6-tert-butyl-",
      "confidence": 1.0,
      "uuid": "d0e8f6b9-0076-46d2-868b-db455ba3e376",
      "name": "m-Cresol, 4,4'-butylidenebis(6-tert-butyl-",
      "url": "https://haz-map.com/Agents/5879",
      "category": "agents"
    },
    {
      "type": "name_match",
      "text": "m-cresol",
      "confidence": 1.0,
      "uuid": "33975f23-f0cb-49a7-a631-36f1ad4f95de",
      "name": "m-Cresol",
      "url": "https://haz-map.com/Agents/15395",
      "category": "agents"
    }
  ],
  "all_links": [
    {
      "text": "Search PubMed",
      "url": "https://www.ncbi.nlm.nih.gov/pubmed?term=m-Cresol%2c+4%2c4%26%2339%3b-butylidenebis(6-tert-butyl-%20AND%20human%5Bmh%5D%20AND%20%28Occupational%20Diseases%20%5Bmh%5D%20OR%20Occupational%20Exposure%20%5Bmh%5D%29%20%20AND%20%28tox%5Bsb%5D%29&cmd=search"
    }
  ]
}