{
  "metadata": {
    "scraped_from": "https://haz-map.com/Agents/19190",
    "entity_name": "1,2,3-Trimethoxybenzene",
    "category": "agents",
    "uuid": "d0f7689f-6ad2-48b6-9c72-ef581b3ae5b0",
    "scraped_at": "2025-07-23T22:01:06.410245"
  },
  "parsed_at": "2025-07-24T00:58:57.949119",
  "title": "1,2,3-Trimethoxybenzene",
  "sections": {
    "general": {
      "agent_name": {
        "original_name": "Agent Name",
        "value": "1,2,3-Trimethoxybenzene",
        "links": [],
        "cross_references": [
          {
            "type": "name_match",
            "text": "benzene",
            "confidence": 1.0,
            "uuid": "b05124de-5f34-4c14-8f04-ccb20c3780d9",
            "name": "Benzene",
            "url": "https://haz-map.com/Agents/5",
            "category": "agents"
          },
          {
            "type": "name_match",
            "text": "1,2,3-trimethoxybenzene",
            "confidence": 1.0,
            "uuid": "d0f7689f-6ad2-48b6-9c72-ef581b3ae5b0",
            "name": "1,2,3-Trimethoxybenzene",
            "url": "https://haz-map.com/Agents/19190",
            "category": "agents"
          }
        ]
      },
      "cas_number": {
        "original_name": "CAS Number",
        "value": "634-36-6",
        "links": [],
        "cross_references": []
      },
      "formula": {
        "original_name": "Formula",
        "value": "C9-H12-O3",
        "links": [],
        "cross_references": []
      },
      "major_category": {
        "original_name": "Major Category",
        "value": "Other Classes",
        "links": [],
        "cross_references": []
      },
      "synonyms": {
        "original_name": "Synonyms",
        "value": "Methylsyringol (VAN); Pyrogallol trimethyl ether; Tri-O-methylpyrogallol; Benzene, 1,2,3-trimethoxy-; [ChemIDplus]",
        "links": [],
        "cross_references": [
          {
            "type": "name_match",
            "text": "benzene",
            "confidence": 1.0,
            "uuid": "b05124de-5f34-4c14-8f04-ccb20c3780d9",
            "name": "Benzene",
            "url": "https://haz-map.com/Agents/5",
            "category": "agents"
          },
          {
            "type": "name_match",
            "text": "ethyl ether",
            "confidence": 1.0,
            "uuid": "c95edddc-9ad3-44f8-bafa-78e0bd19db3a",
            "name": "Ethyl ether",
            "url": "https://haz-map.com/Agents/455",
            "category": "agents"
          },
          {
            "type": "name_match",
            "text": "pyrogallol",
            "confidence": 1.0,
            "uuid": "37e245ec-651d-4d11-a269-671324e4e0c6",
            "name": "Pyrogallol",
            "url": "https://haz-map.com/Agents/834",
            "category": "agents"
          }
        ]
      },
      "category": {
        "original_name": "Category",
        "value": "Ethers, Other",
        "links": [],
        "cross_references": []
      },
      "description": {
        "original_name": "Description",
        "value": "Beige crystalline solid; [Sigma-Aldrich MSDS]",
        "links": [],
        "cross_references": [
          {
            "type": "fuzzy_match",
            "text": "crystalline",
            "matched_name": "Silica, crystalline",
            "confidence": 0.7061403508771931,
            "uuid": "f920e8a2-46df-41b7-af8d-0368a777251e",
            "category": "agents",
            "url": "https://haz-map.com/Agents/427"
          }
        ]
      },
      "sourcesuses": {
        "original_name": "Sources/Uses",
        "value": "Naturally occurs in dried bonito and tea; Used as a flavoring agent; [EFSA]",
        "links": [],
        "cross_references": [
          {
            "type": "name_match",
            "text": "tea",
            "confidence": 1.0,
            "uuid": "773409e5-ac1a-4c9e-9470-9667ca82091c",
            "name": "Tea",
            "url": "https://haz-map.com/Agents/878",
            "category": "agents"
          }
        ]
      },
      "comments": {
        "original_name": "Comments",
        "value": "Safe when used as a flavoring agent in food; [EFSA] May cause irritation; [Sigma-Aldrich MSDS] See \"1,3-Dimethoxybenzene.\"",
        "links": [],
        "cross_references": [
          {
            "type": "name_match",
            "text": "benzene",
            "confidence": 1.0,
            "uuid": "b05124de-5f34-4c14-8f04-ccb20c3780d9",
            "name": "Benzene",
            "url": "https://haz-map.com/Agents/5",
            "category": "agents"
          },
          {
            "type": "name_match",
            "text": "1,3-dimethoxybenzene",
            "confidence": 1.0,
            "uuid": "a8da2c62-ff0e-44e3-ba3b-71eaab8d6b9d",
            "name": "1,3-Dimethoxybenzene",
            "url": "https://haz-map.com/Agents/19255",
            "category": "agents"
          }
        ]
      },
      "biomedical_references": {
        "original_name": "Biomedical References",
        "value": "Search PubMed",
        "links": [
          {
            "text": "Search PubMed",
            "url": "https://www.ncbi.nlm.nih.gov/pubmed?term=1%2c2%2c3-Trimethoxybenzene%20AND%20human%5Bmh%5D%20AND%20%28Occupational%20Diseases%20%5Bmh%5D%20OR%20Occupational%20Exposure%20%5Bmh%5D%29%20%20AND%20%28tox%5Bsb%5D%29&cmd=search"
          }
        ],
        "cross_references": []
      }
    },
    "exposure_assessment": {
      "vapor_pressure": {
        "original_name": "Vapor Pressure",
        "value": "0.062 mm Hg",
        "links": [],
        "cross_references": []
      }
    },
    "diseases_processes_and_activities_linked_to_this_agent": {
      "other_information": {
        "original_name": "Other Information",
        "value": "No other related information on this agent was found.",
        "links": [],
        "cross_references": []
      }
    }
  },
  "cross_references": [
    {
      "type": "name_match",
      "text": "benzene",
      "confidence": 1.0,
      "uuid": "b05124de-5f34-4c14-8f04-ccb20c3780d9",
      "name": "Benzene",
      "url": "https://haz-map.com/Agents/5",
      "category": "agents"
    },
    {
      "type": "name_match",
      "text": "ethyl ether",
      "confidence": 1.0,
      "uuid": "c95edddc-9ad3-44f8-bafa-78e0bd19db3a",
      "name": "Ethyl ether",
      "url": "https://haz-map.com/Agents/455",
      "category": "agents"
    },
    {
      "type": "name_match",
      "text": "pyrogallol",
      "confidence": 1.0,
      "uuid": "37e245ec-651d-4d11-a269-671324e4e0c6",
      "name": "Pyrogallol",
      "url": "https://haz-map.com/Agents/834",
      "category": "agents"
    },
    {
      "type": "name_match",
      "text": "tea",
      "confidence": 1.0,
      "uuid": "773409e5-ac1a-4c9e-9470-9667ca82091c",
      "name": "Tea",
      "url": "https://haz-map.com/Agents/878",
      "category": "agents"
    },
    {
      "type": "name_match",
      "text": "1,2,3-trimethoxybenzene",
      "confidence": 1.0,
      "uuid": "d0f7689f-6ad2-48b6-9c72-ef581b3ae5b0",
      "name": "1,2,3-Trimethoxybenzene",
      "url": "https://haz-map.com/Agents/19190",
      "category": "agents"
    },
    {
      "type": "name_match",
      "text": "1,3-dimethoxybenzene",
      "confidence": 1.0,
      "uuid": "a8da2c62-ff0e-44e3-ba3b-71eaab8d6b9d",
      "name": "1,3-Dimethoxybenzene",
      "url": "https://haz-map.com/Agents/19255",
      "category": "agents"
    },
    {
      "type": "fuzzy_match",
      "text": "crystalline",
      "matched_name": "Silica, crystalline",
      "confidence": 0.7061403508771931,
      "uuid": "f920e8a2-46df-41b7-af8d-0368a777251e",
      "category": "agents",
      "url": "https://haz-map.com/Agents/427"
    }
  ],
  "all_links": [
    {
      "text": "Search PubMed",
      "url": "https://www.ncbi.nlm.nih.gov/pubmed?term=1%2c2%2c3-Trimethoxybenzene%20AND%20human%5Bmh%5D%20AND%20%28Occupational%20Diseases%20%5Bmh%5D%20OR%20Occupational%20Exposure%20%5Bmh%5D%29%20%20AND%20%28tox%5Bsb%5D%29&cmd=search"
    }
  ]
}