{
  "metadata": {
    "scraped_from": "https://haz-map.com/Agents/4153",
    "entity_name": "Calcium cyanide",
    "category": "agents",
    "uuid": "d122a931-111f-4e28-bfa4-1bdbf3818a0d",
    "scraped_at": "2025-07-23T19:38:08.674320"
  },
  "parsed_at": "2025-07-24T00:56:14.860342",
  "title": "Calcium cyanide",
  "sections": {
    "general": {
      "agent_name": {
        "original_name": "Agent Name",
        "value": "Calcium cyanide",
        "links": [],
        "cross_references": [
          {
            "type": "name_match",
            "text": "calcium",
            "confidence": 1.0,
            "uuid": "1e5baf77-7a7a-476b-84c6-5b1ea504c5fc",
            "name": "Calcium",
            "url": "https://haz-map.com/Agents/1994",
            "category": "agents"
          },
          {
            "type": "name_match",
            "text": "calcium cyanide",
            "confidence": 1.0,
            "uuid": "d122a931-111f-4e28-bfa4-1bdbf3818a0d",
            "name": "Calcium cyanide",
            "url": "https://haz-map.com/Agents/4153",
            "category": "agents"
          },
          {
            "type": "name_match",
            "text": "cyanide",
            "confidence": 1.0,
            "uuid": "0b4d38ba-cc5c-4386-8079-9e7ff8fb2d3a",
            "name": "Cyanide",
            "url": "https://haz-map.com/Agents/13350",
            "category": "agents"
          }
        ]
      },
      "cas_number": {
        "original_name": "CAS Number",
        "value": "592-01-8",
        "links": [],
        "cross_references": []
      },
      "formula": {
        "original_name": "Formula",
        "value": "C2-Ca-N2",
        "links": [],
        "cross_references": []
      },
      "major_category": {
        "original_name": "Major Category",
        "value": "Toxic Gases & Vapors",
        "links": [],
        "cross_references": []
      },
      "synonyms": {
        "original_name": "Synonyms",
        "value": "Calcid; Calcium cyanide (mixture); Calcium cyanide [ISO]; Calcyan; Calcyanide; Cyanide of calcium; Cyanogas; Cyanure de calcium [French]; Degesch Calcium Cyanide A-Dust; [ChemIDplus] Cyanogas A-dust; Cyanogas G-fumigant; [CHRIS] UN1575",
        "links": [],
        "cross_references": [
          {
            "type": "name_match",
            "text": "calcium",
            "confidence": 1.0,
            "uuid": "1e5baf77-7a7a-476b-84c6-5b1ea504c5fc",
            "name": "Calcium",
            "url": "https://haz-map.com/Agents/1994",
            "category": "agents"
          },
          {
            "type": "name_match",
            "text": "calcium cyanide",
            "confidence": 1.0,
            "uuid": "d122a931-111f-4e28-bfa4-1bdbf3818a0d",
            "name": "Calcium cyanide",
            "url": "https://haz-map.com/Agents/4153",
            "category": "agents"
          },
          {
            "type": "name_match",
            "text": "cyanide",
            "confidence": 1.0,
            "uuid": "0b4d38ba-cc5c-4386-8079-9e7ff8fb2d3a",
            "name": "Cyanide",
            "url": "https://haz-map.com/Agents/13350",
            "category": "agents"
          }
        ]
      },
      "category": {
        "original_name": "Category",
        "value": "Cyanides",
        "links": [],
        "cross_references": [
          {
            "type": "name_match",
            "text": "cyanides",
            "confidence": 1.0,
            "uuid": "e0820766-8caf-4340-b774-eaf713436c8c",
            "name": "CYANIDES",
            "url": "https://haz-map.com/Agents/714",
            "category": "agents"
          },
          {
            "type": "name_match",
            "text": "cyanide",
            "confidence": 1.0,
            "uuid": "0b4d38ba-cc5c-4386-8079-9e7ff8fb2d3a",
            "name": "Cyanide",
            "url": "https://haz-map.com/Agents/13350",
            "category": "agents"
          }
        ]
      },
      "description": {
        "original_name": "Description",
        "value": "Colorless or white solid; Technical grade is gray-black in color; [Hawley] White powder; Decomposes in water or moisture releasing hydrogen cyanide; [Sullivan, p. 707]",
        "links": [],
        "cross_references": [
          {
            "type": "name_match",
            "text": "hydrogen cyanide",
            "confidence": 1.0,
            "uuid": "59aa5483-62b9-4825-8e6c-8cd9621058bf",
            "name": "Hydrogen cyanide",
            "url": "https://haz-map.com/Agents/514",
            "category": "agents"
          },
          {
            "type": "name_match",
            "text": "hydrogen",
            "confidence": 1.0,
            "uuid": "e2d9645f-5559-4d88-b820-fc4710c154f2",
            "name": "Hydrogen",
            "url": "https://haz-map.com/Agents/1070",
            "category": "agents"
          },
          {
            "type": "name_match",
            "text": "cyanide",
            "confidence": 1.0,
            "uuid": "0b4d38ba-cc5c-4386-8079-9e7ff8fb2d3a",
            "name": "Cyanide",
            "url": "https://haz-map.com/Agents/13350",
            "category": "agents"
          },
          {
            "type": "name_match",
            "text": "water",
            "confidence": 1.0,
            "uuid": "6f2a7557-dfd2-49bc-9b4b-a93cd8e225d4",
            "name": "Water",
            "url": "https://haz-map.com/Agents/18668",
            "category": "agents"
          }
        ]
      },
      "sourcesuses": {
        "original_name": "Sources/Uses",
        "value": "Used to make stainless-steel and other cyanides; Also used to leach ores for precious metals and to stabilize cement; No longer registered as a pesticide product (rodenticide, fumigant, insecticide, and miticide); [HSDB] Produced only in South Africa and used there to leach precious metals from ores; [Ullmann]",
        "links": [],
        "cross_references": [
          {
            "type": "name_match",
            "text": "cyanides",
            "confidence": 1.0,
            "uuid": "e0820766-8caf-4340-b774-eaf713436c8c",
            "name": "CYANIDES",
            "url": "https://haz-map.com/Agents/714",
            "category": "agents"
          },
          {
            "type": "name_match",
            "text": "cyanide",
            "confidence": 1.0,
            "uuid": "0b4d38ba-cc5c-4386-8079-9e7ff8fb2d3a",
            "name": "Cyanide",
            "url": "https://haz-map.com/Agents/13350",
            "category": "agents"
          }
        ]
      },
      "comments": {
        "original_name": "Comments",
        "value": "Releases hydrogen cyanide in moist air; [Hawley] A skin, eye, and respiratory tract irritant; May cause cyanide poisoning; [ICSC] See \"CYANIDES.\"",
        "links": [],
        "cross_references": [
          {
            "type": "name_match",
            "text": "hydrogen cyanide",
            "confidence": 1.0,
            "uuid": "59aa5483-62b9-4825-8e6c-8cd9621058bf",
            "name": "Hydrogen cyanide",
            "url": "https://haz-map.com/Agents/514",
            "category": "agents"
          },
          {
            "type": "name_match",
            "text": "cyanides",
            "confidence": 1.0,
            "uuid": "e0820766-8caf-4340-b774-eaf713436c8c",
            "name": "CYANIDES",
            "url": "https://haz-map.com/Agents/714",
            "category": "agents"
          },
          {
            "type": "name_match",
            "text": "hydrogen",
            "confidence": 1.0,
            "uuid": "e2d9645f-5559-4d88-b820-fc4710c154f2",
            "name": "Hydrogen",
            "url": "https://haz-map.com/Agents/1070",
            "category": "agents"
          },
          {
            "type": "name_match",
            "text": "cyanide",
            "confidence": 1.0,
            "uuid": "0b4d38ba-cc5c-4386-8079-9e7ff8fb2d3a",
            "name": "Cyanide",
            "url": "https://haz-map.com/Agents/13350",
            "category": "agents"
          }
        ]
      },
      "biomedical_references": {
        "original_name": "Biomedical References",
        "value": "Search PubMed",
        "links": [
          {
            "text": "Search PubMed",
            "url": "https://www.ncbi.nlm.nih.gov/pubmed?term=Calcium+cyanide%20AND%20human%5Bmh%5D%20AND%20%28Occupational%20Diseases%20%5Bmh%5D%20OR%20Occupational%20Exposure%20%5Bmh%5D%29%20%20AND%20%28tox%5Bsb%5D%29&cmd=search"
          }
        ],
        "cross_references": []
      }
    },
    "exposure_assessment": {
      "skin_designation_acgih": {
        "original_name": "Skin Designation (ACGIH)",
        "value": "Yes",
        "links": [],
        "cross_references": []
      },
      "ceiling_acgih": {
        "original_name": "Ceiling (ACGIH)",
        "value": "5 mg/m3, as CN",
        "links": [],
        "cross_references": []
      },
      "pel_osha": {
        "original_name": "PEL (OSHA)",
        "value": "5 mg/m3, as CN",
        "links": [],
        "cross_references": []
      },
      "mak": {
        "original_name": "MAK",
        "value": "2 mg/m3, inhalable fraction, as CN",
        "links": [],
        "cross_references": []
      },
      "idlh_niosh": {
        "original_name": "IDLH (NIOSH)",
        "value": "25 mg/m3, as CN",
        "links": [],
        "cross_references": []
      },
      "vapor_pressure": {
        "original_name": "Vapor Pressure",
        "value": "0.035 mm Hg",
        "links": [],
        "cross_references": []
      },
      "nfpa": {
        "original_name": "NFPA",
        "value": "will not burn",
        "links": [],
        "cross_references": [
          {
            "type": "name_match",
            "text": "burn",
            "confidence": 1.0,
            "uuid": "63665de5-6376-4918-8dbf-4c10c4d63837",
            "name": "burn",
            "url": "https://haz-map.com/Findings/204",
            "category": "findings"
          }
        ]
      }
    },
    "adverse_effects": {
      "other_poison": {
        "original_name": "Other Poison",
        "value": "Chemical Asphyxiant",
        "links": [],
        "cross_references": [
          {
            "type": "name_match",
            "text": "mica",
            "confidence": 1.0,
            "uuid": "433f26f1-c399-4596-b179-ce3843cfd465",
            "name": "Mica",
            "url": "https://haz-map.com/Agents/621",
            "category": "agents"
          }
        ]
      }
    },
    "diseases_processes_and_activities_linked_to_this_agent": {
      "diseases": {
        "original_name": "Diseases",
        "value": "Occupational diseases associated with exposure to this agent: Asphyxiation, chemical",
        "links": [
          {
            "text": "Asphyxiation, chemical",
            "url": "https://haz-map.com/Diseases/351"
          }
        ],
        "cross_references": [
          {
            "type": "url_match",
            "text": "Asphyxiation, chemical",
            "url": "https://haz-map.com/Diseases/351",
            "confidence": 1.0,
            "uuid": "78d8c6de-b137-4149-8098-0b7e8b092753",
            "name": "Asphyxiation, chemical",
            "category": "diseases"
          },
          {
            "type": "name_match",
            "text": "mica",
            "confidence": 1.0,
            "uuid": "433f26f1-c399-4596-b179-ce3843cfd465",
            "name": "Mica",
            "url": "https://haz-map.com/Agents/621",
            "category": "agents"
          }
        ]
      },
      "processes": {
        "original_name": "Processes",
        "value": "Industrial Processes with risk of exposure: Cement Producing Metal Extraction and Refining Steel Producing",
        "links": [
          {
            "text": "Cement Producing",
            "url": "https://haz-map.com/Processes/234"
          },
          {
            "text": "Metal Extraction and Refining",
            "url": "https://haz-map.com/Processes/261"
          },
          {
            "text": "Steel Producing",
            "url": "https://haz-map.com/Processes/2"
          }
        ],
        "cross_references": [
          {
            "type": "url_match",
            "text": "Steel Producing",
            "url": "https://haz-map.com/Processes/2",
            "confidence": 1.0,
            "uuid": "cb2ee08e-9765-41ce-a40f-b8d87704c7b5",
            "name": "Steel Producing",
            "category": "processes"
          }
        ]
      }
    }
  },
  "cross_references": [
    {
      "type": "url_match",
      "text": "Asphyxiation, chemical",
      "url": "https://haz-map.com/Diseases/351",
      "confidence": 1.0,
      "uuid": "78d8c6de-b137-4149-8098-0b7e8b092753",
      "name": "Asphyxiation, chemical",
      "category": "diseases"
    },
    {
      "type": "url_match",
      "text": "Steel Producing",
      "url": "https://haz-map.com/Processes/2",
      "confidence": 1.0,
      "uuid": "cb2ee08e-9765-41ce-a40f-b8d87704c7b5",
      "name": "Steel Producing",
      "category": "processes"
    },
    {
      "type": "name_match",
      "text": "burn",
      "confidence": 1.0,
      "uuid": "63665de5-6376-4918-8dbf-4c10c4d63837",
      "name": "burn",
      "url": "https://haz-map.com/Findings/204",
      "category": "findings"
    },
    {
      "type": "name_match",
      "text": "hydrogen cyanide",
      "confidence": 1.0,
      "uuid": "59aa5483-62b9-4825-8e6c-8cd9621058bf",
      "name": "Hydrogen cyanide",
      "url": "https://haz-map.com/Agents/514",
      "category": "agents"
    },
    {
      "type": "name_match",
      "text": "mica",
      "confidence": 1.0,
      "uuid": "433f26f1-c399-4596-b179-ce3843cfd465",
      "name": "Mica",
      "url": "https://haz-map.com/Agents/621",
      "category": "agents"
    },
    {
      "type": "name_match",
      "text": "cyanides",
      "confidence": 1.0,
      "uuid": "e0820766-8caf-4340-b774-eaf713436c8c",
      "name": "CYANIDES",
      "url": "https://haz-map.com/Agents/714",
      "category": "agents"
    },
    {
      "type": "name_match",
      "text": "hydrogen",
      "confidence": 1.0,
      "uuid": "e2d9645f-5559-4d88-b820-fc4710c154f2",
      "name": "Hydrogen",
      "url": "https://haz-map.com/Agents/1070",
      "category": "agents"
    },
    {
      "type": "name_match",
      "text": "calcium",
      "confidence": 1.0,
      "uuid": "1e5baf77-7a7a-476b-84c6-5b1ea504c5fc",
      "name": "Calcium",
      "url": "https://haz-map.com/Agents/1994",
      "category": "agents"
    },
    {
      "type": "name_match",
      "text": "calcium cyanide",
      "confidence": 1.0,
      "uuid": "d122a931-111f-4e28-bfa4-1bdbf3818a0d",
      "name": "Calcium cyanide",
      "url": "https://haz-map.com/Agents/4153",
      "category": "agents"
    },
    {
      "type": "name_match",
      "text": "cyanide",
      "confidence": 1.0,
      "uuid": "0b4d38ba-cc5c-4386-8079-9e7ff8fb2d3a",
      "name": "Cyanide",
      "url": "https://haz-map.com/Agents/13350",
      "category": "agents"
    },
    {
      "type": "name_match",
      "text": "water",
      "confidence": 1.0,
      "uuid": "6f2a7557-dfd2-49bc-9b4b-a93cd8e225d4",
      "name": "Water",
      "url": "https://haz-map.com/Agents/18668",
      "category": "agents"
    }
  ],
  "all_links": [
    {
      "text": "Search PubMed",
      "url": "https://www.ncbi.nlm.nih.gov/pubmed?term=Calcium+cyanide%20AND%20human%5Bmh%5D%20AND%20%28Occupational%20Diseases%20%5Bmh%5D%20OR%20Occupational%20Exposure%20%5Bmh%5D%29%20%20AND%20%28tox%5Bsb%5D%29&cmd=search"
    },
    {
      "text": "Asphyxiation, chemical",
      "url": "https://haz-map.com/Diseases/351"
    },
    {
      "text": "Cement Producing",
      "url": "https://haz-map.com/Processes/234"
    },
    {
      "text": "Metal Extraction and Refining",
      "url": "https://haz-map.com/Processes/261"
    },
    {
      "text": "Steel Producing",
      "url": "https://haz-map.com/Processes/2"
    }
  ]
}