{
  "metadata": {
    "scraped_from": "https://haz-map.com/Agents/3310",
    "entity_name": "4-Picoline",
    "category": "agents",
    "uuid": "d16ab6c2-74d7-49eb-90ee-e23917d492c9",
    "scraped_at": "2025-07-23T19:27:24.656003"
  },
  "parsed_at": "2025-07-24T01:13:36.028648",
  "title": "4-Picoline",
  "sections": {
    "general": {
      "agent_name": {
        "original_name": "Agent Name",
        "value": "4-Picoline",
        "links": [],
        "cross_references": [
          {
            "type": "name_match",
            "text": "4-picoline",
            "confidence": 1.0,
            "uuid": "d16ab6c2-74d7-49eb-90ee-e23917d492c9",
            "name": "4-Picoline",
            "url": "https://haz-map.com/Agents/3310",
            "category": "agents"
          }
        ]
      },
      "cas_number": {
        "original_name": "CAS Number",
        "value": "108-89-4",
        "links": [],
        "cross_references": []
      },
      "formula": {
        "original_name": "Formula",
        "value": "C6-H7-N",
        "links": [],
        "cross_references": []
      },
      "major_category": {
        "original_name": "Major Category",
        "value": "Nitrogen Compounds",
        "links": [],
        "cross_references": [
          {
            "type": "name_match",
            "text": "nitrogen",
            "confidence": 1.0,
            "uuid": "db5e90a9-06d2-45b9-8b81-f345a89b0bc0",
            "name": "Nitrogen",
            "url": "https://haz-map.com/Agents/1072",
            "category": "agents"
          }
        ]
      },
      "synonyms": {
        "original_name": "Synonyms",
        "value": "4-Methylpyridine; Ba 35846; Pyridine, 4-methyl-; gamma-Methylpyridine; gamma-Picoline; p-Methylpyridine; p-Picoline; [ChemIDplus] UN2313",
        "links": [],
        "cross_references": [
          {
            "type": "name_match",
            "text": "pyridine",
            "confidence": 1.0,
            "uuid": "a2d916a4-844b-4df6-9be5-868b2b364d71",
            "name": "Pyridine",
            "url": "https://haz-map.com/Agents/616",
            "category": "agents"
          },
          {
            "type": "name_match",
            "text": "methylpyridine",
            "confidence": 1.0,
            "uuid": "4c8f8772-01ae-4de4-8af0-71733c0aaad4",
            "name": "Methylpyridine",
            "url": "https://haz-map.com/Agents/1496",
            "category": "agents"
          }
        ]
      },
      "category": {
        "original_name": "Category",
        "value": "Pyridines",
        "links": [],
        "cross_references": [
          {
            "type": "name_match",
            "text": "pyridine",
            "confidence": 1.0,
            "uuid": "a2d916a4-844b-4df6-9be5-868b2b364d71",
            "name": "Pyridine",
            "url": "https://haz-map.com/Agents/616",
            "category": "agents"
          }
        ]
      },
      "description": {
        "original_name": "Description",
        "value": "Colorless liquid with an obnoxious, sweetish odor; [HSDB]",
        "links": [],
        "cross_references": []
      },
      "sourcesuses": {
        "original_name": "Sources/Uses",
        "value": "Used as a chemical intermediate, solvent (pharmaceuticals, resins, dyestuffs, rubber accelerators, pesticides, and waterproofing agents), laboratory reagent, catalyst, and curing agent; [HSDB] Picolines are constituents in cigarette smoke, bone oil, coal tar, and coke oven emissions. [AIHA]",
        "links": [],
        "cross_references": [
          {
            "type": "name_match",
            "text": "coke oven emissions",
            "confidence": 1.0,
            "uuid": "d9729f76-b886-4a71-a81b-470e8dcd1691",
            "name": "Coke oven emissions",
            "url": "https://haz-map.com/Agents/373",
            "category": "agents"
          },
          {
            "type": "name_match",
            "text": "mica",
            "confidence": 1.0,
            "uuid": "433f26f1-c399-4596-b179-ce3843cfd465",
            "name": "Mica",
            "url": "https://haz-map.com/Agents/621",
            "category": "agents"
          },
          {
            "type": "name_match",
            "text": "pharmaceuticals",
            "confidence": 1.0,
            "uuid": "713c3c30-b67e-4a2f-a90f-b32f8a306332",
            "name": "PHARMACEUTICALS",
            "url": "https://haz-map.com/Agents/1000",
            "category": "agents"
          },
          {
            "type": "name_match",
            "text": "coal tar",
            "confidence": 1.0,
            "uuid": "df40f58d-45ab-44c5-8e73-a9916bba6e2c",
            "name": "Coal tar",
            "url": "https://haz-map.com/Agents/1575",
            "category": "agents"
          },
          {
            "type": "name_match",
            "text": "water",
            "confidence": 1.0,
            "uuid": "6f2a7557-dfd2-49bc-9b4b-a93cd8e225d4",
            "name": "Water",
            "url": "https://haz-map.com/Agents/18668",
            "category": "agents"
          }
        ]
      },
      "comments": {
        "original_name": "Comments",
        "value": "A corrosive substance that can cause injury to the skin, eyes, and respiratory tract; Inhalation of high concentrations can cause unconsciousness; The liquid defats the skin; [ICSC] An irritant; Can be absorbed through skin; [MSDSonline] An irritant that can cause CNS depression; Liver changes occur in rats exposed to chronic high doses; [AIHA] See \"Pyridine.\"",
        "links": [],
        "cross_references": [
          {
            "type": "name_match",
            "text": "pyridine",
            "confidence": 1.0,
            "uuid": "a2d916a4-844b-4df6-9be5-868b2b364d71",
            "name": "Pyridine",
            "url": "https://haz-map.com/Agents/616",
            "category": "agents"
          }
        ]
      },
      "biomedical_references": {
        "original_name": "Biomedical References",
        "value": "Search PubMed",
        "links": [
          {
            "text": "Search PubMed",
            "url": "https://www.ncbi.nlm.nih.gov/pubmed?term=4-Picoline%20AND%20human%5Bmh%5D%20AND%20%28Occupational%20Diseases%20%5Bmh%5D%20OR%20Occupational%20Exposure%20%5Bmh%5D%29%20%20AND%20%28tox%5Bsb%5D%29&cmd=search"
          }
        ],
        "cross_references": []
      }
    },
    "exposure_assessment": {
      "vapor_pressure": {
        "original_name": "Vapor Pressure",
        "value": "5.77 mm Hg",
        "links": [],
        "cross_references": []
      },
      "lethal_concentration": {
        "original_name": "Lethal Concentration",
        "value": "LCLo (rat) = 1,000 ppm/4h",
        "links": [],
        "cross_references": []
      },
      "explanatory_notes": {
        "original_name": "Explanatory Notes",
        "value": "Flash point = 57 deg C; [ICSC] The Guide in the Emergency Response Guidebook is for \"Picolines.\" VP from ChemIDplus;",
        "links": [],
        "cross_references": [
          {
            "type": "name_match",
            "text": "ash",
            "confidence": 1.0,
            "uuid": "68b360f1-5ad0-4337-bea0-d7adca2961b5",
            "name": "Ash",
            "url": "https://haz-map.com/Agents/965",
            "category": "agents"
          }
        ]
      },
      "weel": {
        "original_name": "WEEL",
        "value": "2 ppm, STEL = 5 ppm",
        "links": [],
        "cross_references": []
      }
    },
    "adverse_effects": {
      "neurotoxin": {
        "original_name": "Neurotoxin",
        "value": "Other CNS neurotoxin",
        "links": [],
        "cross_references": []
      },
      "hepatotoxin": {
        "original_name": "Hepatotoxin",
        "value": "Hepatoxic (a) from occupational exposure (secondary effect) or (b) in animal studies or in humans after ingestion",
        "links": [],
        "cross_references": []
      },
      "dermatotoxin": {
        "original_name": "Dermatotoxin",
        "value": "Skin burns",
        "links": [],
        "cross_references": [
          {
            "type": "name_match",
            "text": "burn",
            "confidence": 1.0,
            "uuid": "63665de5-6376-4918-8dbf-4c10c4d63837",
            "name": "burn",
            "url": "https://haz-map.com/Findings/204",
            "category": "findings"
          }
        ]
      }
    },
    "diseases_processes_and_activities_linked_to_this_agent": {
      "other_information": {
        "original_name": "Other Information",
        "value": "No other related information on this agent was found.",
        "links": [],
        "cross_references": []
      }
    }
  },
  "cross_references": [
    {
      "type": "name_match",
      "text": "burn",
      "confidence": 1.0,
      "uuid": "63665de5-6376-4918-8dbf-4c10c4d63837",
      "name": "burn",
      "url": "https://haz-map.com/Findings/204",
      "category": "findings"
    },
    {
      "type": "name_match",
      "text": "coke oven emissions",
      "confidence": 1.0,
      "uuid": "d9729f76-b886-4a71-a81b-470e8dcd1691",
      "name": "Coke oven emissions",
      "url": "https://haz-map.com/Agents/373",
      "category": "agents"
    },
    {
      "type": "name_match",
      "text": "pyridine",
      "confidence": 1.0,
      "uuid": "a2d916a4-844b-4df6-9be5-868b2b364d71",
      "name": "Pyridine",
      "url": "https://haz-map.com/Agents/616",
      "category": "agents"
    },
    {
      "type": "name_match",
      "text": "mica",
      "confidence": 1.0,
      "uuid": "433f26f1-c399-4596-b179-ce3843cfd465",
      "name": "Mica",
      "url": "https://haz-map.com/Agents/621",
      "category": "agents"
    },
    {
      "type": "name_match",
      "text": "ash",
      "confidence": 1.0,
      "uuid": "68b360f1-5ad0-4337-bea0-d7adca2961b5",
      "name": "Ash",
      "url": "https://haz-map.com/Agents/965",
      "category": "agents"
    },
    {
      "type": "name_match",
      "text": "pharmaceuticals",
      "confidence": 1.0,
      "uuid": "713c3c30-b67e-4a2f-a90f-b32f8a306332",
      "name": "PHARMACEUTICALS",
      "url": "https://haz-map.com/Agents/1000",
      "category": "agents"
    },
    {
      "type": "name_match",
      "text": "nitrogen",
      "confidence": 1.0,
      "uuid": "db5e90a9-06d2-45b9-8b81-f345a89b0bc0",
      "name": "Nitrogen",
      "url": "https://haz-map.com/Agents/1072",
      "category": "agents"
    },
    {
      "type": "name_match",
      "text": "methylpyridine",
      "confidence": 1.0,
      "uuid": "4c8f8772-01ae-4de4-8af0-71733c0aaad4",
      "name": "Methylpyridine",
      "url": "https://haz-map.com/Agents/1496",
      "category": "agents"
    },
    {
      "type": "name_match",
      "text": "coal tar",
      "confidence": 1.0,
      "uuid": "df40f58d-45ab-44c5-8e73-a9916bba6e2c",
      "name": "Coal tar",
      "url": "https://haz-map.com/Agents/1575",
      "category": "agents"
    },
    {
      "type": "name_match",
      "text": "4-picoline",
      "confidence": 1.0,
      "uuid": "d16ab6c2-74d7-49eb-90ee-e23917d492c9",
      "name": "4-Picoline",
      "url": "https://haz-map.com/Agents/3310",
      "category": "agents"
    },
    {
      "type": "name_match",
      "text": "water",
      "confidence": 1.0,
      "uuid": "6f2a7557-dfd2-49bc-9b4b-a93cd8e225d4",
      "name": "Water",
      "url": "https://haz-map.com/Agents/18668",
      "category": "agents"
    }
  ],
  "all_links": [
    {
      "text": "Search PubMed",
      "url": "https://www.ncbi.nlm.nih.gov/pubmed?term=4-Picoline%20AND%20human%5Bmh%5D%20AND%20%28Occupational%20Diseases%20%5Bmh%5D%20OR%20Occupational%20Exposure%20%5Bmh%5D%29%20%20AND%20%28tox%5Bsb%5D%29&cmd=search"
    }
  ]
}