{
  "metadata": {
    "scraped_from": "https://haz-map.com/Agents/21464",
    "entity_name": "Phenyl propionate",
    "category": "agents",
    "uuid": "d17cc8df-c04f-4494-99bd-9a0f82511726",
    "scraped_at": "2025-07-23T22:44:27.438046"
  },
  "parsed_at": "2025-07-24T01:15:26.193814",
  "title": "Phenyl propionate",
  "sections": {
    "general": {
      "agent_name": {
        "original_name": "Agent Name",
        "value": "Phenyl propionate",
        "links": [],
        "cross_references": [
          {
            "type": "name_match",
            "text": "phenyl propionate",
            "confidence": 1.0,
            "uuid": "d17cc8df-c04f-4494-99bd-9a0f82511726",
            "name": "Phenyl propionate",
            "url": "https://haz-map.com/Agents/21464",
            "category": "agents"
          }
        ]
      },
      "cas_number": {
        "original_name": "CAS Number",
        "value": "637-27-4",
        "links": [],
        "cross_references": []
      },
      "formula": {
        "original_name": "Formula",
        "value": "C9-H10-O2",
        "links": [],
        "cross_references": []
      },
      "major_category": {
        "original_name": "Major Category",
        "value": "Other Classes",
        "links": [],
        "cross_references": []
      },
      "synonyms": {
        "original_name": "Synonyms",
        "value": "Propanoic acid, phenyl ester; Propionic acid, phenyl ester (8CI); [ChemIDplus] Propionic acid phenyl ester; [Pfaltz and Bauer MSDS]",
        "links": [],
        "cross_references": [
          {
            "type": "name_match",
            "text": "propionic acid",
            "confidence": 1.0,
            "uuid": "519c4d0a-ac6f-4f79-a08f-47ebc278e0b4",
            "name": "Propionic acid",
            "url": "https://haz-map.com/Agents/609",
            "category": "agents"
          }
        ]
      },
      "category": {
        "original_name": "Category",
        "value": "Esters, Other",
        "links": [],
        "cross_references": []
      },
      "description": {
        "original_name": "Description",
        "value": "Melting point = 20 deg C; [ChemIDplus] Crystalline solid; [Pfaltz and Bauer MSDS]",
        "links": [],
        "cross_references": [
          {
            "type": "fuzzy_match",
            "text": "crystalline",
            "matched_name": "Silica, crystalline",
            "confidence": 0.7061403508771931,
            "uuid": "f920e8a2-46df-41b7-af8d-0368a777251e",
            "category": "agents",
            "url": "https://haz-map.com/Agents/427"
          }
        ]
      },
      "comments": {
        "original_name": "Comments",
        "value": "An irritant; [Pfaltz and Bauer MSDS] See \"2-Phenylethyl propionate.\"",
        "links": [],
        "cross_references": [
          {
            "type": "name_match",
            "text": "ethyl propionate",
            "confidence": 1.0,
            "uuid": "03fca02e-8d89-429a-88d0-077067dd26c0",
            "name": "Ethyl propionate",
            "url": "https://haz-map.com/Agents/5251",
            "category": "agents"
          },
          {
            "type": "name_match",
            "text": "2-phenylethyl propionate",
            "confidence": 1.0,
            "uuid": "d52a19cf-f9f5-4086-b440-85d21551d1b0",
            "name": "2-Phenylethyl propionate",
            "url": "https://haz-map.com/Agents/6868",
            "category": "agents"
          }
        ]
      },
      "biomedical_references": {
        "original_name": "Biomedical References",
        "value": "Search PubMed",
        "links": [
          {
            "text": "Search PubMed",
            "url": "https://www.ncbi.nlm.nih.gov/pubmed?term=Phenyl+propionate%20AND%20human%5Bmh%5D%20AND%20%28Occupational%20Diseases%20%5Bmh%5D%20OR%20Occupational%20Exposure%20%5Bmh%5D%29%20%20AND%20%28tox%5Bsb%5D%29&cmd=search"
          }
        ],
        "cross_references": []
      }
    },
    "diseases_processes_and_activities_linked_to_this_agent": {
      "other_information": {
        "original_name": "Other Information",
        "value": "No other related information on this agent was found.",
        "links": [],
        "cross_references": []
      }
    }
  },
  "cross_references": [
    {
      "type": "name_match",
      "text": "propionic acid",
      "confidence": 1.0,
      "uuid": "519c4d0a-ac6f-4f79-a08f-47ebc278e0b4",
      "name": "Propionic acid",
      "url": "https://haz-map.com/Agents/609",
      "category": "agents"
    },
    {
      "type": "name_match",
      "text": "ethyl propionate",
      "confidence": 1.0,
      "uuid": "03fca02e-8d89-429a-88d0-077067dd26c0",
      "name": "Ethyl propionate",
      "url": "https://haz-map.com/Agents/5251",
      "category": "agents"
    },
    {
      "type": "name_match",
      "text": "2-phenylethyl propionate",
      "confidence": 1.0,
      "uuid": "d52a19cf-f9f5-4086-b440-85d21551d1b0",
      "name": "2-Phenylethyl propionate",
      "url": "https://haz-map.com/Agents/6868",
      "category": "agents"
    },
    {
      "type": "name_match",
      "text": "phenyl propionate",
      "confidence": 1.0,
      "uuid": "d17cc8df-c04f-4494-99bd-9a0f82511726",
      "name": "Phenyl propionate",
      "url": "https://haz-map.com/Agents/21464",
      "category": "agents"
    },
    {
      "type": "fuzzy_match",
      "text": "crystalline",
      "matched_name": "Silica, crystalline",
      "confidence": 0.7061403508771931,
      "uuid": "f920e8a2-46df-41b7-af8d-0368a777251e",
      "category": "agents",
      "url": "https://haz-map.com/Agents/427"
    }
  ],
  "all_links": [
    {
      "text": "Search PubMed",
      "url": "https://www.ncbi.nlm.nih.gov/pubmed?term=Phenyl+propionate%20AND%20human%5Bmh%5D%20AND%20%28Occupational%20Diseases%20%5Bmh%5D%20OR%20Occupational%20Exposure%20%5Bmh%5D%29%20%20AND%20%28tox%5Bsb%5D%29&cmd=search"
    }
  ]
}