{
  "metadata": {
    "scraped_from": "https://haz-map.com/Agents/6071",
    "entity_name": "Methylbenzaldehyde",
    "category": "agents",
    "uuid": "d1964487-40f8-4d0a-ae2d-cab6aa97416e",
    "scraped_at": "2025-07-23T19:58:18.031410"
  },
  "parsed_at": "2025-07-24T01:09:36.532075",
  "title": "Methylbenzaldehyde",
  "sections": {
    "general": {
      "agent_name": {
        "original_name": "Agent Name",
        "value": "Methylbenzaldehyde",
        "links": [],
        "cross_references": [
          {
            "type": "name_match",
            "text": "benzaldehyde",
            "confidence": 1.0,
            "uuid": "8546358a-fcfc-48f8-83d6-bf7adb438729",
            "name": "Benzaldehyde",
            "url": "https://haz-map.com/Agents/1884",
            "category": "agents"
          },
          {
            "type": "name_match",
            "text": "methylbenzaldehyde",
            "confidence": 1.0,
            "uuid": "d1964487-40f8-4d0a-ae2d-cab6aa97416e",
            "name": "Methylbenzaldehyde",
            "url": "https://haz-map.com/Agents/6071",
            "category": "agents"
          }
        ]
      },
      "cas_number": {
        "original_name": "CAS Number",
        "value": "1334-78-7",
        "links": [],
        "cross_references": []
      },
      "formula": {
        "original_name": "Formula",
        "value": "C8-H8-O",
        "links": [],
        "cross_references": []
      },
      "major_category": {
        "original_name": "Major Category",
        "value": "Other Classes",
        "links": [],
        "cross_references": []
      },
      "synonyms": {
        "original_name": "Synonyms",
        "value": "Benzaldehyde, methyl-; Tolualdehyde; Tolualdehyde, mixed o-, m-, p-; Tolualdehydes (mixed o,m,p); Toluenecarboxaldehyde; Tolyl aldehyde; VHR X; [ChemIDplus]",
        "links": [],
        "cross_references": [
          {
            "type": "name_match",
            "text": "toluene",
            "confidence": 1.0,
            "uuid": "0a34d5de-e924-4c47-aff5-7ae8e48c6772",
            "name": "Toluene",
            "url": "https://haz-map.com/Agents/83",
            "category": "agents"
          },
          {
            "type": "name_match",
            "text": "aldehydes",
            "confidence": 1.0,
            "uuid": "60ff52e0-7c53-4dd0-99cf-f775cfcfed59",
            "name": "ALDEHYDES",
            "url": "https://haz-map.com/Agents/719",
            "category": "agents"
          },
          {
            "type": "name_match",
            "text": "benzaldehyde",
            "confidence": 1.0,
            "uuid": "8546358a-fcfc-48f8-83d6-bf7adb438729",
            "name": "Benzaldehyde",
            "url": "https://haz-map.com/Agents/1884",
            "category": "agents"
          }
        ]
      },
      "category": {
        "original_name": "Category",
        "value": "Benzaldehydes",
        "links": [],
        "cross_references": [
          {
            "type": "name_match",
            "text": "aldehydes",
            "confidence": 1.0,
            "uuid": "60ff52e0-7c53-4dd0-99cf-f775cfcfed59",
            "name": "ALDEHYDES",
            "url": "https://haz-map.com/Agents/719",
            "category": "agents"
          },
          {
            "type": "name_match",
            "text": "benzaldehyde",
            "confidence": 1.0,
            "uuid": "8546358a-fcfc-48f8-83d6-bf7adb438729",
            "name": "Benzaldehyde",
            "url": "https://haz-map.com/Agents/1884",
            "category": "agents"
          }
        ]
      },
      "description": {
        "original_name": "Description",
        "value": "Colorless liquid; [HSDB]",
        "links": [],
        "cross_references": []
      },
      "sourcesuses": {
        "original_name": "Sources/Uses",
        "value": "Thought to be found in roasted nuts; Used in flavors and fragrances; [HSDB]",
        "links": [],
        "cross_references": [
          {
            "type": "name_match",
            "text": "ht",
            "confidence": 1.0,
            "uuid": "764df367-8d53-4a11-81a2-31ccfe122a8d",
            "name": "HT",
            "url": "https://haz-map.com/Agents/2168",
            "category": "agents"
          }
        ]
      },
      "biomedical_references": {
        "original_name": "Biomedical References",
        "value": "Search PubMed",
        "links": [
          {
            "text": "Search PubMed",
            "url": "https://www.ncbi.nlm.nih.gov/pubmed?term=Methylbenzaldehyde%20AND%20human%5Bmh%5D%20AND%20%28Occupational%20Diseases%20%5Bmh%5D%20OR%20Occupational%20Exposure%20%5Bmh%5D%29%20%20AND%20%28tox%5Bsb%5D%29&cmd=search"
          }
        ],
        "cross_references": []
      }
    },
    "exposure_assessment": {
      "vapor_pressure": {
        "original_name": "Vapor Pressure",
        "value": "0.335 mm Hg",
        "links": [],
        "cross_references": []
      },
      "explanatory_notes": {
        "original_name": "Explanatory Notes",
        "value": "VP from ChemIDplus;",
        "links": [],
        "cross_references": []
      }
    },
    "diseases_processes_and_activities_linked_to_this_agent": {
      "other_information": {
        "original_name": "Other Information",
        "value": "No other related information on this agent was found.",
        "links": [],
        "cross_references": []
      }
    }
  },
  "cross_references": [
    {
      "type": "name_match",
      "text": "toluene",
      "confidence": 1.0,
      "uuid": "0a34d5de-e924-4c47-aff5-7ae8e48c6772",
      "name": "Toluene",
      "url": "https://haz-map.com/Agents/83",
      "category": "agents"
    },
    {
      "type": "name_match",
      "text": "aldehydes",
      "confidence": 1.0,
      "uuid": "60ff52e0-7c53-4dd0-99cf-f775cfcfed59",
      "name": "ALDEHYDES",
      "url": "https://haz-map.com/Agents/719",
      "category": "agents"
    },
    {
      "type": "name_match",
      "text": "benzaldehyde",
      "confidence": 1.0,
      "uuid": "8546358a-fcfc-48f8-83d6-bf7adb438729",
      "name": "Benzaldehyde",
      "url": "https://haz-map.com/Agents/1884",
      "category": "agents"
    },
    {
      "type": "name_match",
      "text": "ht",
      "confidence": 1.0,
      "uuid": "764df367-8d53-4a11-81a2-31ccfe122a8d",
      "name": "HT",
      "url": "https://haz-map.com/Agents/2168",
      "category": "agents"
    },
    {
      "type": "name_match",
      "text": "methylbenzaldehyde",
      "confidence": 1.0,
      "uuid": "d1964487-40f8-4d0a-ae2d-cab6aa97416e",
      "name": "Methylbenzaldehyde",
      "url": "https://haz-map.com/Agents/6071",
      "category": "agents"
    }
  ],
  "all_links": [
    {
      "text": "Search PubMed",
      "url": "https://www.ncbi.nlm.nih.gov/pubmed?term=Methylbenzaldehyde%20AND%20human%5Bmh%5D%20AND%20%28Occupational%20Diseases%20%5Bmh%5D%20OR%20Occupational%20Exposure%20%5Bmh%5D%29%20%20AND%20%28tox%5Bsb%5D%29&cmd=search"
    }
  ]
}