{
  "metadata": {
    "scraped_from": "https://haz-map.com/Agents/20820",
    "entity_name": "Methyl 3-toluate",
    "category": "agents",
    "uuid": "d2ea572b-08cc-4041-b927-ac153974c772",
    "scraped_at": "2025-07-23T22:32:25.640593"
  },
  "parsed_at": "2025-07-24T00:55:39.083354",
  "title": "Methyl 3-toluate",
  "sections": {
    "general": {
      "agent_name": {
        "original_name": "Agent Name",
        "value": "Methyl 3-toluate",
        "links": [],
        "cross_references": [
          {
            "type": "name_match",
            "text": "methyl 3-toluate",
            "confidence": 1.0,
            "uuid": "d2ea572b-08cc-4041-b927-ac153974c772",
            "name": "Methyl 3-toluate",
            "url": "https://haz-map.com/Agents/20820",
            "category": "agents"
          }
        ]
      },
      "cas_number": {
        "original_name": "CAS Number",
        "value": "99-36-5",
        "links": [],
        "cross_references": []
      },
      "formula": {
        "original_name": "Formula",
        "value": "C9-H10-O2",
        "links": [],
        "cross_references": []
      },
      "major_category": {
        "original_name": "Major Category",
        "value": "Other Classes",
        "links": [],
        "cross_references": []
      },
      "synonyms": {
        "original_name": "Synonyms",
        "value": "meta-Toluic acid, methyl ester; Methyl 3-methylbenzoate; Methyl m-methylbenzoate; Methyl m-toluate; Benzoic acid, 3-methyl-, methyl ester; m-Toluic acid, methyl ester (8CI); [ChemIDplus]",
        "links": [],
        "cross_references": [
          {
            "type": "name_match",
            "text": "benzoic acid",
            "confidence": 1.0,
            "uuid": "d2c5d3be-d826-4f55-bc32-7b16821aef40",
            "name": "Benzoic acid",
            "url": "https://haz-map.com/Agents/1883",
            "category": "agents"
          },
          {
            "type": "name_match",
            "text": "m-toluic acid",
            "confidence": 1.0,
            "uuid": "83970916-eed6-4ad3-bf5f-b7169787fc7f",
            "name": "m-Toluic acid",
            "url": "https://haz-map.com/Agents/21189",
            "category": "agents"
          }
        ]
      },
      "category": {
        "original_name": "Category",
        "value": "Esters, Other",
        "links": [],
        "cross_references": []
      },
      "description": {
        "original_name": "Description",
        "value": "Colorless liquid; [Alfa Aesar MSDS]",
        "links": [],
        "cross_references": []
      },
      "comments": {
        "original_name": "Comments",
        "value": "A skin and strong eye irritant; [Alfa Aesar MSDS]",
        "links": [],
        "cross_references": []
      },
      "biomedical_references": {
        "original_name": "Biomedical References",
        "value": "Search PubMed",
        "links": [
          {
            "text": "Search PubMed",
            "url": "https://www.ncbi.nlm.nih.gov/pubmed?term=Methyl+3-toluate%20AND%20human%5Bmh%5D%20AND%20%28Occupational%20Diseases%20%5Bmh%5D%20OR%20Occupational%20Exposure%20%5Bmh%5D%29%20%20AND%20%28tox%5Bsb%5D%29&cmd=search"
          }
        ],
        "cross_references": []
      }
    },
    "exposure_assessment": {
      "vapor_pressure": {
        "original_name": "Vapor Pressure",
        "value": "0.164 mm Hg",
        "links": [],
        "cross_references": []
      }
    },
    "diseases_processes_and_activities_linked_to_this_agent": {
      "other_information": {
        "original_name": "Other Information",
        "value": "No other related information on this agent was found.",
        "links": [],
        "cross_references": []
      }
    }
  },
  "cross_references": [
    {
      "type": "name_match",
      "text": "benzoic acid",
      "confidence": 1.0,
      "uuid": "d2c5d3be-d826-4f55-bc32-7b16821aef40",
      "name": "Benzoic acid",
      "url": "https://haz-map.com/Agents/1883",
      "category": "agents"
    },
    {
      "type": "name_match",
      "text": "methyl 3-toluate",
      "confidence": 1.0,
      "uuid": "d2ea572b-08cc-4041-b927-ac153974c772",
      "name": "Methyl 3-toluate",
      "url": "https://haz-map.com/Agents/20820",
      "category": "agents"
    },
    {
      "type": "name_match",
      "text": "m-toluic acid",
      "confidence": 1.0,
      "uuid": "83970916-eed6-4ad3-bf5f-b7169787fc7f",
      "name": "m-Toluic acid",
      "url": "https://haz-map.com/Agents/21189",
      "category": "agents"
    }
  ],
  "all_links": [
    {
      "text": "Search PubMed",
      "url": "https://www.ncbi.nlm.nih.gov/pubmed?term=Methyl+3-toluate%20AND%20human%5Bmh%5D%20AND%20%28Occupational%20Diseases%20%5Bmh%5D%20OR%20Occupational%20Exposure%20%5Bmh%5D%29%20%20AND%20%28tox%5Bsb%5D%29&cmd=search"
    }
  ]
}