{
  "metadata": {
    "scraped_from": "https://haz-map.com/Agents/5718",
    "entity_name": "Isopropylbiphenyl",
    "category": "agents",
    "uuid": "d337d4a6-bc4c-4bef-9286-4540f41df330",
    "scraped_at": "2025-07-23T19:55:24.553352"
  },
  "parsed_at": "2025-07-24T01:05:26.268147",
  "title": "Isopropylbiphenyl",
  "sections": {
    "general": {
      "agent_name": {
        "original_name": "Agent Name",
        "value": "Isopropylbiphenyl",
        "links": [],
        "cross_references": [
          {
            "type": "name_match",
            "text": "biphenyl",
            "confidence": 1.0,
            "uuid": "740f90cb-888a-4a3b-b9ae-30768927fec2",
            "name": "Biphenyl",
            "url": "https://haz-map.com/Agents/306",
            "category": "agents"
          },
          {
            "type": "name_match",
            "text": "isopropylbiphenyl",
            "confidence": 1.0,
            "uuid": "d337d4a6-bc4c-4bef-9286-4540f41df330",
            "name": "Isopropylbiphenyl",
            "url": "https://haz-map.com/Agents/5718",
            "category": "agents"
          }
        ]
      },
      "cas_number": {
        "original_name": "CAS Number",
        "value": "25640-78-2",
        "links": [],
        "cross_references": []
      },
      "formula": {
        "original_name": "Formula",
        "value": "C15-H16",
        "links": [],
        "cross_references": []
      },
      "major_category": {
        "original_name": "Major Category",
        "value": "Other Classes",
        "links": [],
        "cross_references": []
      },
      "synonyms": {
        "original_name": "Synonyms",
        "value": "(1-Methylethyl)-1,1'-biphenyl; 1,1'-Biphenyl, (1-methylethyl)-; Biphenyl, isopropyl-; Isopropyldiphenyl; Monoisopropylbiphenyl; Wemcol; [ChemIDplus]",
        "links": [],
        "cross_references": [
          {
            "type": "name_match",
            "text": "biphenyl",
            "confidence": 1.0,
            "uuid": "740f90cb-888a-4a3b-b9ae-30768927fec2",
            "name": "Biphenyl",
            "url": "https://haz-map.com/Agents/306",
            "category": "agents"
          },
          {
            "type": "name_match",
            "text": "isopropylbiphenyl",
            "confidence": 1.0,
            "uuid": "d337d4a6-bc4c-4bef-9286-4540f41df330",
            "name": "Isopropylbiphenyl",
            "url": "https://haz-map.com/Agents/5718",
            "category": "agents"
          }
        ]
      },
      "category": {
        "original_name": "Category",
        "value": "Aromatic Hydrocarbons",
        "links": [],
        "cross_references": [
          {
            "type": "name_match",
            "text": "carbon",
            "confidence": 1.0,
            "uuid": "b53f8815-ee80-40ef-b4aa-3b000e17dab5",
            "name": "Carbon",
            "url": "https://haz-map.com/Agents/1891",
            "category": "agents"
          },
          {
            "type": "fuzzy_match",
            "text": "aromatic hydrocarbons",
            "matched_name": "Aromatic hydrocarbons, C9-C11",
            "confidence": 0.7509578544061303,
            "uuid": "1e86d79b-784d-40c4-8412-39a4432a7a75",
            "category": "agents",
            "url": "https://haz-map.com/Agents/20258"
          },
          {
            "type": "fuzzy_match",
            "text": "hydrocarbons",
            "matched_name": "Hydrocarbons, C>3",
            "confidence": 0.7100840336134454,
            "uuid": "8eaa37ac-3931-44e4-9242-2734127fd661",
            "category": "agents",
            "url": "https://haz-map.com/Agents/14795"
          }
        ]
      },
      "description": {
        "original_name": "Description",
        "value": "Water-white liquid; [HSDB]",
        "links": [],
        "cross_references": [
          {
            "type": "name_match",
            "text": "water",
            "confidence": 1.0,
            "uuid": "6f2a7557-dfd2-49bc-9b4b-a93cd8e225d4",
            "name": "Water",
            "url": "https://haz-map.com/Agents/18668",
            "category": "agents"
          }
        ]
      },
      "sourcesuses": {
        "original_name": "Sources/Uses",
        "value": "Used in carbonless-copy paper systems, to replace PCB’s in capacitors, as heat transfer fluid, and in high voltage capacitors; [HSDB]",
        "links": [],
        "cross_references": [
          {
            "type": "name_match",
            "text": "carbon",
            "confidence": 1.0,
            "uuid": "b53f8815-ee80-40ef-b4aa-3b000e17dab5",
            "name": "Carbon",
            "url": "https://haz-map.com/Agents/1891",
            "category": "agents"
          }
        ]
      },
      "comments": {
        "original_name": "Comments",
        "value": "Humans exposed to this solvent in carbonless-copy paper complain of headaches, irritation of skin and eyes, and fatigue; Inhalation of high concentrations can cause decreased activity in exposed animals; No adverse effects in 28-day feeding study of rats fed as high as 0.1%; Caused liver, kidney, and heart injury when fed to rats at 800 mg/kg/day for 10-15 days; [HSDB]",
        "links": [],
        "cross_references": [
          {
            "type": "name_match",
            "text": "fatigue",
            "confidence": 1.0,
            "uuid": "038d5edd-aa09-4a6b-970a-e8a506517915",
            "name": "fatigue",
            "url": "https://haz-map.com/Findings/2",
            "category": "findings"
          },
          {
            "type": "name_match",
            "text": "headache",
            "confidence": 1.0,
            "uuid": "a474a38d-66ac-44da-92de-de1c781a30e7",
            "name": "headache",
            "url": "https://haz-map.com/Findings/17",
            "category": "findings"
          },
          {
            "type": "name_match",
            "text": "carbon",
            "confidence": 1.0,
            "uuid": "b53f8815-ee80-40ef-b4aa-3b000e17dab5",
            "name": "Carbon",
            "url": "https://haz-map.com/Agents/1891",
            "category": "agents"
          }
        ]
      },
      "biomedical_references": {
        "original_name": "Biomedical References",
        "value": "Search PubMed",
        "links": [
          {
            "text": "Search PubMed",
            "url": "https://www.ncbi.nlm.nih.gov/pubmed?term=Isopropylbiphenyl%20AND%20human%5Bmh%5D%20AND%20%28Occupational%20Diseases%20%5Bmh%5D%20OR%20Occupational%20Exposure%20%5Bmh%5D%29%20%20AND%20%28tox%5Bsb%5D%29&cmd=search"
          }
        ],
        "cross_references": []
      }
    },
    "exposure_assessment": {
      "vapor_pressure": {
        "original_name": "Vapor Pressure",
        "value": "0.0005 mm Hg",
        "links": [],
        "cross_references": []
      }
    },
    "adverse_effects": {
      "hepatotoxin": {
        "original_name": "Hepatotoxin",
        "value": "Hepatoxic (a) from occupational exposure (secondary effect) or (b) in animal studies or in humans after ingestion",
        "links": [],
        "cross_references": []
      }
    },
    "diseases_processes_and_activities_linked_to_this_agent": {
      "other_information": {
        "original_name": "Other Information",
        "value": "No other related information on this agent was found.",
        "links": [],
        "cross_references": []
      }
    }
  },
  "cross_references": [
    {
      "type": "name_match",
      "text": "fatigue",
      "confidence": 1.0,
      "uuid": "038d5edd-aa09-4a6b-970a-e8a506517915",
      "name": "fatigue",
      "url": "https://haz-map.com/Findings/2",
      "category": "findings"
    },
    {
      "type": "name_match",
      "text": "headache",
      "confidence": 1.0,
      "uuid": "a474a38d-66ac-44da-92de-de1c781a30e7",
      "name": "headache",
      "url": "https://haz-map.com/Findings/17",
      "category": "findings"
    },
    {
      "type": "name_match",
      "text": "biphenyl",
      "confidence": 1.0,
      "uuid": "740f90cb-888a-4a3b-b9ae-30768927fec2",
      "name": "Biphenyl",
      "url": "https://haz-map.com/Agents/306",
      "category": "agents"
    },
    {
      "type": "name_match",
      "text": "carbon",
      "confidence": 1.0,
      "uuid": "b53f8815-ee80-40ef-b4aa-3b000e17dab5",
      "name": "Carbon",
      "url": "https://haz-map.com/Agents/1891",
      "category": "agents"
    },
    {
      "type": "name_match",
      "text": "isopropylbiphenyl",
      "confidence": 1.0,
      "uuid": "d337d4a6-bc4c-4bef-9286-4540f41df330",
      "name": "Isopropylbiphenyl",
      "url": "https://haz-map.com/Agents/5718",
      "category": "agents"
    },
    {
      "type": "name_match",
      "text": "water",
      "confidence": 1.0,
      "uuid": "6f2a7557-dfd2-49bc-9b4b-a93cd8e225d4",
      "name": "Water",
      "url": "https://haz-map.com/Agents/18668",
      "category": "agents"
    },
    {
      "type": "fuzzy_match",
      "text": "aromatic hydrocarbons",
      "matched_name": "Aromatic hydrocarbons, C9-C11",
      "confidence": 0.7509578544061303,
      "uuid": "1e86d79b-784d-40c4-8412-39a4432a7a75",
      "category": "agents",
      "url": "https://haz-map.com/Agents/20258"
    },
    {
      "type": "fuzzy_match",
      "text": "hydrocarbons",
      "matched_name": "Hydrocarbons, C>3",
      "confidence": 0.7100840336134454,
      "uuid": "8eaa37ac-3931-44e4-9242-2734127fd661",
      "category": "agents",
      "url": "https://haz-map.com/Agents/14795"
    }
  ],
  "all_links": [
    {
      "text": "Search PubMed",
      "url": "https://www.ncbi.nlm.nih.gov/pubmed?term=Isopropylbiphenyl%20AND%20human%5Bmh%5D%20AND%20%28Occupational%20Diseases%20%5Bmh%5D%20OR%20Occupational%20Exposure%20%5Bmh%5D%29%20%20AND%20%28tox%5Bsb%5D%29&cmd=search"
    }
  ]
}