{
  "metadata": {
    "scraped_from": "https://haz-map.com/Agents/20858",
    "entity_name": "2,6-Dimethyldinitrosopiperazine",
    "category": "agents",
    "uuid": "d3702513-96d2-4b1f-aa32-4de715d13ed4",
    "scraped_at": "2025-07-23T22:33:10.393393"
  },
  "parsed_at": "2025-07-24T01:10:37.954839",
  "title": "2,6-Dimethyldinitrosopiperazine",
  "sections": {
    "general": {
      "agent_name": {
        "original_name": "Agent Name",
        "value": "2,6-Dimethyldinitrosopiperazine",
        "links": [],
        "cross_references": [
          {
            "type": "name_match",
            "text": "2,6-dimethyldinitrosopiperazine",
            "confidence": 1.0,
            "uuid": "d3702513-96d2-4b1f-aa32-4de715d13ed4",
            "name": "2,6-Dimethyldinitrosopiperazine",
            "url": "https://haz-map.com/Agents/20858",
            "category": "agents"
          }
        ]
      },
      "cas_number": {
        "original_name": "CAS Number",
        "value": "55380-34-2",
        "links": [],
        "cross_references": []
      },
      "formula": {
        "original_name": "Formula",
        "value": "C6-H12-N4-O2",
        "links": [],
        "cross_references": []
      },
      "major_category": {
        "original_name": "Major Category",
        "value": "Nitrogen Compounds",
        "links": [],
        "cross_references": [
          {
            "type": "name_match",
            "text": "nitrogen",
            "confidence": 1.0,
            "uuid": "db5e90a9-06d2-45b9-8b81-f345a89b0bc0",
            "name": "Nitrogen",
            "url": "https://haz-map.com/Agents/1072",
            "category": "agents"
          }
        ]
      },
      "synonyms": {
        "original_name": "Synonyms",
        "value": "1,4-Dinitroso-2,6-dimethylpiperazine; 2,6-Dimethyl-1,4-dinitrosopiperazine; 2,6-Dimethyl-dnpz; Dinitroso-2,6-dimethylpiperazine; DNDMP; N,N'-Dinitroso-2,6-dimethylpiperazine; Piperazine, 2,6-dimethyl-1,4-dinitroso-; [ChemIDplus]",
        "links": [],
        "cross_references": [
          {
            "type": "name_match",
            "text": "1,4-dinitrosopiperazine",
            "confidence": 1.0,
            "uuid": "dd47220f-7c89-4715-b4b9-72c5396d4951",
            "name": "1,4-Dinitrosopiperazine",
            "url": "https://haz-map.com/Agents/2824",
            "category": "agents"
          }
        ]
      },
      "category": {
        "original_name": "Category",
        "value": "Nitrosamines",
        "links": [],
        "cross_references": [
          {
            "type": "name_match",
            "text": "nitrosamines",
            "confidence": 1.0,
            "uuid": "71647706-f82f-4f7a-a1ad-2500c04c2ac0",
            "name": "NITROSAMINES",
            "url": "https://haz-map.com/Agents/767",
            "category": "agents"
          }
        ]
      },
      "comments": {
        "original_name": "Comments",
        "value": "See \"NITROSAMINES.\"",
        "links": [],
        "cross_references": [
          {
            "type": "name_match",
            "text": "nitrosamines",
            "confidence": 1.0,
            "uuid": "71647706-f82f-4f7a-a1ad-2500c04c2ac0",
            "name": "NITROSAMINES",
            "url": "https://haz-map.com/Agents/767",
            "category": "agents"
          }
        ]
      },
      "biomedical_references": {
        "original_name": "Biomedical References",
        "value": "Search PubMed",
        "links": [
          {
            "text": "Search PubMed",
            "url": "https://www.ncbi.nlm.nih.gov/pubmed?term=2%2c6-Dimethyldinitrosopiperazine%20AND%20human%5Bmh%5D%20AND%20%28Occupational%20Diseases%20%5Bmh%5D%20OR%20Occupational%20Exposure%20%5Bmh%5D%29%20%20AND%20%28tox%5Bsb%5D%29&cmd=search"
          }
        ],
        "cross_references": []
      }
    },
    "exposure_assessment": {
      "vapor_pressure": {
        "original_name": "Vapor Pressure",
        "value": "5.9E-05 mm Hg",
        "links": [],
        "cross_references": []
      }
    },
    "diseases_processes_and_activities_linked_to_this_agent": {
      "other_information": {
        "original_name": "Other Information",
        "value": "No other related information on this agent was found.",
        "links": [],
        "cross_references": []
      }
    }
  },
  "cross_references": [
    {
      "type": "name_match",
      "text": "nitrosamines",
      "confidence": 1.0,
      "uuid": "71647706-f82f-4f7a-a1ad-2500c04c2ac0",
      "name": "NITROSAMINES",
      "url": "https://haz-map.com/Agents/767",
      "category": "agents"
    },
    {
      "type": "name_match",
      "text": "nitrogen",
      "confidence": 1.0,
      "uuid": "db5e90a9-06d2-45b9-8b81-f345a89b0bc0",
      "name": "Nitrogen",
      "url": "https://haz-map.com/Agents/1072",
      "category": "agents"
    },
    {
      "type": "name_match",
      "text": "1,4-dinitrosopiperazine",
      "confidence": 1.0,
      "uuid": "dd47220f-7c89-4715-b4b9-72c5396d4951",
      "name": "1,4-Dinitrosopiperazine",
      "url": "https://haz-map.com/Agents/2824",
      "category": "agents"
    },
    {
      "type": "name_match",
      "text": "2,6-dimethyldinitrosopiperazine",
      "confidence": 1.0,
      "uuid": "d3702513-96d2-4b1f-aa32-4de715d13ed4",
      "name": "2,6-Dimethyldinitrosopiperazine",
      "url": "https://haz-map.com/Agents/20858",
      "category": "agents"
    }
  ],
  "all_links": [
    {
      "text": "Search PubMed",
      "url": "https://www.ncbi.nlm.nih.gov/pubmed?term=2%2c6-Dimethyldinitrosopiperazine%20AND%20human%5Bmh%5D%20AND%20%28Occupational%20Diseases%20%5Bmh%5D%20OR%20Occupational%20Exposure%20%5Bmh%5D%29%20%20AND%20%28tox%5Bsb%5D%29&cmd=search"
    }
  ]
}