{
  "metadata": {
    "scraped_from": "https://haz-map.com/Agents/5747",
    "entity_name": "Kadethrin",
    "category": "agents",
    "uuid": "d3ec0818-85a8-4053-9be7-f2b54368dbb0",
    "scraped_at": "2025-07-23T19:55:51.777056"
  },
  "parsed_at": "2025-07-24T00:58:46.225124",
  "title": "Kadethrin",
  "sections": {
    "general": {
      "agent_name": {
        "original_name": "Agent Name",
        "value": "Kadethrin",
        "links": [],
        "cross_references": [
          {
            "type": "name_match",
            "text": "kadethrin",
            "confidence": 1.0,
            "uuid": "d3ec0818-85a8-4053-9be7-f2b54368dbb0",
            "name": "Kadethrin",
            "url": "https://haz-map.com/Agents/5747",
            "category": "agents"
          }
        ]
      },
      "cas_number": {
        "original_name": "CAS Number",
        "value": "58769-20-3",
        "links": [],
        "cross_references": []
      },
      "formula": {
        "original_name": "Formula",
        "value": "C23-H24-O4-S",
        "links": [],
        "cross_references": []
      },
      "major_category": {
        "original_name": "Major Category",
        "value": "Pesticides",
        "links": [],
        "cross_references": []
      },
      "synonyms": {
        "original_name": "Synonyms",
        "value": "(1R-(1alpha,3alpha(E)))-(5-(phenylmethyl)-3-furanyl)methyl 3-((dihydro-2-oxo-3(2H)-thienylidene)methyl)-2,2-dimethylcyclopropanecarboxylate; 1R,cis-RU 15525; 5-Benzyl-3-furylmethyl (E)-(1R)-cis-2,2-dimethyl-3-(2-oxothiolan-3-ylidenemethyl)cyclopropanecarboxylate; 5-Benzyl-3-furylmethyl (E)-(1R,3S)-2,2-dimethyl-3-(2-oxothiolan-3-ylidenemethyl)cyclopropanecarboxylate; ENT 29117; Kadethrin(e); RU 15525; Spray-tox; [ChemIDplus]",
        "links": [],
        "cross_references": [
          {
            "type": "name_match",
            "text": "propane",
            "confidence": 1.0,
            "uuid": "563a611b-46ea-4bdc-b77b-17d8f7646283",
            "name": "Propane",
            "url": "https://haz-map.com/Agents/607",
            "category": "agents"
          },
          {
            "type": "name_match",
            "text": "furan",
            "confidence": 1.0,
            "uuid": "96da3d2e-f46b-4100-9000-704d1a86985b",
            "name": "Furan",
            "url": "https://haz-map.com/Agents/1477",
            "category": "agents"
          },
          {
            "type": "name_match",
            "text": "cyclopropane",
            "confidence": 1.0,
            "uuid": "eff680c8-2b85-4f0d-9c04-449434d56b54",
            "name": "Cyclopropane",
            "url": "https://haz-map.com/Agents/4611",
            "category": "agents"
          },
          {
            "type": "name_match",
            "text": "kadethrin",
            "confidence": 1.0,
            "uuid": "d3ec0818-85a8-4053-9be7-f2b54368dbb0",
            "name": "Kadethrin",
            "url": "https://haz-map.com/Agents/5747",
            "category": "agents"
          },
          {
            "type": "name_match",
            "text": "ethylcyclopropane",
            "confidence": 1.0,
            "uuid": "3829e96b-c048-428e-a2ff-537a69ad5f8f",
            "name": "Ethylcyclopropane",
            "url": "https://haz-map.com/Agents/13535",
            "category": "agents"
          },
          {
            "type": "fuzzy_match",
            "text": "2-dimethylcyclopropane",
            "matched_name": "trans-1,2-Dimethylcyclopropane",
            "confidence": 0.787719298245614,
            "uuid": "82a4a103-a5b0-4faf-9769-3edd1697a4bf",
            "category": "agents",
            "url": "https://haz-map.com/Agents/13526"
          }
        ]
      },
      "category": {
        "original_name": "Category",
        "value": "Pyrethrins/Pyrethroids",
        "links": [],
        "cross_references": []
      },
      "description": {
        "original_name": "Description",
        "value": "Yellowish-brown viscous liquid; mp = 31 deg C; [HSDB]",
        "links": [],
        "cross_references": []
      },
      "sourcesuses": {
        "original_name": "Sources/Uses",
        "value": "Used as insecticide for control of household pests (usually combined with other pyrethroids and synergists); [HSDB]",
        "links": [],
        "cross_references": []
      },
      "comments": {
        "original_name": "Comments",
        "value": "May cause eye irritation; [HSDB] An irritant; May cause convulsions and loss of consciousness; [MSDSonline] See \"Pyrethrum.\"",
        "links": [],
        "cross_references": [
          {
            "type": "name_match",
            "text": "convulsion",
            "confidence": 1.0,
            "uuid": "af2c36f8-707a-48e3-a62b-1aa07adc9b72",
            "name": "convulsion",
            "url": "https://haz-map.com/Findings/14",
            "category": "findings"
          },
          {
            "type": "name_match",
            "text": "pyrethrum",
            "confidence": 1.0,
            "uuid": "2207eb81-00c4-4197-8027-9a241d9cab6a",
            "name": "Pyrethrum",
            "url": "https://haz-map.com/Agents/615",
            "category": "agents"
          }
        ]
      },
      "restricted": {
        "original_name": "Restricted",
        "value": "No longer registered as a pesticide for use in the US; [HSDB]",
        "links": [],
        "cross_references": []
      },
      "biomedical_references": {
        "original_name": "Biomedical References",
        "value": "Search PubMed",
        "links": [
          {
            "text": "Search PubMed",
            "url": "https://www.ncbi.nlm.nih.gov/pubmed?term=Kadethrin%20AND%20human%5Bmh%5D%20AND%20%28Occupational%20Diseases%20%5Bmh%5D%20OR%20Occupational%20Exposure%20%5Bmh%5D%29%20%20AND%20%28tox%5Bsb%5D%29&cmd=search"
          }
        ],
        "cross_references": []
      }
    },
    "exposure_assessment": {
      "vapor_pressure": {
        "original_name": "Vapor Pressure",
        "value": "4.2E-08 mm Hg",
        "links": [],
        "cross_references": []
      }
    },
    "adverse_effects": {
      "neurotoxin": {
        "original_name": "Neurotoxin",
        "value": "Other CNS neurotoxin",
        "links": [],
        "cross_references": []
      }
    },
    "diseases_processes_and_activities_linked_to_this_agent": {
      "other_information": {
        "original_name": "Other Information",
        "value": "No other related information on this agent was found.",
        "links": [],
        "cross_references": []
      }
    }
  },
  "cross_references": [
    {
      "type": "name_match",
      "text": "convulsion",
      "confidence": 1.0,
      "uuid": "af2c36f8-707a-48e3-a62b-1aa07adc9b72",
      "name": "convulsion",
      "url": "https://haz-map.com/Findings/14",
      "category": "findings"
    },
    {
      "type": "name_match",
      "text": "propane",
      "confidence": 1.0,
      "uuid": "563a611b-46ea-4bdc-b77b-17d8f7646283",
      "name": "Propane",
      "url": "https://haz-map.com/Agents/607",
      "category": "agents"
    },
    {
      "type": "name_match",
      "text": "pyrethrum",
      "confidence": 1.0,
      "uuid": "2207eb81-00c4-4197-8027-9a241d9cab6a",
      "name": "Pyrethrum",
      "url": "https://haz-map.com/Agents/615",
      "category": "agents"
    },
    {
      "type": "name_match",
      "text": "furan",
      "confidence": 1.0,
      "uuid": "96da3d2e-f46b-4100-9000-704d1a86985b",
      "name": "Furan",
      "url": "https://haz-map.com/Agents/1477",
      "category": "agents"
    },
    {
      "type": "name_match",
      "text": "cyclopropane",
      "confidence": 1.0,
      "uuid": "eff680c8-2b85-4f0d-9c04-449434d56b54",
      "name": "Cyclopropane",
      "url": "https://haz-map.com/Agents/4611",
      "category": "agents"
    },
    {
      "type": "name_match",
      "text": "kadethrin",
      "confidence": 1.0,
      "uuid": "d3ec0818-85a8-4053-9be7-f2b54368dbb0",
      "name": "Kadethrin",
      "url": "https://haz-map.com/Agents/5747",
      "category": "agents"
    },
    {
      "type": "name_match",
      "text": "ethylcyclopropane",
      "confidence": 1.0,
      "uuid": "3829e96b-c048-428e-a2ff-537a69ad5f8f",
      "name": "Ethylcyclopropane",
      "url": "https://haz-map.com/Agents/13535",
      "category": "agents"
    },
    {
      "type": "fuzzy_match",
      "text": "2-dimethylcyclopropane",
      "matched_name": "trans-1,2-Dimethylcyclopropane",
      "confidence": 0.787719298245614,
      "uuid": "82a4a103-a5b0-4faf-9769-3edd1697a4bf",
      "category": "agents",
      "url": "https://haz-map.com/Agents/13526"
    }
  ],
  "all_links": [
    {
      "text": "Search PubMed",
      "url": "https://www.ncbi.nlm.nih.gov/pubmed?term=Kadethrin%20AND%20human%5Bmh%5D%20AND%20%28Occupational%20Diseases%20%5Bmh%5D%20OR%20Occupational%20Exposure%20%5Bmh%5D%29%20%20AND%20%28tox%5Bsb%5D%29&cmd=search"
    }
  ]
}