{
  "metadata": {
    "scraped_from": "https://haz-map.com/Agents/2709",
    "entity_name": "1,1-Dichloropropane",
    "category": "agents",
    "uuid": "d40cec48-fde2-4318-9122-b684ff1547e7",
    "scraped_at": "2025-07-23T19:17:52.888387"
  },
  "parsed_at": "2025-07-24T00:59:48.746238",
  "title": "1,1-Dichloropropane",
  "sections": {
    "general": {
      "agent_name": {
        "original_name": "Agent Name",
        "value": "1,1-Dichloropropane",
        "links": [],
        "cross_references": [
          {
            "type": "name_match",
            "text": "propane",
            "confidence": 1.0,
            "uuid": "563a611b-46ea-4bdc-b77b-17d8f7646283",
            "name": "Propane",
            "url": "https://haz-map.com/Agents/607",
            "category": "agents"
          },
          {
            "type": "name_match",
            "text": "1,1-dichloropropane",
            "confidence": 1.0,
            "uuid": "d40cec48-fde2-4318-9122-b684ff1547e7",
            "name": "1,1-Dichloropropane",
            "url": "https://haz-map.com/Agents/2709",
            "category": "agents"
          }
        ]
      },
      "cas_number": {
        "original_name": "CAS Number",
        "value": "78-99-9",
        "links": [],
        "cross_references": []
      },
      "formula": {
        "original_name": "Formula",
        "value": "C3-H6-Cl2",
        "links": [],
        "cross_references": []
      },
      "major_category": {
        "original_name": "Major Category",
        "value": "Solvents",
        "links": [],
        "cross_references": []
      },
      "synonyms": {
        "original_name": "Synonyms",
        "value": "Propane, 1,1-dichloro-; Propylidene chloride; R 270fb; alpha,alpha-Dichloropropane; alpha,alpha-Propylene dichloride; [ChemIDplus] UN1992",
        "links": [],
        "cross_references": [
          {
            "type": "name_match",
            "text": "propylene dichloride",
            "confidence": 1.0,
            "uuid": "a9b34a64-7bdb-4f17-a163-9262884ed130",
            "name": "Propylene dichloride",
            "url": "https://haz-map.com/Agents/421",
            "category": "agents"
          },
          {
            "type": "name_match",
            "text": "propane",
            "confidence": 1.0,
            "uuid": "563a611b-46ea-4bdc-b77b-17d8f7646283",
            "name": "Propane",
            "url": "https://haz-map.com/Agents/607",
            "category": "agents"
          },
          {
            "type": "name_match",
            "text": "propylene",
            "confidence": 1.0,
            "uuid": "78ac73a1-0029-4a50-b283-561134c72041",
            "name": "Propylene",
            "url": "https://haz-map.com/Agents/1078",
            "category": "agents"
          }
        ]
      },
      "category": {
        "original_name": "Category",
        "value": "Chlorinated Aliphatics",
        "links": [],
        "cross_references": [
          {
            "type": "name_match",
            "text": "chlorin",
            "confidence": 1.0,
            "uuid": "4a566fec-ec7e-42b0-9f14-ec586335e694",
            "name": "Chlorin",
            "url": "https://haz-map.com/Agents/20422",
            "category": "agents"
          }
        ]
      },
      "description": {
        "original_name": "Description",
        "value": "Colorless liquid; [ICSC]",
        "links": [],
        "cross_references": []
      },
      "sourcesuses": {
        "original_name": "Sources/Uses",
        "value": "Used as a solvent for pesticide formulations; [HSDB]",
        "links": [],
        "cross_references": []
      },
      "comments": {
        "original_name": "Comments",
        "value": "A skin and eye irritant; [ICSC] Inhalation can cause CNS depression; High concentrations may cause lacrimation; [HSDB] An irritant; Inhalation of high concentrations can cause CNS depression; May damage liver and kidneys; [MSDSonline]",
        "links": [],
        "cross_references": [
          {
            "type": "name_match",
            "text": "lacrimation",
            "confidence": 1.0,
            "uuid": "392ff8e7-90fa-4d6d-8f67-3e49d053ffac",
            "name": "lacrimation",
            "url": "https://haz-map.com/Findings/199",
            "category": "findings"
          }
        ]
      },
      "biomedical_references": {
        "original_name": "Biomedical References",
        "value": "Search PubMed",
        "links": [
          {
            "text": "Search PubMed",
            "url": "https://www.ncbi.nlm.nih.gov/pubmed?term=1%2c1-Dichloropropane%20AND%20human%5Bmh%5D%20AND%20%28Occupational%20Diseases%20%5Bmh%5D%20OR%20Occupational%20Exposure%20%5Bmh%5D%29%20%20AND%20%28tox%5Bsb%5D%29&cmd=search"
          }
        ],
        "cross_references": []
      }
    },
    "exposure_assessment": {
      "vapor_pressure": {
        "original_name": "Vapor Pressure",
        "value": "68.3 mm Hg",
        "links": [],
        "cross_references": []
      },
      "lethal_concentration": {
        "original_name": "Lethal Concentration",
        "value": "LCLo (rat) = 4,000 ppm/4h",
        "links": [],
        "cross_references": []
      },
      "explanatory_notes": {
        "original_name": "Explanatory Notes",
        "value": "Flash point = 16 deg C; [ICSC] VP from ChemIDplus;",
        "links": [],
        "cross_references": [
          {
            "type": "name_match",
            "text": "ash",
            "confidence": 1.0,
            "uuid": "68b360f1-5ad0-4337-bea0-d7adca2961b5",
            "name": "Ash",
            "url": "https://haz-map.com/Agents/965",
            "category": "agents"
          }
        ]
      }
    },
    "adverse_effects": {
      "lachrymator": {
        "original_name": "Lachrymator",
        "value": "Yes",
        "links": [],
        "cross_references": []
      },
      "neurotoxin": {
        "original_name": "Neurotoxin",
        "value": "Acute solvent syndrome",
        "links": [],
        "cross_references": []
      },
      "hepatotoxin": {
        "original_name": "Hepatotoxin",
        "value": "Hepatoxic (a) from occupational exposure (secondary effect) or (b) in animal studies or in humans after ingestion",
        "links": [],
        "cross_references": []
      }
    },
    "diseases_processes_and_activities_linked_to_this_agent": {
      "diseases": {
        "original_name": "Diseases",
        "value": "Occupational diseases associated with exposure to this agent: Solvents, acute toxic effect",
        "links": [
          {
            "text": "Solvents, acute toxic effect",
            "url": "https://haz-map.com/Diseases/326"
          }
        ],
        "cross_references": [
          {
            "type": "url_match",
            "text": "Solvents, acute toxic effect",
            "url": "https://haz-map.com/Diseases/326",
            "confidence": 1.0,
            "uuid": "581e90e3-9d0c-45f0-aa6c-3468c28da129",
            "name": "Solvents, acute toxic effect",
            "category": "diseases"
          }
        ]
      },
      "processes": {
        "original_name": "Processes",
        "value": "Industrial Processes with risk of exposure: Farming (Pesticides)",
        "links": [
          {
            "text": "Farming (Pesticides)",
            "url": "https://haz-map.com/Processes/218"
          }
        ],
        "cross_references": [
          {
            "type": "url_match",
            "text": "Farming (Pesticides)",
            "url": "https://haz-map.com/Processes/218",
            "confidence": 1.0,
            "uuid": "cf1e5815-c9bb-4917-82a5-391848170b7e",
            "name": "Farming (Pesticides)",
            "category": "processes"
          }
        ]
      }
    }
  },
  "cross_references": [
    {
      "type": "url_match",
      "text": "Solvents, acute toxic effect",
      "url": "https://haz-map.com/Diseases/326",
      "confidence": 1.0,
      "uuid": "581e90e3-9d0c-45f0-aa6c-3468c28da129",
      "name": "Solvents, acute toxic effect",
      "category": "diseases"
    },
    {
      "type": "url_match",
      "text": "Farming (Pesticides)",
      "url": "https://haz-map.com/Processes/218",
      "confidence": 1.0,
      "uuid": "cf1e5815-c9bb-4917-82a5-391848170b7e",
      "name": "Farming (Pesticides)",
      "category": "processes"
    },
    {
      "type": "name_match",
      "text": "lacrimation",
      "confidence": 1.0,
      "uuid": "392ff8e7-90fa-4d6d-8f67-3e49d053ffac",
      "name": "lacrimation",
      "url": "https://haz-map.com/Findings/199",
      "category": "findings"
    },
    {
      "type": "name_match",
      "text": "propylene dichloride",
      "confidence": 1.0,
      "uuid": "a9b34a64-7bdb-4f17-a163-9262884ed130",
      "name": "Propylene dichloride",
      "url": "https://haz-map.com/Agents/421",
      "category": "agents"
    },
    {
      "type": "name_match",
      "text": "propane",
      "confidence": 1.0,
      "uuid": "563a611b-46ea-4bdc-b77b-17d8f7646283",
      "name": "Propane",
      "url": "https://haz-map.com/Agents/607",
      "category": "agents"
    },
    {
      "type": "name_match",
      "text": "ash",
      "confidence": 1.0,
      "uuid": "68b360f1-5ad0-4337-bea0-d7adca2961b5",
      "name": "Ash",
      "url": "https://haz-map.com/Agents/965",
      "category": "agents"
    },
    {
      "type": "name_match",
      "text": "propylene",
      "confidence": 1.0,
      "uuid": "78ac73a1-0029-4a50-b283-561134c72041",
      "name": "Propylene",
      "url": "https://haz-map.com/Agents/1078",
      "category": "agents"
    },
    {
      "type": "name_match",
      "text": "1,1-dichloropropane",
      "confidence": 1.0,
      "uuid": "d40cec48-fde2-4318-9122-b684ff1547e7",
      "name": "1,1-Dichloropropane",
      "url": "https://haz-map.com/Agents/2709",
      "category": "agents"
    },
    {
      "type": "name_match",
      "text": "chlorin",
      "confidence": 1.0,
      "uuid": "4a566fec-ec7e-42b0-9f14-ec586335e694",
      "name": "Chlorin",
      "url": "https://haz-map.com/Agents/20422",
      "category": "agents"
    }
  ],
  "all_links": [
    {
      "text": "Search PubMed",
      "url": "https://www.ncbi.nlm.nih.gov/pubmed?term=1%2c1-Dichloropropane%20AND%20human%5Bmh%5D%20AND%20%28Occupational%20Diseases%20%5Bmh%5D%20OR%20Occupational%20Exposure%20%5Bmh%5D%29%20%20AND%20%28tox%5Bsb%5D%29&cmd=search"
    },
    {
      "text": "Solvents, acute toxic effect",
      "url": "https://haz-map.com/Diseases/326"
    },
    {
      "text": "Farming (Pesticides)",
      "url": "https://haz-map.com/Processes/218"
    }
  ]
}