{
  "metadata": {
    "scraped_from": "https://haz-map.com/Agents/1157",
    "entity_name": "Bithionol",
    "category": "agents",
    "uuid": "d4761015-0954-43d2-bb5c-137e01c8e8da",
    "scraped_at": "2025-07-23T18:53:31.328162"
  },
  "parsed_at": "2025-07-24T00:56:23.810084",
  "title": "Bithionol",
  "sections": {
    "general": {
      "agent_name": {
        "original_name": "Agent Name",
        "value": "Bithionol",
        "links": [],
        "cross_references": [
          {
            "type": "name_match",
            "text": "bithionol",
            "confidence": 1.0,
            "uuid": "d4761015-0954-43d2-bb5c-137e01c8e8da",
            "name": "Bithionol",
            "url": "https://haz-map.com/Agents/1157",
            "category": "agents"
          }
        ]
      },
      "cas_number": {
        "original_name": "CAS Number",
        "value": "97-18-7",
        "links": [],
        "cross_references": []
      },
      "formula": {
        "original_name": "Formula",
        "value": "C12-H6-Cl4-O2-S",
        "links": [],
        "cross_references": []
      },
      "major_category": {
        "original_name": "Major Category",
        "value": "Other Uses",
        "links": [],
        "cross_references": []
      },
      "synonyms": {
        "original_name": "Synonyms",
        "value": "2,2'-Dihydroxy-3,3',5,5'-tetrachlorodiphenyl sulfide; 2,2'-Dihydroxy-3,3',5,5'-tetrachlorodiphenylsulfide; 2,2'-Thiobis(4,6-dichlorophenol); 2-Hydroxy-3,5-dichlorophenyl sulfide; 2-Hydroxy-3,5-dichlorophenyl sulphide; Actamer; Bidiphen; Bis(2-hydroxy-3,5-dichlorophenyl) sulfide; Bis(3,5-dichloro-2-hydroxyphenyl) sulfide; Bisoxyphen; Bithin; Bithionol sulfide; Bithionolate; Bithionolum [INN-Latin]; Bitin; Bitionol [INN-Spanish]; CP 3438; D 26; Lorothidol; Lorothiodol; Neopellis; Nobacter; TBP; TKhsd; UNII-AMT77LS62O; Vancide BL; XL 7; Phenol, 2,2'-thiobis(4,6-dichloro-; [ChemIDplus] UN2811",
        "links": [],
        "cross_references": [
          {
            "type": "name_match",
            "text": "phenol",
            "confidence": 1.0,
            "uuid": "03141a03-a7df-4f51-9a37-adde1a7c4b31",
            "name": "Phenol",
            "url": "https://haz-map.com/Agents/84",
            "category": "agents"
          },
          {
            "type": "name_match",
            "text": "bithionol",
            "confidence": 1.0,
            "uuid": "d4761015-0954-43d2-bb5c-137e01c8e8da",
            "name": "Bithionol",
            "url": "https://haz-map.com/Agents/1157",
            "category": "agents"
          },
          {
            "type": "name_match",
            "text": "dichlorophen",
            "confidence": 1.0,
            "uuid": "43441a9d-e8c4-49f1-8bbf-52d24da33df3",
            "name": "Dichlorophen",
            "url": "https://haz-map.com/Agents/1159",
            "category": "agents"
          },
          {
            "type": "name_match",
            "text": "phenyl sulfide",
            "confidence": 1.0,
            "uuid": "57f91bec-789e-4483-bbc7-394ed3fee3c1",
            "name": "Phenyl sulfide",
            "url": "https://haz-map.com/Agents/16554",
            "category": "agents"
          },
          {
            "type": "fuzzy_match",
            "text": "6-dichlorophenol",
            "matched_name": "2,6-Dichlorophenol",
            "confidence": 0.873015873015873,
            "uuid": "f6bd0d86-f8c0-4584-b9a2-13a64a96c68c",
            "category": "agents",
            "url": "https://haz-map.com/Agents/3041"
          }
        ]
      },
      "category": {
        "original_name": "Category",
        "value": "Biocides/Disinfectants",
        "links": [],
        "cross_references": []
      },
      "description": {
        "original_name": "Description",
        "value": "White or grayish-white, crystalline powder; [HSDB]",
        "links": [],
        "cross_references": [
          {
            "type": "fuzzy_match",
            "text": "crystalline",
            "matched_name": "Silica, crystalline",
            "confidence": 0.7061403508771931,
            "uuid": "f920e8a2-46df-41b7-af8d-0368a777251e",
            "category": "agents",
            "url": "https://haz-map.com/Agents/427"
          }
        ]
      },
      "sourcesuses": {
        "original_name": "Sources/Uses",
        "value": "Bithionol is one of the biocides commonly used in metalworking fluids. [Occupational Exposure to Metalworking Fluids. DHHS (NIOSH) Publication No. 98-102, 1998, Table 4-1] As an antimicrobial agent, it is active against bacteria and fungi. [Merck Index, #1306] It is used in agricultural fungicides and industrial cleansers. [Marks, p. 228]",
        "links": [],
        "cross_references": [
          {
            "type": "name_match",
            "text": "fungicides",
            "confidence": 1.0,
            "uuid": "f4a9c1e1-4d57-4480-be97-d3590d38ce39",
            "name": "FUNGICIDES",
            "url": "https://haz-map.com/Agents/763",
            "category": "agents"
          },
          {
            "type": "name_match",
            "text": "bithionol",
            "confidence": 1.0,
            "uuid": "d4761015-0954-43d2-bb5c-137e01c8e8da",
            "name": "Bithionol",
            "url": "https://haz-map.com/Agents/1157",
            "category": "agents"
          },
          {
            "type": "name_match",
            "text": "fungi",
            "confidence": 1.0,
            "uuid": "e0d489cb-bfee-4aee-b665-999c017268a2",
            "name": "Fungi",
            "url": "https://haz-map.com/Agents/1988",
            "category": "agents"
          }
        ]
      },
      "comments": {
        "original_name": "Comments",
        "value": "A potent photosensitizer; [Marks, p. 227] A skin irritant; [CAMEO] Danger of photo-contact sensitization; [MAK]",
        "links": [],
        "cross_references": []
      },
      "restricted": {
        "original_name": "Restricted",
        "value": "Use in cosmetics, soaps, and other personal products banned by the FDA. [Marks, p. 227]",
        "links": [],
        "cross_references": []
      },
      "biomedical_references": {
        "original_name": "Biomedical References",
        "value": "Search PubMed",
        "links": [
          {
            "text": "Search PubMed",
            "url": "https://www.ncbi.nlm.nih.gov/pubmed?term=Bithionol%20AND%20human%5Bmh%5D%20AND%20%28Occupational%20Diseases%20%5Bmh%5D%20OR%20Occupational%20Exposure%20%5Bmh%5D%29%20%20AND%20%28tox%5Bsb%5D%29&cmd=search"
          }
        ],
        "cross_references": []
      }
    },
    "exposure_assessment": {
      "vapor_pressure": {
        "original_name": "Vapor Pressure",
        "value": "1.1E-09 mm Hg",
        "links": [],
        "cross_references": []
      },
      "explanatory_notes": {
        "original_name": "Explanatory Notes",
        "value": "VP from HSDB;",
        "links": [],
        "cross_references": []
      }
    },
    "adverse_effects": {
      "skin_sensitizer": {
        "original_name": "Skin Sensitizer",
        "value": "Yes",
        "links": [],
        "cross_references": []
      },
      "dermatotoxin": {
        "original_name": "Dermatotoxin",
        "value": "PACD (photoallergic contact dermatitis)",
        "links": [],
        "cross_references": [
          {
            "type": "name_match",
            "text": "dermatitis",
            "confidence": 1.0,
            "uuid": "fe9c05f2-b19f-4ceb-ac7a-ffb7d7a0cae0",
            "name": "dermatitis",
            "url": "https://haz-map.com/Findings/59",
            "category": "findings"
          },
          {
            "type": "fuzzy_match",
            "text": "contact dermatitis",
            "matched_name": "Contact dermatitis, allergic",
            "confidence": 0.7214285714285715,
            "uuid": "c9499de0-9aa1-41bf-8753-cd5b28a63e29",
            "category": "diseases",
            "url": "https://haz-map.com/Diseases/18"
          }
        ]
      }
    },
    "diseases_processes_and_activities_linked_to_this_agent": {
      "diseases": {
        "original_name": "Diseases",
        "value": "Occupational diseases associated with exposure to this agent: Contact dermatitis, allergic Contact dermatitis, photoallergic",
        "links": [
          {
            "text": "Contact dermatitis, allergic",
            "url": "https://haz-map.com/Diseases/18"
          },
          {
            "text": "Contact dermatitis, photoallergic",
            "url": "https://haz-map.com/Diseases/267"
          }
        ],
        "cross_references": [
          {
            "type": "url_match",
            "text": "Contact dermatitis, allergic",
            "url": "https://haz-map.com/Diseases/18",
            "confidence": 1.0,
            "uuid": "c9499de0-9aa1-41bf-8753-cd5b28a63e29",
            "name": "Contact dermatitis, allergic",
            "category": "diseases"
          },
          {
            "type": "url_match",
            "text": "Contact dermatitis, photoallergic",
            "url": "https://haz-map.com/Diseases/267",
            "confidence": 1.0,
            "uuid": "fdc85231-99c5-48ea-8f71-fbd9ad09e496",
            "name": "Contact dermatitis, photoallergic",
            "category": "diseases"
          },
          {
            "type": "name_match",
            "text": "dermatitis",
            "confidence": 1.0,
            "uuid": "fe9c05f2-b19f-4ceb-ac7a-ffb7d7a0cae0",
            "name": "dermatitis",
            "url": "https://haz-map.com/Findings/59",
            "category": "findings"
          }
        ]
      },
      "processes": {
        "original_name": "Processes",
        "value": "Industrial Processes with risk of exposure: Farming (Pesticides) Metal Machining Using Disinfectants or Biocides",
        "links": [
          {
            "text": "Farming (Pesticides)",
            "url": "https://haz-map.com/Processes/218"
          },
          {
            "text": "Metal Machining",
            "url": "https://haz-map.com/Processes/35"
          },
          {
            "text": "Using Disinfectants or Biocides",
            "url": "https://haz-map.com/Processes/167"
          }
        ],
        "cross_references": [
          {
            "type": "url_match",
            "text": "Farming (Pesticides)",
            "url": "https://haz-map.com/Processes/218",
            "confidence": 1.0,
            "uuid": "cf1e5815-c9bb-4917-82a5-391848170b7e",
            "name": "Farming (Pesticides)",
            "category": "processes"
          },
          {
            "type": "url_match",
            "text": "Metal Machining",
            "url": "https://haz-map.com/Processes/35",
            "confidence": 1.0,
            "uuid": "742028ba-ba09-4d7c-bb80-f70af1454300",
            "name": "Metal Machining",
            "category": "processes"
          },
          {
            "type": "url_match",
            "text": "Using Disinfectants or Biocides",
            "url": "https://haz-map.com/Processes/167",
            "confidence": 1.0,
            "uuid": "7accb745-ad60-4ef8-9039-8ac4febb8fd8",
            "name": "Using Disinfectants or Biocides",
            "category": "processes"
          }
        ]
      }
    }
  },
  "cross_references": [
    {
      "type": "url_match",
      "text": "Contact dermatitis, allergic",
      "url": "https://haz-map.com/Diseases/18",
      "confidence": 1.0,
      "uuid": "c9499de0-9aa1-41bf-8753-cd5b28a63e29",
      "name": "Contact dermatitis, allergic",
      "category": "diseases"
    },
    {
      "type": "url_match",
      "text": "Contact dermatitis, photoallergic",
      "url": "https://haz-map.com/Diseases/267",
      "confidence": 1.0,
      "uuid": "fdc85231-99c5-48ea-8f71-fbd9ad09e496",
      "name": "Contact dermatitis, photoallergic",
      "category": "diseases"
    },
    {
      "type": "url_match",
      "text": "Farming (Pesticides)",
      "url": "https://haz-map.com/Processes/218",
      "confidence": 1.0,
      "uuid": "cf1e5815-c9bb-4917-82a5-391848170b7e",
      "name": "Farming (Pesticides)",
      "category": "processes"
    },
    {
      "type": "url_match",
      "text": "Metal Machining",
      "url": "https://haz-map.com/Processes/35",
      "confidence": 1.0,
      "uuid": "742028ba-ba09-4d7c-bb80-f70af1454300",
      "name": "Metal Machining",
      "category": "processes"
    },
    {
      "type": "url_match",
      "text": "Using Disinfectants or Biocides",
      "url": "https://haz-map.com/Processes/167",
      "confidence": 1.0,
      "uuid": "7accb745-ad60-4ef8-9039-8ac4febb8fd8",
      "name": "Using Disinfectants or Biocides",
      "category": "processes"
    },
    {
      "type": "name_match",
      "text": "dermatitis",
      "confidence": 1.0,
      "uuid": "fe9c05f2-b19f-4ceb-ac7a-ffb7d7a0cae0",
      "name": "dermatitis",
      "url": "https://haz-map.com/Findings/59",
      "category": "findings"
    },
    {
      "type": "name_match",
      "text": "phenol",
      "confidence": 1.0,
      "uuid": "03141a03-a7df-4f51-9a37-adde1a7c4b31",
      "name": "Phenol",
      "url": "https://haz-map.com/Agents/84",
      "category": "agents"
    },
    {
      "type": "name_match",
      "text": "fungicides",
      "confidence": 1.0,
      "uuid": "f4a9c1e1-4d57-4480-be97-d3590d38ce39",
      "name": "FUNGICIDES",
      "url": "https://haz-map.com/Agents/763",
      "category": "agents"
    },
    {
      "type": "name_match",
      "text": "bithionol",
      "confidence": 1.0,
      "uuid": "d4761015-0954-43d2-bb5c-137e01c8e8da",
      "name": "Bithionol",
      "url": "https://haz-map.com/Agents/1157",
      "category": "agents"
    },
    {
      "type": "name_match",
      "text": "dichlorophen",
      "confidence": 1.0,
      "uuid": "43441a9d-e8c4-49f1-8bbf-52d24da33df3",
      "name": "Dichlorophen",
      "url": "https://haz-map.com/Agents/1159",
      "category": "agents"
    },
    {
      "type": "name_match",
      "text": "fungi",
      "confidence": 1.0,
      "uuid": "e0d489cb-bfee-4aee-b665-999c017268a2",
      "name": "Fungi",
      "url": "https://haz-map.com/Agents/1988",
      "category": "agents"
    },
    {
      "type": "name_match",
      "text": "phenyl sulfide",
      "confidence": 1.0,
      "uuid": "57f91bec-789e-4483-bbc7-394ed3fee3c1",
      "name": "Phenyl sulfide",
      "url": "https://haz-map.com/Agents/16554",
      "category": "agents"
    },
    {
      "type": "fuzzy_match",
      "text": "6-dichlorophenol",
      "matched_name": "2,6-Dichlorophenol",
      "confidence": 0.873015873015873,
      "uuid": "f6bd0d86-f8c0-4584-b9a2-13a64a96c68c",
      "category": "agents",
      "url": "https://haz-map.com/Agents/3041"
    },
    {
      "type": "fuzzy_match",
      "text": "crystalline",
      "matched_name": "Silica, crystalline",
      "confidence": 0.7061403508771931,
      "uuid": "f920e8a2-46df-41b7-af8d-0368a777251e",
      "category": "agents",
      "url": "https://haz-map.com/Agents/427"
    }
  ],
  "all_links": [
    {
      "text": "Search PubMed",
      "url": "https://www.ncbi.nlm.nih.gov/pubmed?term=Bithionol%20AND%20human%5Bmh%5D%20AND%20%28Occupational%20Diseases%20%5Bmh%5D%20OR%20Occupational%20Exposure%20%5Bmh%5D%29%20%20AND%20%28tox%5Bsb%5D%29&cmd=search"
    },
    {
      "text": "Contact dermatitis, allergic",
      "url": "https://haz-map.com/Diseases/18"
    },
    {
      "text": "Contact dermatitis, photoallergic",
      "url": "https://haz-map.com/Diseases/267"
    },
    {
      "text": "Farming (Pesticides)",
      "url": "https://haz-map.com/Processes/218"
    },
    {
      "text": "Metal Machining",
      "url": "https://haz-map.com/Processes/35"
    },
    {
      "text": "Using Disinfectants or Biocides",
      "url": "https://haz-map.com/Processes/167"
    }
  ]
}