{
  "metadata": {
    "scraped_from": "https://haz-map.com/Agents/3935",
    "entity_name": "Bis(p-chlorophenyl)disulfide",
    "category": "agents",
    "uuid": "d49326f2-3b98-45a8-ac98-0f2406aafba0",
    "scraped_at": "2025-07-23T19:34:51.240949"
  },
  "parsed_at": "2025-07-24T01:03:23.131599",
  "title": "Bis(p-chlorophenyl)disulfide",
  "sections": {
    "general": {
      "agent_name": {
        "original_name": "Agent Name",
        "value": "Bis(p-chlorophenyl)disulfide",
        "links": [],
        "cross_references": [
          {
            "type": "name_match",
            "text": "bis(p-chlorophenyl)disulfide",
            "confidence": 1.0,
            "uuid": "d49326f2-3b98-45a8-ac98-0f2406aafba0",
            "name": "Bis(p-chlorophenyl)disulfide",
            "url": "https://haz-map.com/Agents/3935",
            "category": "agents"
          }
        ]
      },
      "cas_number": {
        "original_name": "CAS Number",
        "value": "1142-19-4",
        "links": [],
        "cross_references": []
      },
      "formula": {
        "original_name": "Formula",
        "value": "C12-H8-Cl2-S2",
        "links": [],
        "cross_references": []
      },
      "major_category": {
        "original_name": "Major Category",
        "value": "Other Classes",
        "links": [],
        "cross_references": []
      },
      "synonyms": {
        "original_name": "Synonyms",
        "value": "4,4'-Dichlorodiphenyl disulfide; Bis(4-chlorophenyl) disulfide; DDDS; DDDS (pesticide); Di(p-chlorophenyl) disulfide; Disulfide, bis(4-chlorophenyl); Disulfide, bis(p-chlorophenyl); p,p'-Dichlorodiphenyl disulfide; p-Chlorophenyl disulfide; [ChemIDplus]",
        "links": [],
        "cross_references": [
          {
            "type": "name_match",
            "text": "ddd",
            "confidence": 1.0,
            "uuid": "8a5ebfb0-ac26-44b5-a4f1-9952a03b4025",
            "name": "DDD",
            "url": "https://haz-map.com/Agents/1524",
            "category": "agents"
          },
          {
            "type": "name_match",
            "text": "diphenyl disulfide",
            "confidence": 1.0,
            "uuid": "7d368b8d-25de-4088-a4ce-2ca2bf4a7859",
            "name": "Diphenyl disulfide",
            "url": "https://haz-map.com/Agents/16546",
            "category": "agents"
          }
        ]
      },
      "category": {
        "original_name": "Category",
        "value": "Sulfur Compounds",
        "links": [],
        "cross_references": [
          {
            "type": "name_match",
            "text": "sulfur",
            "confidence": 1.0,
            "uuid": "5aabdef6-71c8-44c8-b762-feaabff50696",
            "name": "Sulfur",
            "url": "https://haz-map.com/Agents/1942",
            "category": "agents"
          }
        ]
      },
      "description": {
        "original_name": "Description",
        "value": "Insoluble in water; [ChemIDplus] Yellow crystalline flakes; [Alfa Aesar MSDS]",
        "links": [],
        "cross_references": [
          {
            "type": "name_match",
            "text": "water",
            "confidence": 1.0,
            "uuid": "6f2a7557-dfd2-49bc-9b4b-a93cd8e225d4",
            "name": "Water",
            "url": "https://haz-map.com/Agents/18668",
            "category": "agents"
          },
          {
            "type": "fuzzy_match",
            "text": "crystalline",
            "matched_name": "Silica, crystalline",
            "confidence": 0.7061403508771931,
            "uuid": "f920e8a2-46df-41b7-af8d-0368a777251e",
            "category": "agents",
            "url": "https://haz-map.com/Agents/427"
          }
        ]
      },
      "comments": {
        "original_name": "Comments",
        "value": "Emergency treatment: \"Mustard gas\"; Impure sulfur mustard is called \"H\"; Distilled sulfur mustard is called \"HD\"; [HSDB] May cause irritation; [Alfa Aesar MSDS] See \"Bis(2-chloroethyl)sulfide.\"",
        "links": [],
        "cross_references": [
          {
            "type": "name_match",
            "text": "bis(2-chloroethyl)sulfide",
            "confidence": 1.0,
            "uuid": "08b88f38-f74d-48ca-b8b6-e190ab3cf19c",
            "name": "Bis(2-chloroethyl)sulfide",
            "url": "https://haz-map.com/Agents/1450",
            "category": "agents"
          },
          {
            "type": "name_match",
            "text": "sulfur",
            "confidence": 1.0,
            "uuid": "5aabdef6-71c8-44c8-b762-feaabff50696",
            "name": "Sulfur",
            "url": "https://haz-map.com/Agents/1942",
            "category": "agents"
          }
        ]
      },
      "biomedical_references": {
        "original_name": "Biomedical References",
        "value": "Search PubMed",
        "links": [
          {
            "text": "Search PubMed",
            "url": "https://www.ncbi.nlm.nih.gov/pubmed?term=Bis(p-chlorophenyl)disulfide%20AND%20human%5Bmh%5D%20AND%20%28Occupational%20Diseases%20%5Bmh%5D%20OR%20Occupational%20Exposure%20%5Bmh%5D%29%20%20AND%20%28tox%5Bsb%5D%29&cmd=search"
          }
        ],
        "cross_references": []
      }
    },
    "exposure_assessment": {
      "vapor_pressure": {
        "original_name": "Vapor Pressure",
        "value": "3.64E-06 mm Hg",
        "links": [],
        "cross_references": []
      }
    },
    "diseases_processes_and_activities_linked_to_this_agent": {
      "other_information": {
        "original_name": "Other Information",
        "value": "No other related information on this agent was found.",
        "links": [],
        "cross_references": []
      }
    }
  },
  "cross_references": [
    {
      "type": "name_match",
      "text": "bis(2-chloroethyl)sulfide",
      "confidence": 1.0,
      "uuid": "08b88f38-f74d-48ca-b8b6-e190ab3cf19c",
      "name": "Bis(2-chloroethyl)sulfide",
      "url": "https://haz-map.com/Agents/1450",
      "category": "agents"
    },
    {
      "type": "name_match",
      "text": "ddd",
      "confidence": 1.0,
      "uuid": "8a5ebfb0-ac26-44b5-a4f1-9952a03b4025",
      "name": "DDD",
      "url": "https://haz-map.com/Agents/1524",
      "category": "agents"
    },
    {
      "type": "name_match",
      "text": "sulfur",
      "confidence": 1.0,
      "uuid": "5aabdef6-71c8-44c8-b762-feaabff50696",
      "name": "Sulfur",
      "url": "https://haz-map.com/Agents/1942",
      "category": "agents"
    },
    {
      "type": "name_match",
      "text": "bis(p-chlorophenyl)disulfide",
      "confidence": 1.0,
      "uuid": "d49326f2-3b98-45a8-ac98-0f2406aafba0",
      "name": "Bis(p-chlorophenyl)disulfide",
      "url": "https://haz-map.com/Agents/3935",
      "category": "agents"
    },
    {
      "type": "name_match",
      "text": "diphenyl disulfide",
      "confidence": 1.0,
      "uuid": "7d368b8d-25de-4088-a4ce-2ca2bf4a7859",
      "name": "Diphenyl disulfide",
      "url": "https://haz-map.com/Agents/16546",
      "category": "agents"
    },
    {
      "type": "name_match",
      "text": "water",
      "confidence": 1.0,
      "uuid": "6f2a7557-dfd2-49bc-9b4b-a93cd8e225d4",
      "name": "Water",
      "url": "https://haz-map.com/Agents/18668",
      "category": "agents"
    },
    {
      "type": "fuzzy_match",
      "text": "crystalline",
      "matched_name": "Silica, crystalline",
      "confidence": 0.7061403508771931,
      "uuid": "f920e8a2-46df-41b7-af8d-0368a777251e",
      "category": "agents",
      "url": "https://haz-map.com/Agents/427"
    }
  ],
  "all_links": [
    {
      "text": "Search PubMed",
      "url": "https://www.ncbi.nlm.nih.gov/pubmed?term=Bis(p-chlorophenyl)disulfide%20AND%20human%5Bmh%5D%20AND%20%28Occupational%20Diseases%20%5Bmh%5D%20OR%20Occupational%20Exposure%20%5Bmh%5D%29%20%20AND%20%28tox%5Bsb%5D%29&cmd=search"
    }
  ]
}