{
  "metadata": {
    "scraped_from": "https://haz-map.com/Agents/9818",
    "entity_name": "1,1,5,5-Tetraphenyl-1,3,3,5-tetramethyltrisiloxane",
    "category": "agents",
    "uuid": "d4e4c7a4-de96-448d-b422-f12b71c41da4",
    "scraped_at": "2025-07-23T20:42:41.153776"
  },
  "parsed_at": "2025-07-24T01:03:03.030028",
  "title": "1,1,5,5-Tetraphenyl-1,3,3,5-tetramethyltrisiloxane",
  "sections": {
    "general": {
      "agent_name": {
        "original_name": "Agent Name",
        "value": "1,1,5,5-Tetraphenyl-1,3,3,5-tetramethyltrisiloxane",
        "links": [],
        "cross_references": [
          {
            "type": "name_match",
            "text": "1,1,5,5-tetraphenyl-1,3,3,5-tetramethyltrisiloxane",
            "confidence": 1.0,
            "uuid": "d4e4c7a4-de96-448d-b422-f12b71c41da4",
            "name": "1,1,5,5-Tetraphenyl-1,3,3,5-tetramethyltrisiloxane",
            "url": "https://haz-map.com/Agents/9818",
            "category": "agents"
          }
        ]
      },
      "cas_number": {
        "original_name": "CAS Number",
        "value": "3982-82-9",
        "links": [],
        "cross_references": []
      },
      "formula": {
        "original_name": "Formula",
        "value": "C28-H32-O2-Si3",
        "links": [],
        "cross_references": []
      },
      "major_category": {
        "original_name": "Major Category",
        "value": "Metals",
        "links": [],
        "cross_references": []
      },
      "synonyms": {
        "original_name": "Synonyms",
        "value": "1,3,3,5-Tetramethyl-1,1,5,5-tetraphenyltrisiloxane; Trisiloxane, 1,3,3,5-tetramethyl-1,1,5,5-tetraphenyl-; [ChemIDplus] Dow Corning Silicone Diffusion Pump Fluids 704; [Aldrich MSDS]",
        "links": [],
        "cross_references": [
          {
            "type": "name_match",
            "text": "silicon",
            "confidence": 1.0,
            "uuid": "443f4405-7a1f-47db-bf43-809557f77483",
            "name": "Silicon",
            "url": "https://haz-map.com/Agents/623",
            "category": "agents"
          }
        ]
      },
      "category": {
        "original_name": "Category",
        "value": "Metalloid Compounds (Silicon)",
        "links": [],
        "cross_references": [
          {
            "type": "name_match",
            "text": "silicon",
            "confidence": 1.0,
            "uuid": "443f4405-7a1f-47db-bf43-809557f77483",
            "name": "Silicon",
            "url": "https://haz-map.com/Agents/623",
            "category": "agents"
          }
        ]
      },
      "description": {
        "original_name": "Description",
        "value": "Colorless to pale yellow liquid; [Aldrich MSDS]",
        "links": [],
        "cross_references": []
      },
      "comments": {
        "original_name": "Comments",
        "value": "An irritant; [Aldrich MSDS]",
        "links": [],
        "cross_references": []
      },
      "biomedical_references": {
        "original_name": "Biomedical References",
        "value": "Search PubMed",
        "links": [
          {
            "text": "Search PubMed",
            "url": "https://www.ncbi.nlm.nih.gov/pubmed?term=1%2c1%2c5%2c5-Tetraphenyl-1%2c3%2c3%2c5-tetramethyltrisiloxane%20AND%20human%5Bmh%5D%20AND%20%28Occupational%20Diseases%20%5Bmh%5D%20OR%20Occupational%20Exposure%20%5Bmh%5D%29%20%20AND%20%28tox%5Bsb%5D%29&cmd=search"
          }
        ],
        "cross_references": []
      }
    },
    "exposure_assessment": {
      "vapor_pressure": {
        "original_name": "Vapor Pressure",
        "value": "5.86E-10 mm Hg",
        "links": [],
        "cross_references": []
      }
    },
    "diseases_processes_and_activities_linked_to_this_agent": {
      "other_information": {
        "original_name": "Other Information",
        "value": "No other related information on this agent was found.",
        "links": [],
        "cross_references": []
      }
    }
  },
  "cross_references": [
    {
      "type": "name_match",
      "text": "silicon",
      "confidence": 1.0,
      "uuid": "443f4405-7a1f-47db-bf43-809557f77483",
      "name": "Silicon",
      "url": "https://haz-map.com/Agents/623",
      "category": "agents"
    },
    {
      "type": "name_match",
      "text": "1,1,5,5-tetraphenyl-1,3,3,5-tetramethyltrisiloxane",
      "confidence": 1.0,
      "uuid": "d4e4c7a4-de96-448d-b422-f12b71c41da4",
      "name": "1,1,5,5-Tetraphenyl-1,3,3,5-tetramethyltrisiloxane",
      "url": "https://haz-map.com/Agents/9818",
      "category": "agents"
    }
  ],
  "all_links": [
    {
      "text": "Search PubMed",
      "url": "https://www.ncbi.nlm.nih.gov/pubmed?term=1%2c1%2c5%2c5-Tetraphenyl-1%2c3%2c3%2c5-tetramethyltrisiloxane%20AND%20human%5Bmh%5D%20AND%20%28Occupational%20Diseases%20%5Bmh%5D%20OR%20Occupational%20Exposure%20%5Bmh%5D%29%20%20AND%20%28tox%5Bsb%5D%29&cmd=search"
    }
  ]
}