{
  "metadata": {
    "scraped_from": "https://haz-map.com/Agents/20824",
    "entity_name": "Methyl 4-bromobenzoate",
    "category": "agents",
    "uuid": "d528393b-1d4d-4d11-936c-58f909c96cad",
    "scraped_at": "2025-07-23T22:32:29.444453"
  },
  "parsed_at": "2025-07-24T01:02:10.341983",
  "title": "Methyl 4-bromobenzoate",
  "sections": {
    "general": {
      "agent_name": {
        "original_name": "Agent Name",
        "value": "Methyl 4-bromobenzoate",
        "links": [],
        "cross_references": [
          {
            "type": "name_match",
            "text": "methyl 4-bromobenzoate",
            "confidence": 1.0,
            "uuid": "d528393b-1d4d-4d11-936c-58f909c96cad",
            "name": "Methyl 4-bromobenzoate",
            "url": "https://haz-map.com/Agents/20824",
            "category": "agents"
          }
        ]
      },
      "cas_number": {
        "original_name": "CAS Number",
        "value": "619-42-1",
        "links": [],
        "cross_references": []
      },
      "formula": {
        "original_name": "Formula",
        "value": "C8-H7-Br-O2",
        "links": [],
        "cross_references": []
      },
      "major_category": {
        "original_name": "Major Category",
        "value": "Other Classes",
        "links": [],
        "cross_references": []
      },
      "synonyms": {
        "original_name": "Synonyms",
        "value": "Methyl p-bromobenzoate; p-Bromobenzoic acid, methyl ester; Benzoic acid, 4-bromo-, methyl ester; Benzoic acid, p-bromo-, methyl ester (8CI); [ChemIDplus]",
        "links": [],
        "cross_references": [
          {
            "type": "name_match",
            "text": "benzoic acid",
            "confidence": 1.0,
            "uuid": "d2c5d3be-d826-4f55-bc32-7b16821aef40",
            "name": "Benzoic acid",
            "url": "https://haz-map.com/Agents/1883",
            "category": "agents"
          },
          {
            "type": "name_match",
            "text": "p-bromobenzoic acid",
            "confidence": 1.0,
            "uuid": "620b6dcb-cc38-49f5-9ec5-3ce1e7f6d8be",
            "name": "p-Bromobenzoic acid",
            "url": "https://haz-map.com/Agents/9667",
            "category": "agents"
          }
        ]
      },
      "category": {
        "original_name": "Category",
        "value": "Halogenated Esters",
        "links": [],
        "cross_references": []
      },
      "description": {
        "original_name": "Description",
        "value": "Powder; [Alfa Aesar MSDS]",
        "links": [],
        "cross_references": []
      },
      "comments": {
        "original_name": "Comments",
        "value": "May cause irritation; [Alfa Aesar MSDS]",
        "links": [],
        "cross_references": []
      },
      "biomedical_references": {
        "original_name": "Biomedical References",
        "value": "Search PubMed",
        "links": [
          {
            "text": "Search PubMed",
            "url": "https://www.ncbi.nlm.nih.gov/pubmed?term=Methyl+4-bromobenzoate%20AND%20human%5Bmh%5D%20AND%20%28Occupational%20Diseases%20%5Bmh%5D%20OR%20Occupational%20Exposure%20%5Bmh%5D%29%20%20AND%20%28tox%5Bsb%5D%29&cmd=search"
          }
        ],
        "cross_references": []
      }
    },
    "exposure_assessment": {
      "vapor_pressure": {
        "original_name": "Vapor Pressure",
        "value": "0.025 mm Hg",
        "links": [],
        "cross_references": []
      }
    },
    "diseases_processes_and_activities_linked_to_this_agent": {
      "other_information": {
        "original_name": "Other Information",
        "value": "No other related information on this agent was found.",
        "links": [],
        "cross_references": []
      }
    }
  },
  "cross_references": [
    {
      "type": "name_match",
      "text": "benzoic acid",
      "confidence": 1.0,
      "uuid": "d2c5d3be-d826-4f55-bc32-7b16821aef40",
      "name": "Benzoic acid",
      "url": "https://haz-map.com/Agents/1883",
      "category": "agents"
    },
    {
      "type": "name_match",
      "text": "p-bromobenzoic acid",
      "confidence": 1.0,
      "uuid": "620b6dcb-cc38-49f5-9ec5-3ce1e7f6d8be",
      "name": "p-Bromobenzoic acid",
      "url": "https://haz-map.com/Agents/9667",
      "category": "agents"
    },
    {
      "type": "name_match",
      "text": "methyl 4-bromobenzoate",
      "confidence": 1.0,
      "uuid": "d528393b-1d4d-4d11-936c-58f909c96cad",
      "name": "Methyl 4-bromobenzoate",
      "url": "https://haz-map.com/Agents/20824",
      "category": "agents"
    }
  ],
  "all_links": [
    {
      "text": "Search PubMed",
      "url": "https://www.ncbi.nlm.nih.gov/pubmed?term=Methyl+4-bromobenzoate%20AND%20human%5Bmh%5D%20AND%20%28Occupational%20Diseases%20%5Bmh%5D%20OR%20Occupational%20Exposure%20%5Bmh%5D%29%20%20AND%20%28tox%5Bsb%5D%29&cmd=search"
    }
  ]
}