{
  "metadata": {
    "scraped_from": "https://haz-map.com/Agents/6868",
    "entity_name": "2-Phenylethyl propionate",
    "category": "agents",
    "uuid": "d52a19cf-f9f5-4086-b440-85d21551d1b0",
    "scraped_at": "2025-07-23T20:06:28.412138"
  },
  "parsed_at": "2025-07-24T01:18:11.234807",
  "title": "2-Phenylethyl propionate",
  "sections": {
    "general": {
      "agent_name": {
        "original_name": "Agent Name",
        "value": "2-Phenylethyl propionate",
        "links": [],
        "cross_references": [
          {
            "type": "name_match",
            "text": "ethyl propionate",
            "confidence": 1.0,
            "uuid": "03fca02e-8d89-429a-88d0-077067dd26c0",
            "name": "Ethyl propionate",
            "url": "https://haz-map.com/Agents/5251",
            "category": "agents"
          },
          {
            "type": "name_match",
            "text": "2-phenylethyl propionate",
            "confidence": 1.0,
            "uuid": "d52a19cf-f9f5-4086-b440-85d21551d1b0",
            "name": "2-Phenylethyl propionate",
            "url": "https://haz-map.com/Agents/6868",
            "category": "agents"
          }
        ]
      },
      "cas_number": {
        "original_name": "CAS Number",
        "value": "122-70-3",
        "links": [],
        "cross_references": []
      },
      "formula": {
        "original_name": "Formula",
        "value": "C11-H14-O2",
        "links": [],
        "cross_references": []
      },
      "major_category": {
        "original_name": "Major Category",
        "value": "Other Classes",
        "links": [],
        "cross_references": []
      },
      "synonyms": {
        "original_name": "Synonyms",
        "value": "2-Phenethyl propionate; 2-Phenethylpropionate; 2-Phenylethyl propanoate; Benzylcarbinyl propionate; ENT 18544; EcoPCO ACU; Japanese Beetle Bait; Phenethyl alcohol, propionate; Phenethyl propanoate; Phenethyl propionate; Phenethyl propionate (natural); Phenylethyl propionate; Propanoic acid, 2-phenylethyl ester; Propionic acid, phenethyl ester; [ChemIDplus]",
        "links": [],
        "cross_references": [
          {
            "type": "name_match",
            "text": "ethyl alcohol",
            "confidence": 1.0,
            "uuid": "9e039165-5b7c-44a7-afb2-dcf3c15e7a99",
            "name": "Ethyl alcohol",
            "url": "https://haz-map.com/Agents/481",
            "category": "agents"
          },
          {
            "type": "name_match",
            "text": "propionic acid",
            "confidence": 1.0,
            "uuid": "519c4d0a-ac6f-4f79-a08f-47ebc278e0b4",
            "name": "Propionic acid",
            "url": "https://haz-map.com/Agents/609",
            "category": "agents"
          },
          {
            "type": "name_match",
            "text": "ethyl propionate",
            "confidence": 1.0,
            "uuid": "03fca02e-8d89-429a-88d0-077067dd26c0",
            "name": "Ethyl propionate",
            "url": "https://haz-map.com/Agents/5251",
            "category": "agents"
          }
        ]
      },
      "category": {
        "original_name": "Category",
        "value": "Esters, Other",
        "links": [],
        "cross_references": []
      },
      "description": {
        "original_name": "Description",
        "value": "Colorless liquid with an odor of flowers or fruit; [HSDB]",
        "links": [],
        "cross_references": []
      },
      "sourcesuses": {
        "original_name": "Sources/Uses",
        "value": "Used as an insect attractant of Japanese beetles in orchards; [HSDB] Used as flavoring agent or adjuvant; [ToxPlanet: FDA]",
        "links": [],
        "cross_references": [
          {
            "type": "name_match",
            "text": "beetles",
            "confidence": 1.0,
            "uuid": "44c69fd7-a131-4096-9887-460d05d01a06",
            "name": "Beetles",
            "url": "https://haz-map.com/Agents/1215",
            "category": "agents"
          }
        ]
      },
      "comments": {
        "original_name": "Comments",
        "value": "Safe when used as a flavoring agent in food; [JECFA] An irritant; [MSDSonline]",
        "links": [],
        "cross_references": []
      },
      "biomedical_references": {
        "original_name": "Biomedical References",
        "value": "Search PubMed",
        "links": [
          {
            "text": "Search PubMed",
            "url": "https://www.ncbi.nlm.nih.gov/pubmed?term=2-Phenylethyl+propionate%20AND%20human%5Bmh%5D%20AND%20%28Occupational%20Diseases%20%5Bmh%5D%20OR%20Occupational%20Exposure%20%5Bmh%5D%29%20%20AND%20%28tox%5Bsb%5D%29&cmd=search"
          }
        ],
        "cross_references": []
      }
    },
    "exposure_assessment": {
      "vapor_pressure": {
        "original_name": "Vapor Pressure",
        "value": "0.051 mm Hg",
        "links": [],
        "cross_references": []
      }
    },
    "diseases_processes_and_activities_linked_to_this_agent": {
      "other_information": {
        "original_name": "Other Information",
        "value": "No other related information on this agent was found.",
        "links": [],
        "cross_references": []
      }
    }
  },
  "cross_references": [
    {
      "type": "name_match",
      "text": "ethyl alcohol",
      "confidence": 1.0,
      "uuid": "9e039165-5b7c-44a7-afb2-dcf3c15e7a99",
      "name": "Ethyl alcohol",
      "url": "https://haz-map.com/Agents/481",
      "category": "agents"
    },
    {
      "type": "name_match",
      "text": "propionic acid",
      "confidence": 1.0,
      "uuid": "519c4d0a-ac6f-4f79-a08f-47ebc278e0b4",
      "name": "Propionic acid",
      "url": "https://haz-map.com/Agents/609",
      "category": "agents"
    },
    {
      "type": "name_match",
      "text": "beetles",
      "confidence": 1.0,
      "uuid": "44c69fd7-a131-4096-9887-460d05d01a06",
      "name": "Beetles",
      "url": "https://haz-map.com/Agents/1215",
      "category": "agents"
    },
    {
      "type": "name_match",
      "text": "ethyl propionate",
      "confidence": 1.0,
      "uuid": "03fca02e-8d89-429a-88d0-077067dd26c0",
      "name": "Ethyl propionate",
      "url": "https://haz-map.com/Agents/5251",
      "category": "agents"
    },
    {
      "type": "name_match",
      "text": "2-phenylethyl propionate",
      "confidence": 1.0,
      "uuid": "d52a19cf-f9f5-4086-b440-85d21551d1b0",
      "name": "2-Phenylethyl propionate",
      "url": "https://haz-map.com/Agents/6868",
      "category": "agents"
    }
  ],
  "all_links": [
    {
      "text": "Search PubMed",
      "url": "https://www.ncbi.nlm.nih.gov/pubmed?term=2-Phenylethyl+propionate%20AND%20human%5Bmh%5D%20AND%20%28Occupational%20Diseases%20%5Bmh%5D%20OR%20Occupational%20Exposure%20%5Bmh%5D%29%20%20AND%20%28tox%5Bsb%5D%29&cmd=search"
    }
  ]
}