{
  "metadata": {
    "scraped_from": "https://haz-map.com/Agents/19481",
    "entity_name": "2,5-Dibromothiophene",
    "category": "agents",
    "uuid": "d548032a-d41b-4d05-973a-3cc320318093",
    "scraped_at": "2025-07-23T22:07:00.600076"
  },
  "parsed_at": "2025-07-24T01:09:09.302842",
  "title": "2,5-Dibromothiophene",
  "sections": {
    "general": {
      "agent_name": {
        "original_name": "Agent Name",
        "value": "2,5-Dibromothiophene",
        "links": [],
        "cross_references": [
          {
            "type": "name_match",
            "text": "moth",
            "confidence": 1.0,
            "uuid": "14a33a40-8ea5-4ef5-b71a-3731a9d4ba32",
            "name": "Moth",
            "url": "https://haz-map.com/Agents/907",
            "category": "agents"
          },
          {
            "type": "name_match",
            "text": "thiophene",
            "confidence": 1.0,
            "uuid": "f7ccd5a0-b31f-419d-b64f-3472ae89f92f",
            "name": "Thiophene",
            "url": "https://haz-map.com/Agents/1479",
            "category": "agents"
          },
          {
            "type": "name_match",
            "text": "2,5-dibromothiophene",
            "confidence": 1.0,
            "uuid": "d548032a-d41b-4d05-973a-3cc320318093",
            "name": "2,5-Dibromothiophene",
            "url": "https://haz-map.com/Agents/19481",
            "category": "agents"
          }
        ]
      },
      "cas_number": {
        "original_name": "CAS Number",
        "value": "3141-27-3",
        "links": [],
        "cross_references": []
      },
      "formula": {
        "original_name": "Formula",
        "value": "C4-H2-Br2-S",
        "links": [],
        "cross_references": []
      },
      "major_category": {
        "original_name": "Major Category",
        "value": "Other Classes",
        "links": [],
        "cross_references": []
      },
      "synonyms": {
        "original_name": "Synonyms",
        "value": "Thiophene, 2,5-dibromo-; [ChemIDplus]",
        "links": [],
        "cross_references": [
          {
            "type": "name_match",
            "text": "thiophene",
            "confidence": 1.0,
            "uuid": "f7ccd5a0-b31f-419d-b64f-3472ae89f92f",
            "name": "Thiophene",
            "url": "https://haz-map.com/Agents/1479",
            "category": "agents"
          }
        ]
      },
      "category": {
        "original_name": "Category",
        "value": "Thiophenes",
        "links": [],
        "cross_references": [
          {
            "type": "name_match",
            "text": "thiophene",
            "confidence": 1.0,
            "uuid": "f7ccd5a0-b31f-419d-b64f-3472ae89f92f",
            "name": "Thiophene",
            "url": "https://haz-map.com/Agents/1479",
            "category": "agents"
          }
        ]
      },
      "description": {
        "original_name": "Description",
        "value": "Liquid; [Sigma-Aldrich MSDS]",
        "links": [],
        "cross_references": []
      },
      "comments": {
        "original_name": "Comments",
        "value": "A skin and strong eye irritant; [Sigma-Aldrich MSDS] See \"2,5-Dichlorothiophene.\"",
        "links": [],
        "cross_references": [
          {
            "type": "name_match",
            "text": "thiophene",
            "confidence": 1.0,
            "uuid": "f7ccd5a0-b31f-419d-b64f-3472ae89f92f",
            "name": "Thiophene",
            "url": "https://haz-map.com/Agents/1479",
            "category": "agents"
          },
          {
            "type": "name_match",
            "text": "2,5-dichlorothiophene",
            "confidence": 1.0,
            "uuid": "4831310c-715a-4244-98b2-ce2d3119379c",
            "name": "2,5-Dichlorothiophene",
            "url": "https://haz-map.com/Agents/19484",
            "category": "agents"
          }
        ]
      },
      "biomedical_references": {
        "original_name": "Biomedical References",
        "value": "Search PubMed",
        "links": [
          {
            "text": "Search PubMed",
            "url": "https://www.ncbi.nlm.nih.gov/pubmed?term=2%2c5-Dibromothiophene%20AND%20human%5Bmh%5D%20AND%20%28Occupational%20Diseases%20%5Bmh%5D%20OR%20Occupational%20Exposure%20%5Bmh%5D%29%20%20AND%20%28tox%5Bsb%5D%29&cmd=search"
          }
        ],
        "cross_references": []
      }
    },
    "exposure_assessment": {
      "vapor_pressure": {
        "original_name": "Vapor Pressure",
        "value": "0.069 mm Hg",
        "links": [],
        "cross_references": []
      }
    },
    "diseases_processes_and_activities_linked_to_this_agent": {
      "other_information": {
        "original_name": "Other Information",
        "value": "No other related information on this agent was found.",
        "links": [],
        "cross_references": []
      }
    }
  },
  "cross_references": [
    {
      "type": "name_match",
      "text": "moth",
      "confidence": 1.0,
      "uuid": "14a33a40-8ea5-4ef5-b71a-3731a9d4ba32",
      "name": "Moth",
      "url": "https://haz-map.com/Agents/907",
      "category": "agents"
    },
    {
      "type": "name_match",
      "text": "thiophene",
      "confidence": 1.0,
      "uuid": "f7ccd5a0-b31f-419d-b64f-3472ae89f92f",
      "name": "Thiophene",
      "url": "https://haz-map.com/Agents/1479",
      "category": "agents"
    },
    {
      "type": "name_match",
      "text": "2,5-dibromothiophene",
      "confidence": 1.0,
      "uuid": "d548032a-d41b-4d05-973a-3cc320318093",
      "name": "2,5-Dibromothiophene",
      "url": "https://haz-map.com/Agents/19481",
      "category": "agents"
    },
    {
      "type": "name_match",
      "text": "2,5-dichlorothiophene",
      "confidence": 1.0,
      "uuid": "4831310c-715a-4244-98b2-ce2d3119379c",
      "name": "2,5-Dichlorothiophene",
      "url": "https://haz-map.com/Agents/19484",
      "category": "agents"
    }
  ],
  "all_links": [
    {
      "text": "Search PubMed",
      "url": "https://www.ncbi.nlm.nih.gov/pubmed?term=2%2c5-Dibromothiophene%20AND%20human%5Bmh%5D%20AND%20%28Occupational%20Diseases%20%5Bmh%5D%20OR%20Occupational%20Exposure%20%5Bmh%5D%29%20%20AND%20%28tox%5Bsb%5D%29&cmd=search"
    }
  ]
}