{
  "metadata": {
    "scraped_from": "https://haz-map.com/Agents/10403",
    "entity_name": "2,5-Dimethylthiophene",
    "category": "agents",
    "uuid": "d578a8d2-5672-43a6-b9bb-bf2562f02440",
    "scraped_at": "2025-07-23T20:47:03.355852"
  },
  "parsed_at": "2025-07-24T01:03:07.928134",
  "title": "2,5-Dimethylthiophene",
  "sections": {
    "general": {
      "agent_name": {
        "original_name": "Agent Name",
        "value": "2,5-Dimethylthiophene",
        "links": [],
        "cross_references": [
          {
            "type": "name_match",
            "text": "thiophene",
            "confidence": 1.0,
            "uuid": "f7ccd5a0-b31f-419d-b64f-3472ae89f92f",
            "name": "Thiophene",
            "url": "https://haz-map.com/Agents/1479",
            "category": "agents"
          },
          {
            "type": "name_match",
            "text": "2,5-dimethylthiophene",
            "confidence": 1.0,
            "uuid": "d578a8d2-5672-43a6-b9bb-bf2562f02440",
            "name": "2,5-Dimethylthiophene",
            "url": "https://haz-map.com/Agents/10403",
            "category": "agents"
          }
        ]
      },
      "cas_number": {
        "original_name": "CAS Number",
        "value": "638-02-8",
        "links": [],
        "cross_references": []
      },
      "formula": {
        "original_name": "Formula",
        "value": "C6-H8-S",
        "links": [],
        "cross_references": []
      },
      "major_category": {
        "original_name": "Major Category",
        "value": "Other Classes",
        "links": [],
        "cross_references": []
      },
      "synonyms": {
        "original_name": "Synonyms",
        "value": "Thiophene, 2,5-dimethyl-; [ChemIDplus] UN1993",
        "links": [],
        "cross_references": [
          {
            "type": "name_match",
            "text": "thiophene",
            "confidence": 1.0,
            "uuid": "f7ccd5a0-b31f-419d-b64f-3472ae89f92f",
            "name": "Thiophene",
            "url": "https://haz-map.com/Agents/1479",
            "category": "agents"
          }
        ]
      },
      "category": {
        "original_name": "Category",
        "value": "Thiophenes",
        "links": [],
        "cross_references": [
          {
            "type": "name_match",
            "text": "thiophene",
            "confidence": 1.0,
            "uuid": "f7ccd5a0-b31f-419d-b64f-3472ae89f92f",
            "name": "Thiophene",
            "url": "https://haz-map.com/Agents/1479",
            "category": "agents"
          }
        ]
      },
      "description": {
        "original_name": "Description",
        "value": "Colorless liquid; [Alfa Aesar MSDS]",
        "links": [],
        "cross_references": []
      },
      "comments": {
        "original_name": "Comments",
        "value": "May cause irritation; Harmful by inhalation; [Alfa Aesar MSDS] See \"Thiophene.\"",
        "links": [],
        "cross_references": [
          {
            "type": "name_match",
            "text": "thiophene",
            "confidence": 1.0,
            "uuid": "f7ccd5a0-b31f-419d-b64f-3472ae89f92f",
            "name": "Thiophene",
            "url": "https://haz-map.com/Agents/1479",
            "category": "agents"
          }
        ]
      },
      "biomedical_references": {
        "original_name": "Biomedical References",
        "value": "Search PubMed",
        "links": [
          {
            "text": "Search PubMed",
            "url": "https://www.ncbi.nlm.nih.gov/pubmed?term=2%2c5-Dimethylthiophene%20AND%20human%5Bmh%5D%20AND%20%28Occupational%20Diseases%20%5Bmh%5D%20OR%20Occupational%20Exposure%20%5Bmh%5D%29%20%20AND%20%28tox%5Bsb%5D%29&cmd=search"
          }
        ],
        "cross_references": []
      }
    },
    "exposure_assessment": {
      "vapor_pressure": {
        "original_name": "Vapor Pressure",
        "value": "3 mm Hg",
        "links": [],
        "cross_references": []
      },
      "explanatory_notes": {
        "original_name": "Explanatory Notes",
        "value": "The Guide in the Emergency Response Guidebook is for \"Flammable liquid, n.o.s.\"",
        "links": [],
        "cross_references": []
      }
    },
    "diseases_processes_and_activities_linked_to_this_agent": {
      "other_information": {
        "original_name": "Other Information",
        "value": "No other related information on this agent was found.",
        "links": [],
        "cross_references": []
      }
    }
  },
  "cross_references": [
    {
      "type": "name_match",
      "text": "thiophene",
      "confidence": 1.0,
      "uuid": "f7ccd5a0-b31f-419d-b64f-3472ae89f92f",
      "name": "Thiophene",
      "url": "https://haz-map.com/Agents/1479",
      "category": "agents"
    },
    {
      "type": "name_match",
      "text": "2,5-dimethylthiophene",
      "confidence": 1.0,
      "uuid": "d578a8d2-5672-43a6-b9bb-bf2562f02440",
      "name": "2,5-Dimethylthiophene",
      "url": "https://haz-map.com/Agents/10403",
      "category": "agents"
    }
  ],
  "all_links": [
    {
      "text": "Search PubMed",
      "url": "https://www.ncbi.nlm.nih.gov/pubmed?term=2%2c5-Dimethylthiophene%20AND%20human%5Bmh%5D%20AND%20%28Occupational%20Diseases%20%5Bmh%5D%20OR%20Occupational%20Exposure%20%5Bmh%5D%29%20%20AND%20%28tox%5Bsb%5D%29&cmd=search"
    }
  ]
}