{
  "metadata": {
    "scraped_from": "https://haz-map.com/Agents/17038",
    "entity_name": "Pyridoxal",
    "category": "agents",
    "uuid": "d5882a3b-2dcb-4b88-8f59-6d2507563cdb",
    "scraped_at": "2025-07-23T21:42:53.704449"
  },
  "parsed_at": "2025-07-24T01:08:10.209836",
  "title": "Pyridoxal",
  "sections": {
    "general": {
      "agent_name": {
        "original_name": "Agent Name",
        "value": "Pyridoxal",
        "links": [],
        "cross_references": [
          {
            "type": "name_match",
            "text": "pyridoxal",
            "confidence": 1.0,
            "uuid": "d5882a3b-2dcb-4b88-8f59-6d2507563cdb",
            "name": "Pyridoxal",
            "url": "https://haz-map.com/Agents/17038",
            "category": "agents"
          }
        ]
      },
      "cas_number": {
        "original_name": "CAS Number",
        "value": "66-72-8",
        "links": [],
        "cross_references": []
      },
      "formula": {
        "original_name": "Formula",
        "value": "C8-H9-N-O3",
        "links": [],
        "cross_references": []
      },
      "major_category": {
        "original_name": "Major Category",
        "value": "Biological Agents",
        "links": [],
        "cross_references": []
      },
      "synonyms": {
        "original_name": "Synonyms",
        "value": "3-Hydroxy-5-hydroxymethyl-2-methyl-4-pyridincarbaldehyd; Pyridoxaldehyde; 4-Pyridinecarboxaldehyde, 3-hydroxy-5-(hydroxymethyl)-2-methyl-; [ChemIDplus] 3-Hydroxy-5-(hydroxymethyl)-2-methyl-4-pyridinecarboxaldehyde; 3-Hydroxy-5-(hydroxymethyl)-2-methylisonicotinaldehyde; 2-Methyl-3-hydroxy-4-formyl-5-hydroxymethylpyridine; [Merck Index]",
        "links": [],
        "cross_references": [
          {
            "type": "name_match",
            "text": "pyridine",
            "confidence": 1.0,
            "uuid": "a2d916a4-844b-4df6-9be5-868b2b364d71",
            "name": "Pyridine",
            "url": "https://haz-map.com/Agents/616",
            "category": "agents"
          },
          {
            "type": "name_match",
            "text": "methylpyridine",
            "confidence": 1.0,
            "uuid": "4c8f8772-01ae-4de4-8af0-71733c0aaad4",
            "name": "Methylpyridine",
            "url": "https://haz-map.com/Agents/1496",
            "category": "agents"
          },
          {
            "type": "name_match",
            "text": "pyridoxal",
            "confidence": 1.0,
            "uuid": "d5882a3b-2dcb-4b88-8f59-6d2507563cdb",
            "name": "Pyridoxal",
            "url": "https://haz-map.com/Agents/17038",
            "category": "agents"
          },
          {
            "type": "name_match",
            "text": "4-pyridinecarboxaldehyde",
            "confidence": 1.0,
            "uuid": "3861a409-d375-4fe6-988f-65c1a26e25e9",
            "name": "4-Pyridinecarboxaldehyde",
            "url": "https://haz-map.com/Agents/20088",
            "category": "agents"
          }
        ]
      },
      "category": {
        "original_name": "Category",
        "value": "Vitamins and Derivatives",
        "links": [],
        "cross_references": []
      },
      "sourcesuses": {
        "original_name": "Sources/Uses",
        "value": "The 4-carboxyaldehyde form of vitamin B6 that is converted to the coenzyme pyridoxal phosphate; [ChemIDplus]",
        "links": [],
        "cross_references": [
          {
            "type": "name_match",
            "text": "pyridoxal",
            "confidence": 1.0,
            "uuid": "d5882a3b-2dcb-4b88-8f59-6d2507563cdb",
            "name": "Pyridoxal",
            "url": "https://haz-map.com/Agents/17038",
            "category": "agents"
          }
        ]
      },
      "comments": {
        "original_name": "Comments",
        "value": "Causes rigidity and convulsions in oral and intraperitoneal lethal-dose studies of mice; [RTECS] See \"Pyridoxine hydrochloride.\"",
        "links": [],
        "cross_references": [
          {
            "type": "name_match",
            "text": "convulsion",
            "confidence": 1.0,
            "uuid": "af2c36f8-707a-48e3-a62b-1aa07adc9b72",
            "name": "convulsion",
            "url": "https://haz-map.com/Findings/14",
            "category": "findings"
          },
          {
            "type": "name_match",
            "text": "rigidity",
            "confidence": 1.0,
            "uuid": "ca99ef05-6a4b-40d6-a0a3-52902650761c",
            "name": "rigidity",
            "url": "https://haz-map.com/Findings/243",
            "category": "findings"
          },
          {
            "type": "name_match",
            "text": "pyridoxine",
            "confidence": 1.0,
            "uuid": "d18fa8ac-e5f3-461f-af5f-8f90de5fe52d",
            "name": "Pyridoxine",
            "url": "https://haz-map.com/Agents/17041",
            "category": "agents"
          },
          {
            "type": "name_match",
            "text": "pyridoxine hydrochloride",
            "confidence": 1.0,
            "uuid": "e4c2df4f-32d1-4bb8-9d9b-da4b4483359a",
            "name": "Pyridoxine hydrochloride",
            "url": "https://haz-map.com/Agents/17042",
            "category": "agents"
          }
        ]
      },
      "biomedical_references": {
        "original_name": "Biomedical References",
        "value": "Search PubMed",
        "links": [
          {
            "text": "Search PubMed",
            "url": "https://www.ncbi.nlm.nih.gov/pubmed?term=Pyridoxal%20AND%20human%5Bmh%5D%20AND%20%28Occupational%20Diseases%20%5Bmh%5D%20OR%20Occupational%20Exposure%20%5Bmh%5D%29%20%20AND%20%28tox%5Bsb%5D%29&cmd=search"
          }
        ],
        "cross_references": []
      }
    },
    "exposure_assessment": {
      "vapor_pressure": {
        "original_name": "Vapor Pressure",
        "value": "1.62E-06 mm Hg",
        "links": [],
        "cross_references": []
      }
    },
    "diseases_processes_and_activities_linked_to_this_agent": {
      "other_information": {
        "original_name": "Other Information",
        "value": "No other related information on this agent was found.",
        "links": [],
        "cross_references": []
      }
    }
  },
  "cross_references": [
    {
      "type": "name_match",
      "text": "convulsion",
      "confidence": 1.0,
      "uuid": "af2c36f8-707a-48e3-a62b-1aa07adc9b72",
      "name": "convulsion",
      "url": "https://haz-map.com/Findings/14",
      "category": "findings"
    },
    {
      "type": "name_match",
      "text": "rigidity",
      "confidence": 1.0,
      "uuid": "ca99ef05-6a4b-40d6-a0a3-52902650761c",
      "name": "rigidity",
      "url": "https://haz-map.com/Findings/243",
      "category": "findings"
    },
    {
      "type": "name_match",
      "text": "pyridine",
      "confidence": 1.0,
      "uuid": "a2d916a4-844b-4df6-9be5-868b2b364d71",
      "name": "Pyridine",
      "url": "https://haz-map.com/Agents/616",
      "category": "agents"
    },
    {
      "type": "name_match",
      "text": "methylpyridine",
      "confidence": 1.0,
      "uuid": "4c8f8772-01ae-4de4-8af0-71733c0aaad4",
      "name": "Methylpyridine",
      "url": "https://haz-map.com/Agents/1496",
      "category": "agents"
    },
    {
      "type": "name_match",
      "text": "pyridoxal",
      "confidence": 1.0,
      "uuid": "d5882a3b-2dcb-4b88-8f59-6d2507563cdb",
      "name": "Pyridoxal",
      "url": "https://haz-map.com/Agents/17038",
      "category": "agents"
    },
    {
      "type": "name_match",
      "text": "pyridoxine",
      "confidence": 1.0,
      "uuid": "d18fa8ac-e5f3-461f-af5f-8f90de5fe52d",
      "name": "Pyridoxine",
      "url": "https://haz-map.com/Agents/17041",
      "category": "agents"
    },
    {
      "type": "name_match",
      "text": "pyridoxine hydrochloride",
      "confidence": 1.0,
      "uuid": "e4c2df4f-32d1-4bb8-9d9b-da4b4483359a",
      "name": "Pyridoxine hydrochloride",
      "url": "https://haz-map.com/Agents/17042",
      "category": "agents"
    },
    {
      "type": "name_match",
      "text": "4-pyridinecarboxaldehyde",
      "confidence": 1.0,
      "uuid": "3861a409-d375-4fe6-988f-65c1a26e25e9",
      "name": "4-Pyridinecarboxaldehyde",
      "url": "https://haz-map.com/Agents/20088",
      "category": "agents"
    }
  ],
  "all_links": [
    {
      "text": "Search PubMed",
      "url": "https://www.ncbi.nlm.nih.gov/pubmed?term=Pyridoxal%20AND%20human%5Bmh%5D%20AND%20%28Occupational%20Diseases%20%5Bmh%5D%20OR%20Occupational%20Exposure%20%5Bmh%5D%29%20%20AND%20%28tox%5Bsb%5D%29&cmd=search"
    }
  ]
}