{
  "metadata": {
    "scraped_from": "https://haz-map.com/Agents/8620",
    "entity_name": "2-Butyne",
    "category": "agents",
    "uuid": "d604893d-f414-428f-af44-ba926e496aa9",
    "scraped_at": "2025-07-23T20:29:27.845186"
  },
  "parsed_at": "2025-07-24T01:02:10.426051",
  "title": "2-Butyne",
  "sections": {
    "general": {
      "agent_name": {
        "original_name": "Agent Name",
        "value": "2-Butyne",
        "links": [],
        "cross_references": [
          {
            "type": "name_match",
            "text": "2-butyne",
            "confidence": 1.0,
            "uuid": "d604893d-f414-428f-af44-ba926e496aa9",
            "name": "2-Butyne",
            "url": "https://haz-map.com/Agents/8620",
            "category": "agents"
          }
        ]
      },
      "cas_number": {
        "original_name": "CAS Number",
        "value": "503-17-3",
        "links": [],
        "cross_references": []
      },
      "formula": {
        "original_name": "Formula",
        "value": "C4-H6",
        "links": [],
        "cross_references": []
      },
      "major_category": {
        "original_name": "Major Category",
        "value": "Other Classes",
        "links": [],
        "cross_references": []
      },
      "synonyms": {
        "original_name": "Synonyms",
        "value": "Crotonylene; [ChemIDplus] Dimethylacetylene; [CAMEO] UN1144",
        "links": [],
        "cross_references": [
          {
            "type": "name_match",
            "text": "acetylene",
            "confidence": 1.0,
            "uuid": "97b59022-d2fe-4fa2-a06d-8bb8f566165b",
            "name": "Acetylene",
            "url": "https://haz-map.com/Agents/19",
            "category": "agents"
          },
          {
            "type": "name_match",
            "text": "methylacetylene",
            "confidence": 1.0,
            "uuid": "bc08c161-20d4-4444-880e-d8ccf882ed24",
            "name": "Methylacetylene",
            "url": "https://haz-map.com/Agents/547",
            "category": "agents"
          }
        ]
      },
      "category": {
        "original_name": "Category",
        "value": "Aliphatics, Unsaturated",
        "links": [],
        "cross_references": []
      },
      "description": {
        "original_name": "Description",
        "value": "Clear colorless liquid with an odor of petroleum; [CAMEO]",
        "links": [],
        "cross_references": [
          {
            "type": "name_match",
            "text": "oleum",
            "confidence": 1.0,
            "uuid": "12af84ee-bcf0-416d-9220-7c4c6dc330f1",
            "name": "Oleum",
            "url": "https://haz-map.com/Agents/2227",
            "category": "agents"
          }
        ]
      },
      "comments": {
        "original_name": "Comments",
        "value": "Highly flammable; [CAMEO] Extremely flammable; An irritant; [MSDSonline] See \"Methylacetylene.\"",
        "links": [],
        "cross_references": [
          {
            "type": "name_match",
            "text": "acetylene",
            "confidence": 1.0,
            "uuid": "97b59022-d2fe-4fa2-a06d-8bb8f566165b",
            "name": "Acetylene",
            "url": "https://haz-map.com/Agents/19",
            "category": "agents"
          },
          {
            "type": "name_match",
            "text": "methylacetylene",
            "confidence": 1.0,
            "uuid": "bc08c161-20d4-4444-880e-d8ccf882ed24",
            "name": "Methylacetylene",
            "url": "https://haz-map.com/Agents/547",
            "category": "agents"
          }
        ]
      },
      "biomedical_references": {
        "original_name": "Biomedical References",
        "value": "Search PubMed",
        "links": [
          {
            "text": "Search PubMed",
            "url": "https://www.ncbi.nlm.nih.gov/pubmed?term=2-Butyne%20AND%20human%5Bmh%5D%20AND%20%28Occupational%20Diseases%20%5Bmh%5D%20OR%20Occupational%20Exposure%20%5Bmh%5D%29%20%20AND%20%28tox%5Bsb%5D%29&cmd=search"
          }
        ],
        "cross_references": []
      }
    },
    "exposure_assessment": {
      "vapor_pressure": {
        "original_name": "Vapor Pressure",
        "value": "706 mm Hg",
        "links": [],
        "cross_references": []
      },
      "explanatory_notes": {
        "original_name": "Explanatory Notes",
        "value": "VP from ChemIDplus;",
        "links": [],
        "cross_references": []
      }
    },
    "adverse_effects": {
      "neurotoxin": {
        "original_name": "Neurotoxin",
        "value": "Acute solvent syndrome",
        "links": [],
        "cross_references": []
      }
    },
    "diseases_processes_and_activities_linked_to_this_agent": {
      "diseases": {
        "original_name": "Diseases",
        "value": "Occupational diseases associated with exposure to this agent: Solvents, acute toxic effect",
        "links": [
          {
            "text": "Solvents, acute toxic effect",
            "url": "https://haz-map.com/Diseases/326"
          }
        ],
        "cross_references": [
          {
            "type": "url_match",
            "text": "Solvents, acute toxic effect",
            "url": "https://haz-map.com/Diseases/326",
            "confidence": 1.0,
            "uuid": "581e90e3-9d0c-45f0-aa6c-3468c28da129",
            "name": "Solvents, acute toxic effect",
            "category": "diseases"
          }
        ]
      }
    }
  },
  "cross_references": [
    {
      "type": "url_match",
      "text": "Solvents, acute toxic effect",
      "url": "https://haz-map.com/Diseases/326",
      "confidence": 1.0,
      "uuid": "581e90e3-9d0c-45f0-aa6c-3468c28da129",
      "name": "Solvents, acute toxic effect",
      "category": "diseases"
    },
    {
      "type": "name_match",
      "text": "acetylene",
      "confidence": 1.0,
      "uuid": "97b59022-d2fe-4fa2-a06d-8bb8f566165b",
      "name": "Acetylene",
      "url": "https://haz-map.com/Agents/19",
      "category": "agents"
    },
    {
      "type": "name_match",
      "text": "methylacetylene",
      "confidence": 1.0,
      "uuid": "bc08c161-20d4-4444-880e-d8ccf882ed24",
      "name": "Methylacetylene",
      "url": "https://haz-map.com/Agents/547",
      "category": "agents"
    },
    {
      "type": "name_match",
      "text": "oleum",
      "confidence": 1.0,
      "uuid": "12af84ee-bcf0-416d-9220-7c4c6dc330f1",
      "name": "Oleum",
      "url": "https://haz-map.com/Agents/2227",
      "category": "agents"
    },
    {
      "type": "name_match",
      "text": "2-butyne",
      "confidence": 1.0,
      "uuid": "d604893d-f414-428f-af44-ba926e496aa9",
      "name": "2-Butyne",
      "url": "https://haz-map.com/Agents/8620",
      "category": "agents"
    }
  ],
  "all_links": [
    {
      "text": "Search PubMed",
      "url": "https://www.ncbi.nlm.nih.gov/pubmed?term=2-Butyne%20AND%20human%5Bmh%5D%20AND%20%28Occupational%20Diseases%20%5Bmh%5D%20OR%20Occupational%20Exposure%20%5Bmh%5D%29%20%20AND%20%28tox%5Bsb%5D%29&cmd=search"
    },
    {
      "text": "Solvents, acute toxic effect",
      "url": "https://haz-map.com/Diseases/326"
    }
  ]
}