{
  "metadata": {
    "scraped_from": "https://haz-map.com/Agents/14779",
    "entity_name": "Hydantoin",
    "category": "agents",
    "uuid": "d6180823-0373-45ff-b5ac-d9034f17fb80",
    "scraped_at": "2025-07-23T21:26:23.638389"
  },
  "parsed_at": "2025-07-24T00:59:35.251466",
  "title": "Hydantoin",
  "sections": {
    "general": {
      "agent_name": {
        "original_name": "Agent Name",
        "value": "Hydantoin",
        "links": [],
        "cross_references": [
          {
            "type": "name_match",
            "text": "hydantoin",
            "confidence": 1.0,
            "uuid": "d6180823-0373-45ff-b5ac-d9034f17fb80",
            "name": "Hydantoin",
            "url": "https://haz-map.com/Agents/14779",
            "category": "agents"
          }
        ]
      },
      "cas_number": {
        "original_name": "CAS Number",
        "value": "461-72-3",
        "links": [],
        "cross_references": []
      },
      "formula": {
        "original_name": "Formula",
        "value": "C3-H4-N2-O2",
        "links": [],
        "cross_references": []
      },
      "major_category": {
        "original_name": "Major Category",
        "value": "Nitrogen Compounds",
        "links": [],
        "cross_references": [
          {
            "type": "name_match",
            "text": "nitrogen",
            "confidence": 1.0,
            "uuid": "db5e90a9-06d2-45b9-8b81-f345a89b0bc0",
            "name": "Nitrogen",
            "url": "https://haz-map.com/Agents/1072",
            "category": "agents"
          }
        ]
      },
      "synonyms": {
        "original_name": "Synonyms",
        "value": "2-Imidazolin-4(or 5)-one, 2-hydroxy-; Glycolylurea; Imidazole-2,4(3H,5H)-dione; 2,4-Imidazolidinedione; [ChemIDplus] 2,4-(3H,5H)-imidazoledione; [Merck Index]",
        "links": [],
        "cross_references": [
          {
            "type": "name_match",
            "text": "urea",
            "confidence": 1.0,
            "uuid": "a92a6129-bddd-4f79-9a78-136812ae610f",
            "name": "Urea",
            "url": "https://haz-map.com/Agents/2078",
            "category": "agents"
          },
          {
            "type": "name_match",
            "text": "imidazole",
            "confidence": 1.0,
            "uuid": "c328c03e-2b26-487b-8c01-799a91dd318e",
            "name": "Imidazole",
            "url": "https://haz-map.com/Agents/18775",
            "category": "agents"
          }
        ]
      },
      "category": {
        "original_name": "Category",
        "value": "Imidazoles",
        "links": [],
        "cross_references": [
          {
            "type": "name_match",
            "text": "imidazole",
            "confidence": 1.0,
            "uuid": "c328c03e-2b26-487b-8c01-799a91dd318e",
            "name": "Imidazole",
            "url": "https://haz-map.com/Agents/18775",
            "category": "agents"
          }
        ]
      },
      "description": {
        "original_name": "Description",
        "value": "Solid; [Merck Index] White powder; [Alfa Aesar MSDS]",
        "links": [],
        "cross_references": []
      },
      "sourcesuses": {
        "original_name": "Sources/Uses",
        "value": "\"Hydantoin, which is also known as glycolylurea, is a heterocyclic organic compound that can be thought of as a cyclic \"double-condensation reaction\" product of glycolic acid and urea. Its chemical structure, shown in the Table of Properties at right, is similar to that of imidazolidine except that the molecule of hydantoin has carbonyl groups in the number 2 and 4 positions in the ring. Imidazolidine is the hydrogen-saturated analogue of imidazole.\" [Wikipedia]",
        "links": [],
        "cross_references": [
          {
            "type": "name_match",
            "text": "mica",
            "confidence": 1.0,
            "uuid": "433f26f1-c399-4596-b179-ce3843cfd465",
            "name": "Mica",
            "url": "https://haz-map.com/Agents/621",
            "category": "agents"
          },
          {
            "type": "name_match",
            "text": "hydrogen",
            "confidence": 1.0,
            "uuid": "e2d9645f-5559-4d88-b820-fc4710c154f2",
            "name": "Hydrogen",
            "url": "https://haz-map.com/Agents/1070",
            "category": "agents"
          },
          {
            "type": "name_match",
            "text": "glycolic acid",
            "confidence": 1.0,
            "uuid": "1584a0fe-5d54-4768-85ea-815563bd0798",
            "name": "Glycolic acid",
            "url": "https://haz-map.com/Agents/1410",
            "category": "agents"
          },
          {
            "type": "name_match",
            "text": "carbon",
            "confidence": 1.0,
            "uuid": "b53f8815-ee80-40ef-b4aa-3b000e17dab5",
            "name": "Carbon",
            "url": "https://haz-map.com/Agents/1891",
            "category": "agents"
          },
          {
            "type": "name_match",
            "text": "urea",
            "confidence": 1.0,
            "uuid": "a92a6129-bddd-4f79-9a78-136812ae610f",
            "name": "Urea",
            "url": "https://haz-map.com/Agents/2078",
            "category": "agents"
          },
          {
            "type": "name_match",
            "text": "ht",
            "confidence": 1.0,
            "uuid": "764df367-8d53-4a11-81a2-31ccfe122a8d",
            "name": "HT",
            "url": "https://haz-map.com/Agents/2168",
            "category": "agents"
          },
          {
            "type": "name_match",
            "text": "hydantoin",
            "confidence": 1.0,
            "uuid": "d6180823-0373-45ff-b5ac-d9034f17fb80",
            "name": "Hydantoin",
            "url": "https://haz-map.com/Agents/14779",
            "category": "agents"
          },
          {
            "type": "name_match",
            "text": "imidazole",
            "confidence": 1.0,
            "uuid": "c328c03e-2b26-487b-8c01-799a91dd318e",
            "name": "Imidazole",
            "url": "https://haz-map.com/Agents/18775",
            "category": "agents"
          }
        ]
      },
      "comments": {
        "original_name": "Comments",
        "value": "May cause irritation; Reproductive effects observed in humans and experimental animals; May cause impaired fertility and harm to the unborn child; [Alfa Aesar MSDS] See \"Imidazole.\"",
        "links": [],
        "cross_references": [
          {
            "type": "name_match",
            "text": "imidazole",
            "confidence": 1.0,
            "uuid": "c328c03e-2b26-487b-8c01-799a91dd318e",
            "name": "Imidazole",
            "url": "https://haz-map.com/Agents/18775",
            "category": "agents"
          }
        ]
      },
      "biomedical_references": {
        "original_name": "Biomedical References",
        "value": "Search PubMed",
        "links": [
          {
            "text": "Search PubMed",
            "url": "https://www.ncbi.nlm.nih.gov/pubmed?term=Hydantoin%20AND%20human%5Bmh%5D%20AND%20%28Occupational%20Diseases%20%5Bmh%5D%20OR%20Occupational%20Exposure%20%5Bmh%5D%29%20%20AND%20%28tox%5Bsb%5D%29&cmd=search"
          }
        ],
        "cross_references": []
      }
    },
    "exposure_assessment": {
      "vapor_pressure": {
        "original_name": "Vapor Pressure",
        "value": "7.47E-06 mm Hg",
        "links": [],
        "cross_references": []
      }
    },
    "diseases_processes_and_activities_linked_to_this_agent": {
      "other_information": {
        "original_name": "Other Information",
        "value": "No other related information on this agent was found.",
        "links": [],
        "cross_references": []
      }
    }
  },
  "cross_references": [
    {
      "type": "name_match",
      "text": "mica",
      "confidence": 1.0,
      "uuid": "433f26f1-c399-4596-b179-ce3843cfd465",
      "name": "Mica",
      "url": "https://haz-map.com/Agents/621",
      "category": "agents"
    },
    {
      "type": "name_match",
      "text": "hydrogen",
      "confidence": 1.0,
      "uuid": "e2d9645f-5559-4d88-b820-fc4710c154f2",
      "name": "Hydrogen",
      "url": "https://haz-map.com/Agents/1070",
      "category": "agents"
    },
    {
      "type": "name_match",
      "text": "nitrogen",
      "confidence": 1.0,
      "uuid": "db5e90a9-06d2-45b9-8b81-f345a89b0bc0",
      "name": "Nitrogen",
      "url": "https://haz-map.com/Agents/1072",
      "category": "agents"
    },
    {
      "type": "name_match",
      "text": "glycolic acid",
      "confidence": 1.0,
      "uuid": "1584a0fe-5d54-4768-85ea-815563bd0798",
      "name": "Glycolic acid",
      "url": "https://haz-map.com/Agents/1410",
      "category": "agents"
    },
    {
      "type": "name_match",
      "text": "carbon",
      "confidence": 1.0,
      "uuid": "b53f8815-ee80-40ef-b4aa-3b000e17dab5",
      "name": "Carbon",
      "url": "https://haz-map.com/Agents/1891",
      "category": "agents"
    },
    {
      "type": "name_match",
      "text": "urea",
      "confidence": 1.0,
      "uuid": "a92a6129-bddd-4f79-9a78-136812ae610f",
      "name": "Urea",
      "url": "https://haz-map.com/Agents/2078",
      "category": "agents"
    },
    {
      "type": "name_match",
      "text": "ht",
      "confidence": 1.0,
      "uuid": "764df367-8d53-4a11-81a2-31ccfe122a8d",
      "name": "HT",
      "url": "https://haz-map.com/Agents/2168",
      "category": "agents"
    },
    {
      "type": "name_match",
      "text": "hydantoin",
      "confidence": 1.0,
      "uuid": "d6180823-0373-45ff-b5ac-d9034f17fb80",
      "name": "Hydantoin",
      "url": "https://haz-map.com/Agents/14779",
      "category": "agents"
    },
    {
      "type": "name_match",
      "text": "imidazole",
      "confidence": 1.0,
      "uuid": "c328c03e-2b26-487b-8c01-799a91dd318e",
      "name": "Imidazole",
      "url": "https://haz-map.com/Agents/18775",
      "category": "agents"
    }
  ],
  "all_links": [
    {
      "text": "Search PubMed",
      "url": "https://www.ncbi.nlm.nih.gov/pubmed?term=Hydantoin%20AND%20human%5Bmh%5D%20AND%20%28Occupational%20Diseases%20%5Bmh%5D%20OR%20Occupational%20Exposure%20%5Bmh%5D%29%20%20AND%20%28tox%5Bsb%5D%29&cmd=search"
    }
  ]
}