{
  "metadata": {
    "scraped_from": "https://haz-map.com/Agents/20969",
    "entity_name": "Glycolaldehyde",
    "category": "agents",
    "uuid": "d62b0248-836e-48ec-b392-6749ba6752f3",
    "scraped_at": "2025-07-23T22:35:22.334111"
  },
  "parsed_at": "2025-07-24T00:55:55.449937",
  "title": "Glycolaldehyde",
  "sections": {
    "general": {
      "agent_name": {
        "original_name": "Agent Name",
        "value": "Glycolaldehyde",
        "links": [],
        "cross_references": [
          {
            "type": "name_match",
            "text": "glycolaldehyde",
            "confidence": 1.0,
            "uuid": "d62b0248-836e-48ec-b392-6749ba6752f3",
            "name": "Glycolaldehyde",
            "url": "https://haz-map.com/Agents/20969",
            "category": "agents"
          }
        ]
      },
      "cas_number": {
        "original_name": "CAS Number",
        "value": "141-46-8",
        "links": [],
        "cross_references": []
      },
      "formula": {
        "original_name": "Formula",
        "value": "C2-H4-O2",
        "links": [],
        "cross_references": []
      },
      "major_category": {
        "original_name": "Major Category",
        "value": "Biological Agents",
        "links": [],
        "cross_references": []
      },
      "synonyms": {
        "original_name": "Synonyms",
        "value": "Diose; GLYCOALDEHYDE; Glycolic aldehyde; Hydroxyacetaldehyde; Methylol formaldehyde; Monomethylolformaldehyde; Acetaldehyde, hydroxy- (9CI); [ChemIDplus] 2-Hydroxyethanal; Glycollic aldehyde; Methylolformaldehyde; [Merck Index] Glycoaldehyde dimer; [Riedel-de Haen MSDS]",
        "links": [],
        "cross_references": [
          {
            "type": "name_match",
            "text": "acetaldehyde",
            "confidence": 1.0,
            "uuid": "fe4656a6-c05e-430a-bdd9-e053a298707a",
            "name": "Acetaldehyde",
            "url": "https://haz-map.com/Agents/94",
            "category": "agents"
          },
          {
            "type": "name_match",
            "text": "formaldehyde",
            "confidence": 1.0,
            "uuid": "272252b9-c18e-43df-b652-787210f00a3e",
            "name": "Formaldehyde",
            "url": "https://haz-map.com/Agents/271",
            "category": "agents"
          },
          {
            "type": "name_match",
            "text": "acetal",
            "confidence": 1.0,
            "uuid": "1ee09b5b-04fd-47c0-ab34-a2d9db740bcb",
            "name": "Acetal",
            "url": "https://haz-map.com/Agents/3381",
            "category": "agents"
          }
        ]
      },
      "category": {
        "original_name": "Category",
        "value": "Monosaccharides and Derivatives",
        "links": [],
        "cross_references": []
      },
      "description": {
        "original_name": "Description",
        "value": "Transparent colorless solid; [Merck Index]",
        "links": [],
        "cross_references": []
      },
      "sourcesuses": {
        "original_name": "Sources/Uses",
        "value": "The simplest possible monosaccharide; Used as a starting material and reagent in organic synthesis; [Merck Index] \"Glycolaldehyde forms from many precursors, including the amino acid glycine. It can form by action of ketolase on fructose 1,6-bisphosphate in an alternate glycolysis pathway. This compound is transferred by thiamine pyrophosphate during the pentose phosphate shunt.\" [Wikipedia]",
        "links": [],
        "cross_references": [
          {
            "type": "name_match",
            "text": "fructose",
            "confidence": 1.0,
            "uuid": "f9b395e9-cac0-47f7-b3e6-54ba0afd1c40",
            "name": "Fructose",
            "url": "https://haz-map.com/Agents/13687",
            "category": "agents"
          },
          {
            "type": "name_match",
            "text": "glycine",
            "confidence": 1.0,
            "uuid": "820f614c-594c-4165-b9ef-dbbd5cd636a8",
            "name": "Glycine",
            "url": "https://haz-map.com/Agents/14439",
            "category": "agents"
          },
          {
            "type": "name_match",
            "text": "thiamine",
            "confidence": 1.0,
            "uuid": "3aa6b999-33f7-4860-b2b8-42760dd10674",
            "name": "Thiamine",
            "url": "https://haz-map.com/Agents/17375",
            "category": "agents"
          },
          {
            "type": "name_match",
            "text": "glycolaldehyde",
            "confidence": 1.0,
            "uuid": "d62b0248-836e-48ec-b392-6749ba6752f3",
            "name": "Glycolaldehyde",
            "url": "https://haz-map.com/Agents/20969",
            "category": "agents"
          }
        ]
      },
      "comments": {
        "original_name": "Comments",
        "value": "Causes other changes of the kidney, ureter, and bladder in oral lethal-dose studies of rats; [RTECS] May cause irritation; [Riedel-de Haen MSDS]",
        "links": [],
        "cross_references": [
          {
            "type": "name_match",
            "text": "dde",
            "confidence": 1.0,
            "uuid": "88506fb4-e7b1-4bde-a283-917057f67fc2",
            "name": "DDE",
            "url": "https://haz-map.com/Agents/4656",
            "category": "agents"
          }
        ]
      },
      "biomedical_references": {
        "original_name": "Biomedical References",
        "value": "Search PubMed",
        "links": [
          {
            "text": "Search PubMed",
            "url": "https://www.ncbi.nlm.nih.gov/pubmed?term=Glycolaldehyde%20AND%20human%5Bmh%5D%20AND%20%28Occupational%20Diseases%20%5Bmh%5D%20OR%20Occupational%20Exposure%20%5Bmh%5D%29%20%20AND%20%28tox%5Bsb%5D%29&cmd=search"
          }
        ],
        "cross_references": []
      }
    },
    "exposure_assessment": {
      "vapor_pressure": {
        "original_name": "Vapor Pressure",
        "value": "4.97 mm Hg",
        "links": [],
        "cross_references": []
      }
    },
    "diseases_processes_and_activities_linked_to_this_agent": {
      "other_information": {
        "original_name": "Other Information",
        "value": "No other related information on this agent was found.",
        "links": [],
        "cross_references": []
      }
    }
  },
  "cross_references": [
    {
      "type": "name_match",
      "text": "acetaldehyde",
      "confidence": 1.0,
      "uuid": "fe4656a6-c05e-430a-bdd9-e053a298707a",
      "name": "Acetaldehyde",
      "url": "https://haz-map.com/Agents/94",
      "category": "agents"
    },
    {
      "type": "name_match",
      "text": "formaldehyde",
      "confidence": 1.0,
      "uuid": "272252b9-c18e-43df-b652-787210f00a3e",
      "name": "Formaldehyde",
      "url": "https://haz-map.com/Agents/271",
      "category": "agents"
    },
    {
      "type": "name_match",
      "text": "acetal",
      "confidence": 1.0,
      "uuid": "1ee09b5b-04fd-47c0-ab34-a2d9db740bcb",
      "name": "Acetal",
      "url": "https://haz-map.com/Agents/3381",
      "category": "agents"
    },
    {
      "type": "name_match",
      "text": "dde",
      "confidence": 1.0,
      "uuid": "88506fb4-e7b1-4bde-a283-917057f67fc2",
      "name": "DDE",
      "url": "https://haz-map.com/Agents/4656",
      "category": "agents"
    },
    {
      "type": "name_match",
      "text": "fructose",
      "confidence": 1.0,
      "uuid": "f9b395e9-cac0-47f7-b3e6-54ba0afd1c40",
      "name": "Fructose",
      "url": "https://haz-map.com/Agents/13687",
      "category": "agents"
    },
    {
      "type": "name_match",
      "text": "glycine",
      "confidence": 1.0,
      "uuid": "820f614c-594c-4165-b9ef-dbbd5cd636a8",
      "name": "Glycine",
      "url": "https://haz-map.com/Agents/14439",
      "category": "agents"
    },
    {
      "type": "name_match",
      "text": "thiamine",
      "confidence": 1.0,
      "uuid": "3aa6b999-33f7-4860-b2b8-42760dd10674",
      "name": "Thiamine",
      "url": "https://haz-map.com/Agents/17375",
      "category": "agents"
    },
    {
      "type": "name_match",
      "text": "glycolaldehyde",
      "confidence": 1.0,
      "uuid": "d62b0248-836e-48ec-b392-6749ba6752f3",
      "name": "Glycolaldehyde",
      "url": "https://haz-map.com/Agents/20969",
      "category": "agents"
    }
  ],
  "all_links": [
    {
      "text": "Search PubMed",
      "url": "https://www.ncbi.nlm.nih.gov/pubmed?term=Glycolaldehyde%20AND%20human%5Bmh%5D%20AND%20%28Occupational%20Diseases%20%5Bmh%5D%20OR%20Occupational%20Exposure%20%5Bmh%5D%29%20%20AND%20%28tox%5Bsb%5D%29&cmd=search"
    }
  ]
}