{
  "metadata": {
    "scraped_from": "https://haz-map.com/Agents/1250",
    "entity_name": "Diethylene glycol dimethacrylate",
    "category": "agents",
    "uuid": "d6b7a84c-edb1-4d58-af30-c1d3ffa2785a",
    "scraped_at": "2025-07-23T18:55:21.249570"
  },
  "parsed_at": "2025-07-24T00:58:38.601301",
  "title": "Diethylene glycol dimethacrylate",
  "sections": {
    "general": {
      "agent_name": {
        "original_name": "Agent Name",
        "value": "Diethylene glycol dimethacrylate",
        "links": [],
        "cross_references": [
          {
            "type": "name_match",
            "text": "ethylene glycol",
            "confidence": 1.0,
            "uuid": "99589035-d71c-415a-914c-81c7a166be11",
            "name": "Ethylene glycol",
            "url": "https://haz-map.com/Agents/488",
            "category": "agents"
          },
          {
            "type": "name_match",
            "text": "ethylene",
            "confidence": 1.0,
            "uuid": "958eacc0-5135-4b62-bb93-6df972bf552f",
            "name": "Ethylene",
            "url": "https://haz-map.com/Agents/1076",
            "category": "agents"
          },
          {
            "type": "name_match",
            "text": "ethylene glycol dimethacrylate",
            "confidence": 1.0,
            "uuid": "635349fa-c81f-421f-ab55-8ea9393efca2",
            "name": "Ethylene glycol dimethacrylate",
            "url": "https://haz-map.com/Agents/1249",
            "category": "agents"
          },
          {
            "type": "name_match",
            "text": "diethylene glycol dimethacrylate",
            "confidence": 1.0,
            "uuid": "d6b7a84c-edb1-4d58-af30-c1d3ffa2785a",
            "name": "Diethylene glycol dimethacrylate",
            "url": "https://haz-map.com/Agents/1250",
            "category": "agents"
          },
          {
            "type": "name_match",
            "text": "diethylene glycol",
            "confidence": 1.0,
            "uuid": "6a4c1b24-9807-4ecf-8a5d-d23b7df4b859",
            "name": "Diethylene glycol",
            "url": "https://haz-map.com/Agents/4829",
            "category": "agents"
          }
        ]
      },
      "alternative_name": {
        "original_name": "Alternative Name",
        "value": "DEGDMA",
        "links": [],
        "cross_references": []
      },
      "cas_number": {
        "original_name": "CAS Number",
        "value": "2358-84-1",
        "links": [],
        "cross_references": []
      },
      "formula": {
        "original_name": "Formula",
        "value": "C12-H18-O5",
        "links": [],
        "cross_references": []
      },
      "major_category": {
        "original_name": "Major Category",
        "value": "Plastics & Rubber",
        "links": [],
        "cross_references": []
      },
      "synonyms": {
        "original_name": "Synonyms",
        "value": "DEGDMA; Diethylene glycol bis(methacrylate); Diethylene glycol dimethacrylate monomer; 2-Propenoic acid, 2-methyl-, oxydi-2,1-ethanediyl ester; DGM 2; Diethyleneglycol dimethacrylate; Methacrylic acid, oxydiethylene ester; Oxydiethylene methacrylate; TGM 2; 2-Propenoic acid, 2-methyl-, 1,1'-(oxydi-2,1-ethanediyl) ester; Oxydi-2,1-ethanediyl bismethacrylate; [ChemIDplus]",
        "links": [],
        "cross_references": [
          {
            "type": "name_match",
            "text": "acrylic acid",
            "confidence": 1.0,
            "uuid": "c8e65755-0f00-4e14-91fe-d4fa705d17da",
            "name": "Acrylic acid",
            "url": "https://haz-map.com/Agents/67",
            "category": "agents"
          },
          {
            "type": "name_match",
            "text": "methacrylic acid",
            "confidence": 1.0,
            "uuid": "cbb89ac5-c6fb-4f8e-9a25-8dce1702dff5",
            "name": "Methacrylic acid",
            "url": "https://haz-map.com/Agents/215",
            "category": "agents"
          },
          {
            "type": "name_match",
            "text": "ethylene glycol",
            "confidence": 1.0,
            "uuid": "99589035-d71c-415a-914c-81c7a166be11",
            "name": "Ethylene glycol",
            "url": "https://haz-map.com/Agents/488",
            "category": "agents"
          },
          {
            "type": "name_match",
            "text": "ethane",
            "confidence": 1.0,
            "uuid": "5162cc8c-dfb9-4060-81ac-38a8cec7f9dd",
            "name": "Ethane",
            "url": "https://haz-map.com/Agents/1075",
            "category": "agents"
          },
          {
            "type": "name_match",
            "text": "ethylene",
            "confidence": 1.0,
            "uuid": "958eacc0-5135-4b62-bb93-6df972bf552f",
            "name": "Ethylene",
            "url": "https://haz-map.com/Agents/1076",
            "category": "agents"
          },
          {
            "type": "name_match",
            "text": "ethylene glycol dimethacrylate",
            "confidence": 1.0,
            "uuid": "635349fa-c81f-421f-ab55-8ea9393efca2",
            "name": "Ethylene glycol dimethacrylate",
            "url": "https://haz-map.com/Agents/1249",
            "category": "agents"
          },
          {
            "type": "name_match",
            "text": "diethylene glycol dimethacrylate",
            "confidence": 1.0,
            "uuid": "d6b7a84c-edb1-4d58-af30-c1d3ffa2785a",
            "name": "Diethylene glycol dimethacrylate",
            "url": "https://haz-map.com/Agents/1250",
            "category": "agents"
          },
          {
            "type": "name_match",
            "text": "diethylene glycol",
            "confidence": 1.0,
            "uuid": "6a4c1b24-9807-4ecf-8a5d-d23b7df4b859",
            "name": "Diethylene glycol",
            "url": "https://haz-map.com/Agents/4829",
            "category": "agents"
          }
        ]
      },
      "category": {
        "original_name": "Category",
        "value": "(Meth)acrylates",
        "links": [],
        "cross_references": []
      },
      "description": {
        "original_name": "Description",
        "value": "Colorless liquid, with an ester-like odor; [HSDB]",
        "links": [],
        "cross_references": []
      },
      "sourcesuses": {
        "original_name": "Sources/Uses",
        "value": "Used in dental plastic composites; [HSDB] Used in acrylic resins to make artificial nails; [Adams, p. 443]",
        "links": [],
        "cross_references": []
      },
      "comments": {
        "original_name": "Comments",
        "value": "Skin and eye irritant; Can cause contact sensitization; [HSDB] Danger of skin sensitization; [MAK] Stabilized with 500 ppm 4-methoxyphenol; An irritant; [Alfa Aesar MSDS]",
        "links": [],
        "cross_references": [
          {
            "type": "name_match",
            "text": "phenol",
            "confidence": 1.0,
            "uuid": "03141a03-a7df-4f51-9a37-adde1a7c4b31",
            "name": "Phenol",
            "url": "https://haz-map.com/Agents/84",
            "category": "agents"
          },
          {
            "type": "name_match",
            "text": "4-methoxyphenol",
            "confidence": 1.0,
            "uuid": "517d8f3f-b08a-45f2-acf1-fe45892b9660",
            "name": "4-Methoxyphenol",
            "url": "https://haz-map.com/Agents/545",
            "category": "agents"
          }
        ]
      },
      "biomedical_references": {
        "original_name": "Biomedical References",
        "value": "Search PubMed",
        "links": [
          {
            "text": "Search PubMed",
            "url": "https://www.ncbi.nlm.nih.gov/pubmed?term=Diethylene+glycol+dimethacrylate%20AND%20human%5Bmh%5D%20AND%20%28Occupational%20Diseases%20%5Bmh%5D%20OR%20Occupational%20Exposure%20%5Bmh%5D%29%20%20AND%20%28tox%5Bsb%5D%29&cmd=search"
          }
        ],
        "cross_references": []
      }
    },
    "exposure_assessment": {
      "vapor_pressure": {
        "original_name": "Vapor Pressure",
        "value": "0.01 mm Hg",
        "links": [],
        "cross_references": []
      },
      "explanatory_notes": {
        "original_name": "Explanatory Notes",
        "value": "\"Danger of sensitization of skin.\" [MAK] VP from PubChem;",
        "links": [],
        "cross_references": []
      }
    },
    "adverse_effects": {
      "skin_sensitizer": {
        "original_name": "Skin Sensitizer",
        "value": "Yes",
        "links": [],
        "cross_references": []
      }
    },
    "diseases_processes_and_activities_linked_to_this_agent": {
      "diseases": {
        "original_name": "Diseases",
        "value": "Occupational diseases associated with exposure to this agent: Contact dermatitis, allergic",
        "links": [
          {
            "text": "Contact dermatitis, allergic",
            "url": "https://haz-map.com/Diseases/18"
          }
        ],
        "cross_references": [
          {
            "type": "url_match",
            "text": "Contact dermatitis, allergic",
            "url": "https://haz-map.com/Diseases/18",
            "confidence": 1.0,
            "uuid": "c9499de0-9aa1-41bf-8753-cd5b28a63e29",
            "name": "Contact dermatitis, allergic",
            "category": "diseases"
          },
          {
            "type": "name_match",
            "text": "dermatitis",
            "confidence": 1.0,
            "uuid": "fe9c05f2-b19f-4ceb-ac7a-ffb7d7a0cae0",
            "name": "dermatitis",
            "url": "https://haz-map.com/Findings/59",
            "category": "findings"
          }
        ]
      },
      "processes": {
        "original_name": "Processes",
        "value": "Industrial Processes with risk of exposure: Plastic Composites Manufacturing",
        "links": [
          {
            "text": "Plastic Composites Manufacturing",
            "url": "https://haz-map.com/Processes/222"
          }
        ],
        "cross_references": [
          {
            "type": "url_match",
            "text": "Plastic Composites Manufacturing",
            "url": "https://haz-map.com/Processes/222",
            "confidence": 1.0,
            "uuid": "d4461b82-dc77-4172-8e3d-0a5e3b213911",
            "name": "Plastic Composites Manufacturing",
            "category": "processes"
          }
        ]
      }
    }
  },
  "cross_references": [
    {
      "type": "url_match",
      "text": "Contact dermatitis, allergic",
      "url": "https://haz-map.com/Diseases/18",
      "confidence": 1.0,
      "uuid": "c9499de0-9aa1-41bf-8753-cd5b28a63e29",
      "name": "Contact dermatitis, allergic",
      "category": "diseases"
    },
    {
      "type": "url_match",
      "text": "Plastic Composites Manufacturing",
      "url": "https://haz-map.com/Processes/222",
      "confidence": 1.0,
      "uuid": "d4461b82-dc77-4172-8e3d-0a5e3b213911",
      "name": "Plastic Composites Manufacturing",
      "category": "processes"
    },
    {
      "type": "name_match",
      "text": "dermatitis",
      "confidence": 1.0,
      "uuid": "fe9c05f2-b19f-4ceb-ac7a-ffb7d7a0cae0",
      "name": "dermatitis",
      "url": "https://haz-map.com/Findings/59",
      "category": "findings"
    },
    {
      "type": "name_match",
      "text": "acrylic acid",
      "confidence": 1.0,
      "uuid": "c8e65755-0f00-4e14-91fe-d4fa705d17da",
      "name": "Acrylic acid",
      "url": "https://haz-map.com/Agents/67",
      "category": "agents"
    },
    {
      "type": "name_match",
      "text": "phenol",
      "confidence": 1.0,
      "uuid": "03141a03-a7df-4f51-9a37-adde1a7c4b31",
      "name": "Phenol",
      "url": "https://haz-map.com/Agents/84",
      "category": "agents"
    },
    {
      "type": "name_match",
      "text": "methacrylic acid",
      "confidence": 1.0,
      "uuid": "cbb89ac5-c6fb-4f8e-9a25-8dce1702dff5",
      "name": "Methacrylic acid",
      "url": "https://haz-map.com/Agents/215",
      "category": "agents"
    },
    {
      "type": "name_match",
      "text": "ethylene glycol",
      "confidence": 1.0,
      "uuid": "99589035-d71c-415a-914c-81c7a166be11",
      "name": "Ethylene glycol",
      "url": "https://haz-map.com/Agents/488",
      "category": "agents"
    },
    {
      "type": "name_match",
      "text": "4-methoxyphenol",
      "confidence": 1.0,
      "uuid": "517d8f3f-b08a-45f2-acf1-fe45892b9660",
      "name": "4-Methoxyphenol",
      "url": "https://haz-map.com/Agents/545",
      "category": "agents"
    },
    {
      "type": "name_match",
      "text": "ethane",
      "confidence": 1.0,
      "uuid": "5162cc8c-dfb9-4060-81ac-38a8cec7f9dd",
      "name": "Ethane",
      "url": "https://haz-map.com/Agents/1075",
      "category": "agents"
    },
    {
      "type": "name_match",
      "text": "ethylene",
      "confidence": 1.0,
      "uuid": "958eacc0-5135-4b62-bb93-6df972bf552f",
      "name": "Ethylene",
      "url": "https://haz-map.com/Agents/1076",
      "category": "agents"
    },
    {
      "type": "name_match",
      "text": "ethylene glycol dimethacrylate",
      "confidence": 1.0,
      "uuid": "635349fa-c81f-421f-ab55-8ea9393efca2",
      "name": "Ethylene glycol dimethacrylate",
      "url": "https://haz-map.com/Agents/1249",
      "category": "agents"
    },
    {
      "type": "name_match",
      "text": "diethylene glycol dimethacrylate",
      "confidence": 1.0,
      "uuid": "d6b7a84c-edb1-4d58-af30-c1d3ffa2785a",
      "name": "Diethylene glycol dimethacrylate",
      "url": "https://haz-map.com/Agents/1250",
      "category": "agents"
    },
    {
      "type": "name_match",
      "text": "diethylene glycol",
      "confidence": 1.0,
      "uuid": "6a4c1b24-9807-4ecf-8a5d-d23b7df4b859",
      "name": "Diethylene glycol",
      "url": "https://haz-map.com/Agents/4829",
      "category": "agents"
    }
  ],
  "all_links": [
    {
      "text": "Search PubMed",
      "url": "https://www.ncbi.nlm.nih.gov/pubmed?term=Diethylene+glycol+dimethacrylate%20AND%20human%5Bmh%5D%20AND%20%28Occupational%20Diseases%20%5Bmh%5D%20OR%20Occupational%20Exposure%20%5Bmh%5D%29%20%20AND%20%28tox%5Bsb%5D%29&cmd=search"
    },
    {
      "text": "Contact dermatitis, allergic",
      "url": "https://haz-map.com/Diseases/18"
    },
    {
      "text": "Plastic Composites Manufacturing",
      "url": "https://haz-map.com/Processes/222"
    }
  ]
}