{
  "metadata": {
    "scraped_from": "https://haz-map.com/Agents/14209",
    "entity_name": "Ethyl perfluoroisobutyl ether",
    "category": "agents",
    "uuid": "d6c8346f-7fbd-4a5f-ab50-bd064ad64448",
    "scraped_at": "2025-07-23T21:21:19.558906"
  },
  "parsed_at": "2025-07-24T01:10:32.486425",
  "title": "Ethyl perfluoroisobutyl ether",
  "sections": {
    "general": {
      "agent_name": {
        "original_name": "Agent Name",
        "value": "Ethyl perfluoroisobutyl ether",
        "links": [],
        "cross_references": [
          {
            "type": "name_match",
            "text": "ethyl perfluoroisobutyl ether",
            "confidence": 1.0,
            "uuid": "d6c8346f-7fbd-4a5f-ab50-bd064ad64448",
            "name": "Ethyl perfluoroisobutyl ether",
            "url": "https://haz-map.com/Agents/14209",
            "category": "agents"
          }
        ]
      },
      "cas_number": {
        "original_name": "CAS Number",
        "value": "163702-06-5",
        "links": [],
        "cross_references": []
      },
      "formula": {
        "original_name": "Formula",
        "value": "C6-H5-F9-O",
        "links": [],
        "cross_references": []
      },
      "major_category": {
        "original_name": "Major Category",
        "value": "Other Classes",
        "links": [],
        "cross_references": []
      },
      "synonyms": {
        "original_name": "Synonyms",
        "value": "Propane, 2-(ethoxydifluoromethyl)-1,1,1,2,3,3,3-heptafluoro-; [ChemIDplus] L-14752 DEVELOPMENTAL MATERIAL; Ethyl nonafluoroisobutyl ether; [3M MSDS]",
        "links": [],
        "cross_references": [
          {
            "type": "name_match",
            "text": "propane",
            "confidence": 1.0,
            "uuid": "563a611b-46ea-4bdc-b77b-17d8f7646283",
            "name": "Propane",
            "url": "https://haz-map.com/Agents/607",
            "category": "agents"
          }
        ]
      },
      "category": {
        "original_name": "Category",
        "value": "Halogenated Ethers",
        "links": [],
        "cross_references": []
      },
      "description": {
        "original_name": "Description",
        "value": "Clear colorless liquid; Low odor; [OSHA]",
        "links": [],
        "cross_references": []
      },
      "sourcesuses": {
        "original_name": "Sources/Uses",
        "value": "Used for research and development; [3M MSDS]",
        "links": [],
        "cross_references": []
      },
      "comments": {
        "original_name": "Comments",
        "value": "Not expected to cause significant skin or eye irritation; Practically non-toxic by inhalation; [3M MSDS]",
        "links": [],
        "cross_references": []
      },
      "biomedical_references": {
        "original_name": "Biomedical References",
        "value": "Search PubMed",
        "links": [
          {
            "text": "Search PubMed",
            "url": "https://www.ncbi.nlm.nih.gov/pubmed?term=Ethyl+perfluoroisobutyl+ether%20AND%20human%5Bmh%5D%20AND%20%28Occupational%20Diseases%20%5Bmh%5D%20OR%20Occupational%20Exposure%20%5Bmh%5D%29%20%20AND%20%28tox%5Bsb%5D%29&cmd=search"
          }
        ],
        "cross_references": []
      }
    },
    "exposure_assessment": {
      "vapor_pressure": {
        "original_name": "Vapor Pressure",
        "value": "109 mm Hg",
        "links": [],
        "cross_references": []
      }
    },
    "diseases_processes_and_activities_linked_to_this_agent": {
      "other_information": {
        "original_name": "Other Information",
        "value": "No other related information on this agent was found.",
        "links": [],
        "cross_references": []
      }
    }
  },
  "cross_references": [
    {
      "type": "name_match",
      "text": "propane",
      "confidence": 1.0,
      "uuid": "563a611b-46ea-4bdc-b77b-17d8f7646283",
      "name": "Propane",
      "url": "https://haz-map.com/Agents/607",
      "category": "agents"
    },
    {
      "type": "name_match",
      "text": "ethyl perfluoroisobutyl ether",
      "confidence": 1.0,
      "uuid": "d6c8346f-7fbd-4a5f-ab50-bd064ad64448",
      "name": "Ethyl perfluoroisobutyl ether",
      "url": "https://haz-map.com/Agents/14209",
      "category": "agents"
    }
  ],
  "all_links": [
    {
      "text": "Search PubMed",
      "url": "https://www.ncbi.nlm.nih.gov/pubmed?term=Ethyl+perfluoroisobutyl+ether%20AND%20human%5Bmh%5D%20AND%20%28Occupational%20Diseases%20%5Bmh%5D%20OR%20Occupational%20Exposure%20%5Bmh%5D%29%20%20AND%20%28tox%5Bsb%5D%29&cmd=search"
    }
  ]
}