{
  "metadata": {
    "scraped_from": "https://haz-map.com/Agents/19713",
    "entity_name": "3,3-Dimethyl-1-butyne",
    "category": "agents",
    "uuid": "d6eb461f-e06a-4743-b046-c391306edb3d",
    "scraped_at": "2025-07-23T22:11:30.881736"
  },
  "parsed_at": "2025-07-24T01:04:20.334518",
  "title": "3,3-Dimethyl-1-butyne",
  "sections": {
    "general": {
      "agent_name": {
        "original_name": "Agent Name",
        "value": "3,3-Dimethyl-1-butyne",
        "links": [],
        "cross_references": [
          {
            "type": "name_match",
            "text": "1-butyne",
            "confidence": 1.0,
            "uuid": "4f745f3b-afae-4679-abe2-3475a2fa7ff5",
            "name": "1-Butyne",
            "url": "https://haz-map.com/Agents/9491",
            "category": "agents"
          },
          {
            "type": "name_match",
            "text": "3,3-dimethyl-1-butyne",
            "confidence": 1.0,
            "uuid": "d6eb461f-e06a-4743-b046-c391306edb3d",
            "name": "3,3-Dimethyl-1-butyne",
            "url": "https://haz-map.com/Agents/19713",
            "category": "agents"
          }
        ]
      },
      "cas_number": {
        "original_name": "CAS Number",
        "value": "917-92-0",
        "links": [],
        "cross_references": []
      },
      "formula": {
        "original_name": "Formula",
        "value": "C6-H10",
        "links": [],
        "cross_references": []
      },
      "major_category": {
        "original_name": "Major Category",
        "value": "Other Classes",
        "links": [],
        "cross_references": []
      },
      "synonyms": {
        "original_name": "Synonyms",
        "value": "3,3-Dimethylbutyne; [ChemIDplus] UN3295",
        "links": [],
        "cross_references": []
      },
      "category": {
        "original_name": "Category",
        "value": "Aliphatics, Unsaturated",
        "links": [],
        "cross_references": []
      },
      "description": {
        "original_name": "Description",
        "value": "Colorless liquid; Boiling point = 37-38 deg C; [Alfa Aesar MSDS]",
        "links": [],
        "cross_references": []
      },
      "comments": {
        "original_name": "Comments",
        "value": "May cause irritation; Harmful by ingestion (may cause lung damage by aspiration); [Alfa Aesar MSDS] See \"1-Butyne.\"",
        "links": [],
        "cross_references": [
          {
            "type": "name_match",
            "text": "1-butyne",
            "confidence": 1.0,
            "uuid": "4f745f3b-afae-4679-abe2-3475a2fa7ff5",
            "name": "1-Butyne",
            "url": "https://haz-map.com/Agents/9491",
            "category": "agents"
          }
        ]
      },
      "biomedical_references": {
        "original_name": "Biomedical References",
        "value": "Search PubMed",
        "links": [
          {
            "text": "Search PubMed",
            "url": "https://www.ncbi.nlm.nih.gov/pubmed?term=3%2c3-Dimethyl-1-butyne%20AND%20human%5Bmh%5D%20AND%20%28Occupational%20Diseases%20%5Bmh%5D%20OR%20Occupational%20Exposure%20%5Bmh%5D%29%20%20AND%20%28tox%5Bsb%5D%29&cmd=search"
          }
        ],
        "cross_references": []
      }
    },
    "exposure_assessment": {
      "vapor_pressure": {
        "original_name": "Vapor Pressure",
        "value": "398 mm Hg",
        "links": [],
        "cross_references": []
      },
      "explanatory_notes": {
        "original_name": "Explanatory Notes",
        "value": "The Guide in the Emergency Response Guidebook is for \"Hydrocarbons, liquid, n.o.s.\"",
        "links": [],
        "cross_references": [
          {
            "type": "name_match",
            "text": "carbon",
            "confidence": 1.0,
            "uuid": "b53f8815-ee80-40ef-b4aa-3b000e17dab5",
            "name": "Carbon",
            "url": "https://haz-map.com/Agents/1891",
            "category": "agents"
          },
          {
            "type": "fuzzy_match",
            "text": "hydrocarbons",
            "matched_name": "Hydrocarbons, C>3",
            "confidence": 0.7100840336134454,
            "uuid": "8eaa37ac-3931-44e4-9242-2734127fd661",
            "category": "agents",
            "url": "https://haz-map.com/Agents/14795"
          }
        ]
      }
    },
    "diseases_processes_and_activities_linked_to_this_agent": {
      "other_information": {
        "original_name": "Other Information",
        "value": "No other related information on this agent was found.",
        "links": [],
        "cross_references": []
      }
    }
  },
  "cross_references": [
    {
      "type": "name_match",
      "text": "carbon",
      "confidence": 1.0,
      "uuid": "b53f8815-ee80-40ef-b4aa-3b000e17dab5",
      "name": "Carbon",
      "url": "https://haz-map.com/Agents/1891",
      "category": "agents"
    },
    {
      "type": "name_match",
      "text": "1-butyne",
      "confidence": 1.0,
      "uuid": "4f745f3b-afae-4679-abe2-3475a2fa7ff5",
      "name": "1-Butyne",
      "url": "https://haz-map.com/Agents/9491",
      "category": "agents"
    },
    {
      "type": "name_match",
      "text": "3,3-dimethyl-1-butyne",
      "confidence": 1.0,
      "uuid": "d6eb461f-e06a-4743-b046-c391306edb3d",
      "name": "3,3-Dimethyl-1-butyne",
      "url": "https://haz-map.com/Agents/19713",
      "category": "agents"
    },
    {
      "type": "fuzzy_match",
      "text": "hydrocarbons",
      "matched_name": "Hydrocarbons, C>3",
      "confidence": 0.7100840336134454,
      "uuid": "8eaa37ac-3931-44e4-9242-2734127fd661",
      "category": "agents",
      "url": "https://haz-map.com/Agents/14795"
    }
  ],
  "all_links": [
    {
      "text": "Search PubMed",
      "url": "https://www.ncbi.nlm.nih.gov/pubmed?term=3%2c3-Dimethyl-1-butyne%20AND%20human%5Bmh%5D%20AND%20%28Occupational%20Diseases%20%5Bmh%5D%20OR%20Occupational%20Exposure%20%5Bmh%5D%29%20%20AND%20%28tox%5Bsb%5D%29&cmd=search"
    }
  ]
}