{
  "metadata": {
    "scraped_from": "https://haz-map.com/Agents/4927",
    "entity_name": "Dimethrin",
    "category": "agents",
    "uuid": "d729fb9e-5c70-4307-820e-8f90979feef7",
    "scraped_at": "2025-07-23T19:46:47.118232"
  },
  "parsed_at": "2025-07-24T01:16:55.193649",
  "title": "Dimethrin",
  "sections": {
    "general": {
      "agent_name": {
        "original_name": "Agent Name",
        "value": "Dimethrin",
        "links": [],
        "cross_references": [
          {
            "type": "name_match",
            "text": "dimethrin",
            "confidence": 1.0,
            "uuid": "d729fb9e-5c70-4307-820e-8f90979feef7",
            "name": "Dimethrin",
            "url": "https://haz-map.com/Agents/4927",
            "category": "agents"
          }
        ]
      },
      "cas_number": {
        "original_name": "CAS Number",
        "value": "70-38-2",
        "links": [],
        "cross_references": []
      },
      "formula": {
        "original_name": "Formula",
        "value": "C19-H26-O2",
        "links": [],
        "cross_references": []
      },
      "major_category": {
        "original_name": "Major Category",
        "value": "Pesticides",
        "links": [],
        "cross_references": []
      },
      "synonyms": {
        "original_name": "Synonyms",
        "value": "(2,4-Dimethylphenyl)methyl 2,2-dimethyl-3-(2-methyl-1-propenyl)cyclopropanecarboxylate; 2,4-Dimethylbenzyl (1RS)-cis,trans-2,2-dimethyl-3-(2-methylprop-1-enyl)cyclopropanecarboxylate; 2,4-Dimethylbenzyl 2,2-dimethyl-3-(2-methylpropenyl)cyclopropanecarboxylate; 2,4-Dimethylbenzyl ester of cis,trans-chrysanthemumic acid; 2,4-Dimethylbenzyl-(I)-cis-trans-chrysanthemumate; 2,4-Dimethylbenzylchrysanthemumate; 2,4-Dimethylbenzylester kyseliny chrysanthemove [Czech]; Chrysanthemumic acid, 2,4-dimethylbenzyl ester; Cyclopropanecarboxylic acid, 2,2-dimethyl-3-(2-methyl-1-propenyl)-, (2,4-dimethylphenyl)methyl ester; Cyclopropanecarboxylic acid, 2,2-dimethyl-3-(2-methylpropenyl)-, 2,4-dimethylbenzyl ester (8CI); Dimethrin [ANSI]; Dimethrine; Dimetrin; ENT-21170; SHA 034101; [ChemIDplus]",
        "links": [],
        "cross_references": [
          {
            "type": "name_match",
            "text": "2,4-d",
            "confidence": 1.0,
            "uuid": "bed35f54-2d93-4ffd-a3ee-723ab365faf1",
            "name": "2,4-D",
            "url": "https://haz-map.com/Agents/389",
            "category": "agents"
          },
          {
            "type": "name_match",
            "text": "propane",
            "confidence": 1.0,
            "uuid": "563a611b-46ea-4bdc-b77b-17d8f7646283",
            "name": "Propane",
            "url": "https://haz-map.com/Agents/607",
            "category": "agents"
          },
          {
            "type": "name_match",
            "text": "cyclopropane",
            "confidence": 1.0,
            "uuid": "eff680c8-2b85-4f0d-9c04-449434d56b54",
            "name": "Cyclopropane",
            "url": "https://haz-map.com/Agents/4611",
            "category": "agents"
          },
          {
            "type": "name_match",
            "text": "dimethrin",
            "confidence": 1.0,
            "uuid": "d729fb9e-5c70-4307-820e-8f90979feef7",
            "name": "Dimethrin",
            "url": "https://haz-map.com/Agents/4927",
            "category": "agents"
          },
          {
            "type": "name_match",
            "text": "cyclopropanecarboxylic acid",
            "confidence": 1.0,
            "uuid": "34616f0c-ada5-417e-a983-ad8428383152",
            "name": "Cyclopropanecarboxylic acid",
            "url": "https://haz-map.com/Agents/13541",
            "category": "agents"
          }
        ]
      },
      "category": {
        "original_name": "Category",
        "value": "Pyrethrins/Pyrethroids",
        "links": [],
        "cross_references": []
      },
      "description": {
        "original_name": "Description",
        "value": "Amber liquid; [Hawley]",
        "links": [],
        "cross_references": []
      },
      "sourcesuses": {
        "original_name": "Sources/Uses",
        "value": "Used as insecticide for mosquito larva in ponds and swamps; [HSDB]",
        "links": [],
        "cross_references": []
      },
      "comments": {
        "original_name": "Comments",
        "value": "Rats given by gavage 7 mg/kg/day for 3 weeks had no adverse effects; [HSDB] See \"Pyrethrum.\"",
        "links": [],
        "cross_references": [
          {
            "type": "name_match",
            "text": "pyrethrum",
            "confidence": 1.0,
            "uuid": "2207eb81-00c4-4197-8027-9a241d9cab6a",
            "name": "Pyrethrum",
            "url": "https://haz-map.com/Agents/615",
            "category": "agents"
          }
        ]
      },
      "restricted": {
        "original_name": "Restricted",
        "value": "No longer registered as a pesticide for use in the US; [HSDB]",
        "links": [],
        "cross_references": []
      },
      "biomedical_references": {
        "original_name": "Biomedical References",
        "value": "Search PubMed",
        "links": [
          {
            "text": "Search PubMed",
            "url": "https://www.ncbi.nlm.nih.gov/pubmed?term=Dimethrin%20AND%20human%5Bmh%5D%20AND%20%28Occupational%20Diseases%20%5Bmh%5D%20OR%20Occupational%20Exposure%20%5Bmh%5D%29%20%20AND%20%28tox%5Bsb%5D%29&cmd=search"
          }
        ],
        "cross_references": []
      }
    },
    "exposure_assessment": {
      "vapor_pressure": {
        "original_name": "Vapor Pressure",
        "value": "1.72E-05 mm Hg",
        "links": [],
        "cross_references": []
      }
    },
    "adverse_effects": {
      "neurotoxin": {
        "original_name": "Neurotoxin",
        "value": "Other CNS neurotoxin",
        "links": [],
        "cross_references": []
      }
    },
    "diseases_processes_and_activities_linked_to_this_agent": {
      "other_information": {
        "original_name": "Other Information",
        "value": "No other related information on this agent was found.",
        "links": [],
        "cross_references": []
      }
    }
  },
  "cross_references": [
    {
      "type": "name_match",
      "text": "2,4-d",
      "confidence": 1.0,
      "uuid": "bed35f54-2d93-4ffd-a3ee-723ab365faf1",
      "name": "2,4-D",
      "url": "https://haz-map.com/Agents/389",
      "category": "agents"
    },
    {
      "type": "name_match",
      "text": "propane",
      "confidence": 1.0,
      "uuid": "563a611b-46ea-4bdc-b77b-17d8f7646283",
      "name": "Propane",
      "url": "https://haz-map.com/Agents/607",
      "category": "agents"
    },
    {
      "type": "name_match",
      "text": "pyrethrum",
      "confidence": 1.0,
      "uuid": "2207eb81-00c4-4197-8027-9a241d9cab6a",
      "name": "Pyrethrum",
      "url": "https://haz-map.com/Agents/615",
      "category": "agents"
    },
    {
      "type": "name_match",
      "text": "cyclopropane",
      "confidence": 1.0,
      "uuid": "eff680c8-2b85-4f0d-9c04-449434d56b54",
      "name": "Cyclopropane",
      "url": "https://haz-map.com/Agents/4611",
      "category": "agents"
    },
    {
      "type": "name_match",
      "text": "dimethrin",
      "confidence": 1.0,
      "uuid": "d729fb9e-5c70-4307-820e-8f90979feef7",
      "name": "Dimethrin",
      "url": "https://haz-map.com/Agents/4927",
      "category": "agents"
    },
    {
      "type": "name_match",
      "text": "cyclopropanecarboxylic acid",
      "confidence": 1.0,
      "uuid": "34616f0c-ada5-417e-a983-ad8428383152",
      "name": "Cyclopropanecarboxylic acid",
      "url": "https://haz-map.com/Agents/13541",
      "category": "agents"
    }
  ],
  "all_links": [
    {
      "text": "Search PubMed",
      "url": "https://www.ncbi.nlm.nih.gov/pubmed?term=Dimethrin%20AND%20human%5Bmh%5D%20AND%20%28Occupational%20Diseases%20%5Bmh%5D%20OR%20Occupational%20Exposure%20%5Bmh%5D%29%20%20AND%20%28tox%5Bsb%5D%29&cmd=search"
    }
  ]
}