{
  "metadata": {
    "scraped_from": "https://haz-map.com/Agents/14352",
    "entity_name": "Galactitol",
    "category": "agents",
    "uuid": "d732a4a7-19c4-4d0c-a155-c487e4042d2e",
    "scraped_at": "2025-07-23T21:22:07.277873"
  },
  "parsed_at": "2025-07-24T01:05:39.744869",
  "title": "Galactitol",
  "sections": {
    "general": {
      "agent_name": {
        "original_name": "Agent Name",
        "value": "Galactitol",
        "links": [],
        "cross_references": [
          {
            "type": "name_match",
            "text": "galactitol",
            "confidence": 1.0,
            "uuid": "d732a4a7-19c4-4d0c-a155-c487e4042d2e",
            "name": "Galactitol",
            "url": "https://haz-map.com/Agents/14352",
            "category": "agents"
          }
        ]
      },
      "cas_number": {
        "original_name": "CAS Number",
        "value": "608-66-2",
        "links": [],
        "cross_references": []
      },
      "formula": {
        "original_name": "Formula",
        "value": "C6-H14-O6",
        "links": [],
        "cross_references": []
      },
      "major_category": {
        "original_name": "Major Category",
        "value": "Biological Agents",
        "links": [],
        "cross_references": []
      },
      "synonyms": {
        "original_name": "Synonyms",
        "value": "D-Dulcitol; Dulcite; Dulcitol; Dulcose; Euonymit; Melampyrin; Melampyrit; [ChemIDplus] Melampyrite; Melampyrum; [Merck Index]",
        "links": [],
        "cross_references": []
      },
      "category": {
        "original_name": "Category",
        "value": "Monosaccharides and Derivatives",
        "links": [],
        "cross_references": []
      },
      "description": {
        "original_name": "Description",
        "value": "Solid; [Merck Index] White to off-white hygroscopic powder; [Alfa Aesar MSDS]",
        "links": [],
        "cross_references": []
      },
      "sourcesuses": {
        "original_name": "Sources/Uses",
        "value": "\"A naturally occurring product of plants obtained following reduction of GALACTOSE. It appears as a white crystalline powder with a slight sweet taste.\" [ChemIDplus] \"Galactitol (dulcitol) is a sugar alcohol, the reduction product of galactose. In people with galactokinase deficiency, a form of galactosemia, excess dulcitol forms in the lens of the eye leading to cataracts.\" [Wikipedia]",
        "links": [],
        "cross_references": [
          {
            "type": "name_match",
            "text": "cataract",
            "confidence": 1.0,
            "uuid": "3e1b6957-4241-488a-8796-192306a93517",
            "name": "cataract",
            "url": "https://haz-map.com/Findings/131",
            "category": "findings"
          },
          {
            "type": "name_match",
            "text": "lead",
            "confidence": 1.0,
            "uuid": "24246eba-13d7-456a-a142-ceae0f1df43f",
            "name": "Lead",
            "url": "https://haz-map.com/Agents/10",
            "category": "agents"
          },
          {
            "type": "name_match",
            "text": "ht",
            "confidence": 1.0,
            "uuid": "764df367-8d53-4a11-81a2-31ccfe122a8d",
            "name": "HT",
            "url": "https://haz-map.com/Agents/2168",
            "category": "agents"
          },
          {
            "type": "name_match",
            "text": "galactitol",
            "confidence": 1.0,
            "uuid": "d732a4a7-19c4-4d0c-a155-c487e4042d2e",
            "name": "Galactitol",
            "url": "https://haz-map.com/Agents/14352",
            "category": "agents"
          },
          {
            "type": "name_match",
            "text": "lactose",
            "confidence": 1.0,
            "uuid": "a9f8c81c-bfa0-43e4-a9eb-6e39fa70ab2c",
            "name": "Lactose",
            "url": "https://haz-map.com/Agents/15057",
            "category": "agents"
          },
          {
            "type": "fuzzy_match",
            "text": "crystalline",
            "matched_name": "Silica, crystalline",
            "confidence": 0.7061403508771931,
            "uuid": "f920e8a2-46df-41b7-af8d-0368a777251e",
            "category": "agents",
            "url": "https://haz-map.com/Agents/427"
          }
        ]
      },
      "comments": {
        "original_name": "Comments",
        "value": "May cause irritation; [Alfa Aesar MSDS]",
        "links": [],
        "cross_references": []
      },
      "biomedical_references": {
        "original_name": "Biomedical References",
        "value": "Search PubMed",
        "links": [
          {
            "text": "Search PubMed",
            "url": "https://www.ncbi.nlm.nih.gov/pubmed?term=Galactitol%20AND%20human%5Bmh%5D%20AND%20%28Occupational%20Diseases%20%5Bmh%5D%20OR%20Occupational%20Exposure%20%5Bmh%5D%29%20%20AND%20%28tox%5Bsb%5D%29&cmd=search"
          }
        ],
        "cross_references": []
      }
    },
    "exposure_assessment": {
      "vapor_pressure": {
        "original_name": "Vapor Pressure",
        "value": "4.92E-09 mm Hg",
        "links": [],
        "cross_references": []
      }
    },
    "diseases_processes_and_activities_linked_to_this_agent": {
      "other_information": {
        "original_name": "Other Information",
        "value": "No other related information on this agent was found.",
        "links": [],
        "cross_references": []
      }
    }
  },
  "cross_references": [
    {
      "type": "name_match",
      "text": "cataract",
      "confidence": 1.0,
      "uuid": "3e1b6957-4241-488a-8796-192306a93517",
      "name": "cataract",
      "url": "https://haz-map.com/Findings/131",
      "category": "findings"
    },
    {
      "type": "name_match",
      "text": "lead",
      "confidence": 1.0,
      "uuid": "24246eba-13d7-456a-a142-ceae0f1df43f",
      "name": "Lead",
      "url": "https://haz-map.com/Agents/10",
      "category": "agents"
    },
    {
      "type": "name_match",
      "text": "ht",
      "confidence": 1.0,
      "uuid": "764df367-8d53-4a11-81a2-31ccfe122a8d",
      "name": "HT",
      "url": "https://haz-map.com/Agents/2168",
      "category": "agents"
    },
    {
      "type": "name_match",
      "text": "galactitol",
      "confidence": 1.0,
      "uuid": "d732a4a7-19c4-4d0c-a155-c487e4042d2e",
      "name": "Galactitol",
      "url": "https://haz-map.com/Agents/14352",
      "category": "agents"
    },
    {
      "type": "name_match",
      "text": "lactose",
      "confidence": 1.0,
      "uuid": "a9f8c81c-bfa0-43e4-a9eb-6e39fa70ab2c",
      "name": "Lactose",
      "url": "https://haz-map.com/Agents/15057",
      "category": "agents"
    },
    {
      "type": "fuzzy_match",
      "text": "crystalline",
      "matched_name": "Silica, crystalline",
      "confidence": 0.7061403508771931,
      "uuid": "f920e8a2-46df-41b7-af8d-0368a777251e",
      "category": "agents",
      "url": "https://haz-map.com/Agents/427"
    }
  ],
  "all_links": [
    {
      "text": "Search PubMed",
      "url": "https://www.ncbi.nlm.nih.gov/pubmed?term=Galactitol%20AND%20human%5Bmh%5D%20AND%20%28Occupational%20Diseases%20%5Bmh%5D%20OR%20Occupational%20Exposure%20%5Bmh%5D%29%20%20AND%20%28tox%5Bsb%5D%29&cmd=search"
    }
  ]
}