{
  "metadata": {
    "scraped_from": "https://haz-map.com/Agents/16666",
    "entity_name": "Poly(2,2,4-trimethyl-1,2-dihydroquinoline)",
    "category": "agents",
    "uuid": "d73ffa76-be91-46e4-a138-dfc9f23efc24",
    "scraped_at": "2025-07-23T21:39:28.431254"
  },
  "parsed_at": "2025-07-24T01:18:48.183484",
  "title": "Poly(2,2,4-trimethyl-1,2-dihydroquinoline)",
  "sections": {
    "general": {
      "agent_name": {
        "original_name": "Agent Name",
        "value": "Poly(2,2,4-trimethyl-1,2-dihydroquinoline)",
        "links": [],
        "cross_references": [
          {
            "type": "name_match",
            "text": "quinoline",
            "confidence": 1.0,
            "uuid": "ba9097a5-8299-4dfd-a74a-f179b7d465d1",
            "name": "Quinoline",
            "url": "https://haz-map.com/Agents/6937",
            "category": "agents"
          },
          {
            "type": "name_match",
            "text": "poly(2,2,4-trimethyl-1,2-dihydroquinoline)",
            "confidence": 1.0,
            "uuid": "d73ffa76-be91-46e4-a138-dfc9f23efc24",
            "name": "Poly(2,2,4-trimethyl-1,2-dihydroquinoline)",
            "url": "https://haz-map.com/Agents/16666",
            "category": "agents"
          }
        ]
      },
      "cas_number": {
        "original_name": "CAS Number",
        "value": "26780-96-1",
        "links": [],
        "cross_references": []
      },
      "formula": {
        "original_name": "Formula",
        "value": "(C12-H15-N)x-",
        "links": [],
        "cross_references": []
      },
      "major_category": {
        "original_name": "Major Category",
        "value": "Plastics & Rubber",
        "links": [],
        "cross_references": []
      },
      "synonyms": {
        "original_name": "Synonyms",
        "value": "1,2-Dihydro-2,2,4-trimethylquinoline homopolymer; 2,2,4-Trimethyl-1,2-dihydroquinoline polymer; Acetonanil; AgeRite MA; Antigene RDF; Antioxidant HS; Antioxidant HSL; Flectol H; Flectol H, polymer; Nocrac 224; Nonflex RD; Permanax 45; Permanax TQ; Polnoks R; Quinoline, 1,2-dihydro-2,2,4-trimethyl-, homopolymer; Trimethyldihydroquinoline polymer; Poly(1,2-dihydro-2,2,4-trimethylquinoline); [ChemIDplus] 1,2-Dihydro-2,2,4-trimethylquinoline polymer; AgeRite Resin D; Anox HB; Antage RD; Antigene RD; Antigene RD-G; Flectol Flakes; Forte RD; HS; HS (antioxidant); HSL; Lowinox ACP; Naugard Q; Nocrac 224S; Nonflex QS; Quinoline, 1,2-dihydro-2,2,4-trimethyl-, polymers; Ryphosan S; TDQP; Ultranox 254; Vanlube RD; Vulkanox HS; Vulkanox HS-LG; [CAMEO] Akrochem Antioxidant DQ Powder; Trimethyldihydroquinoline, Polymerized; [Akrochem MSDS]",
        "links": [],
        "cross_references": [
          {
            "type": "name_match",
            "text": "1,2-dihydro-2,2,4-trimethylquinoline",
            "confidence": 1.0,
            "uuid": "329bcd14-9ed3-411b-9cfc-079bbd4966f7",
            "name": "1,2-Dihydro-2,2,4-trimethylquinoline",
            "url": "https://haz-map.com/Agents/2759",
            "category": "agents"
          },
          {
            "type": "name_match",
            "text": "quinoline",
            "confidence": 1.0,
            "uuid": "ba9097a5-8299-4dfd-a74a-f179b7d465d1",
            "name": "Quinoline",
            "url": "https://haz-map.com/Agents/6937",
            "category": "agents"
          }
        ]
      },
      "category": {
        "original_name": "Category",
        "value": "Polymers",
        "links": [],
        "cross_references": []
      },
      "description": {
        "original_name": "Description",
        "value": "Yellowish to amber solid with a mild odor; [CAMEO] Yellow to brown powder;",
        "links": [],
        "cross_references": []
      },
      "sourcesuses": {
        "original_name": "Sources/Uses",
        "value": "Used as an antioxidant and stabilizer or polymerization inhibitor; [NTP]",
        "links": [],
        "cross_references": []
      },
      "comments": {
        "original_name": "Comments",
        "value": "Causes impaired liver function tests and changes in liver weight in 6-week oral studies of rats; [RTECS] May cause eye irritation; Prolonged exposure may cause skin irritation; [NTP] May cause mechanical irritation; Harmful by ingestion; [Akrochem MSDS] See \"1,2-Dihydro-2,2,4-trimethylquinoline.\"",
        "links": [],
        "cross_references": [
          {
            "type": "name_match",
            "text": "ht",
            "confidence": 1.0,
            "uuid": "764df367-8d53-4a11-81a2-31ccfe122a8d",
            "name": "HT",
            "url": "https://haz-map.com/Agents/2168",
            "category": "agents"
          },
          {
            "type": "name_match",
            "text": "1,2-dihydro-2,2,4-trimethylquinoline",
            "confidence": 1.0,
            "uuid": "329bcd14-9ed3-411b-9cfc-079bbd4966f7",
            "name": "1,2-Dihydro-2,2,4-trimethylquinoline",
            "url": "https://haz-map.com/Agents/2759",
            "category": "agents"
          },
          {
            "type": "name_match",
            "text": "quinoline",
            "confidence": 1.0,
            "uuid": "ba9097a5-8299-4dfd-a74a-f179b7d465d1",
            "name": "Quinoline",
            "url": "https://haz-map.com/Agents/6937",
            "category": "agents"
          },
          {
            "type": "fuzzy_match",
            "text": "liver function test",
            "matched_name": "liver function test, abnormal",
            "confidence": 0.7099391480730223,
            "uuid": "914c0118-6d54-441d-ad3a-44c52b3d4e41",
            "category": "findings",
            "url": "https://haz-map.com/Findings/202"
          }
        ]
      },
      "restricted": {
        "original_name": "Restricted",
        "value": "Banned for use in contact with food; [EPA]",
        "links": [],
        "cross_references": []
      },
      "biomedical_references": {
        "original_name": "Biomedical References",
        "value": "Search PubMed",
        "links": [
          {
            "text": "Search PubMed",
            "url": "https://www.ncbi.nlm.nih.gov/pubmed?term=Poly(2%2c2%2c4-trimethyl-1%2c2-dihydroquinoline)%20AND%20human%5Bmh%5D%20AND%20%28Occupational%20Diseases%20%5Bmh%5D%20OR%20Occupational%20Exposure%20%5Bmh%5D%29%20%20AND%20%28tox%5Bsb%5D%29&cmd=search"
          }
        ],
        "cross_references": []
      }
    },
    "exposure_assessment": {
      "explanatory_notes": {
        "original_name": "Explanatory Notes",
        "value": "Vapor pressure = 73.5 mm Hg @ 50 deg C; [CAMEO]",
        "links": [],
        "cross_references": []
      }
    },
    "adverse_effects": {
      "hepatotoxin": {
        "original_name": "Hepatotoxin",
        "value": "Hepatoxic (a) from occupational exposure (secondary effect) or (b) in animal studies or in humans after ingestion",
        "links": [],
        "cross_references": []
      }
    },
    "diseases_processes_and_activities_linked_to_this_agent": {
      "other_information": {
        "original_name": "Other Information",
        "value": "No other related information on this agent was found.",
        "links": [],
        "cross_references": []
      }
    }
  },
  "cross_references": [
    {
      "type": "name_match",
      "text": "ht",
      "confidence": 1.0,
      "uuid": "764df367-8d53-4a11-81a2-31ccfe122a8d",
      "name": "HT",
      "url": "https://haz-map.com/Agents/2168",
      "category": "agents"
    },
    {
      "type": "name_match",
      "text": "1,2-dihydro-2,2,4-trimethylquinoline",
      "confidence": 1.0,
      "uuid": "329bcd14-9ed3-411b-9cfc-079bbd4966f7",
      "name": "1,2-Dihydro-2,2,4-trimethylquinoline",
      "url": "https://haz-map.com/Agents/2759",
      "category": "agents"
    },
    {
      "type": "name_match",
      "text": "quinoline",
      "confidence": 1.0,
      "uuid": "ba9097a5-8299-4dfd-a74a-f179b7d465d1",
      "name": "Quinoline",
      "url": "https://haz-map.com/Agents/6937",
      "category": "agents"
    },
    {
      "type": "name_match",
      "text": "poly(2,2,4-trimethyl-1,2-dihydroquinoline)",
      "confidence": 1.0,
      "uuid": "d73ffa76-be91-46e4-a138-dfc9f23efc24",
      "name": "Poly(2,2,4-trimethyl-1,2-dihydroquinoline)",
      "url": "https://haz-map.com/Agents/16666",
      "category": "agents"
    },
    {
      "type": "fuzzy_match",
      "text": "liver function test",
      "matched_name": "liver function test, abnormal",
      "confidence": 0.7099391480730223,
      "uuid": "914c0118-6d54-441d-ad3a-44c52b3d4e41",
      "category": "findings",
      "url": "https://haz-map.com/Findings/202"
    }
  ],
  "all_links": [
    {
      "text": "Search PubMed",
      "url": "https://www.ncbi.nlm.nih.gov/pubmed?term=Poly(2%2c2%2c4-trimethyl-1%2c2-dihydroquinoline)%20AND%20human%5Bmh%5D%20AND%20%28Occupational%20Diseases%20%5Bmh%5D%20OR%20Occupational%20Exposure%20%5Bmh%5D%29%20%20AND%20%28tox%5Bsb%5D%29&cmd=search"
    }
  ]
}