{
  "metadata": {
    "scraped_from": "https://haz-map.com/Agents/3270",
    "entity_name": "4'-Hydroxy-4-aminoazobenzene",
    "category": "agents",
    "uuid": "d7437449-e9c0-497c-9552-7d9088b1abd9",
    "scraped_at": "2025-07-23T19:26:43.290938"
  },
  "parsed_at": "2025-07-24T00:51:23.224322",
  "title": "4'-Hydroxy-4-aminoazobenzene",
  "sections": {
    "general": {
      "agent_name": {
        "original_name": "Agent Name",
        "value": "4'-Hydroxy-4-aminoazobenzene",
        "links": [],
        "cross_references": [
          {
            "type": "name_match",
            "text": "benzene",
            "confidence": 1.0,
            "uuid": "b05124de-5f34-4c14-8f04-ccb20c3780d9",
            "name": "Benzene",
            "url": "https://haz-map.com/Agents/5",
            "category": "agents"
          },
          {
            "type": "name_match",
            "text": "4'-hydroxy-4-aminoazobenzene",
            "confidence": 1.0,
            "uuid": "d7437449-e9c0-497c-9552-7d9088b1abd9",
            "name": "4'-Hydroxy-4-aminoazobenzene",
            "url": "https://haz-map.com/Agents/3270",
            "category": "agents"
          },
          {
            "type": "name_match",
            "text": "azobenzene",
            "confidence": 1.0,
            "uuid": "e1a05c98-d051-4091-8654-3bf45ff3ecbf",
            "name": "Azobenzene",
            "url": "https://haz-map.com/Agents/3789",
            "category": "agents"
          }
        ]
      },
      "cas_number": {
        "original_name": "CAS Number",
        "value": "103-18-4",
        "links": [],
        "cross_references": []
      },
      "formula": {
        "original_name": "Formula",
        "value": "C12-H11-N3-O",
        "links": [],
        "cross_references": []
      },
      "major_category": {
        "original_name": "Major Category",
        "value": "Dyes",
        "links": [],
        "cross_references": []
      },
      "synonyms": {
        "original_name": "Synonyms",
        "value": "4-Amino-4'-hydroxyazobenzene; Azobenzene, 4-amino-4'-hydroxy-; Phenol, 4-((4-aminophenyl)azo)-; Phenol, p-((p-aminophenyl)azo)-; p-((p-Aminophenyl)azo)phenol; [ChemIDplus]",
        "links": [],
        "cross_references": [
          {
            "type": "name_match",
            "text": "benzene",
            "confidence": 1.0,
            "uuid": "b05124de-5f34-4c14-8f04-ccb20c3780d9",
            "name": "Benzene",
            "url": "https://haz-map.com/Agents/5",
            "category": "agents"
          },
          {
            "type": "name_match",
            "text": "phenol",
            "confidence": 1.0,
            "uuid": "03141a03-a7df-4f51-9a37-adde1a7c4b31",
            "name": "Phenol",
            "url": "https://haz-map.com/Agents/84",
            "category": "agents"
          },
          {
            "type": "name_match",
            "text": "azobenzene",
            "confidence": 1.0,
            "uuid": "e1a05c98-d051-4091-8654-3bf45ff3ecbf",
            "name": "Azobenzene",
            "url": "https://haz-map.com/Agents/3789",
            "category": "agents"
          }
        ]
      },
      "category": {
        "original_name": "Category",
        "value": "Azo Dyes",
        "links": [],
        "cross_references": []
      },
      "comments": {
        "original_name": "Comments",
        "value": "Causes sleep in lethal-dose feeding studies of rats; [RTECS] Emergency treatment: Methemoglobinemia; [HSDB]",
        "links": [],
        "cross_references": [
          {
            "type": "name_match",
            "text": "methemoglobin",
            "confidence": 1.0,
            "uuid": "afb7ebf5-d2a3-4e60-8d2e-3a19456344ee",
            "name": "Methemoglobin",
            "url": "https://haz-map.com/Agents/15467",
            "category": "agents"
          },
          {
            "type": "fuzzy_match",
            "text": "methemoglobinemia",
            "matched_name": "Methemoglobinemia, acute",
            "confidence": 0.7208333333333333,
            "uuid": "473a44bd-cf11-4710-a769-e8e2b25ba317",
            "category": "diseases",
            "url": "https://haz-map.com/Diseases/210"
          }
        ]
      },
      "biomedical_references": {
        "original_name": "Biomedical References",
        "value": "Search PubMed",
        "links": [
          {
            "text": "Search PubMed",
            "url": "https://www.ncbi.nlm.nih.gov/pubmed?term=4%26%2339%3b-Hydroxy-4-aminoazobenzene%20AND%20human%5Bmh%5D%20AND%20%28Occupational%20Diseases%20%5Bmh%5D%20OR%20Occupational%20Exposure%20%5Bmh%5D%29%20%20AND%20%28tox%5Bsb%5D%29&cmd=search"
          }
        ],
        "cross_references": []
      }
    },
    "exposure_assessment": {
      "vapor_pressure": {
        "original_name": "Vapor Pressure",
        "value": "5.39E-07 mm Hg",
        "links": [],
        "cross_references": []
      }
    },
    "adverse_effects": {
      "methemoglobinemia": {
        "original_name": "Methemoglobinemia",
        "value": "MetHgb is secondary toxic effect",
        "links": [],
        "cross_references": []
      }
    },
    "diseases_processes_and_activities_linked_to_this_agent": {
      "other_information": {
        "original_name": "Other Information",
        "value": "No other related information on this agent was found.",
        "links": [],
        "cross_references": []
      }
    }
  },
  "cross_references": [
    {
      "type": "name_match",
      "text": "benzene",
      "confidence": 1.0,
      "uuid": "b05124de-5f34-4c14-8f04-ccb20c3780d9",
      "name": "Benzene",
      "url": "https://haz-map.com/Agents/5",
      "category": "agents"
    },
    {
      "type": "name_match",
      "text": "phenol",
      "confidence": 1.0,
      "uuid": "03141a03-a7df-4f51-9a37-adde1a7c4b31",
      "name": "Phenol",
      "url": "https://haz-map.com/Agents/84",
      "category": "agents"
    },
    {
      "type": "name_match",
      "text": "4'-hydroxy-4-aminoazobenzene",
      "confidence": 1.0,
      "uuid": "d7437449-e9c0-497c-9552-7d9088b1abd9",
      "name": "4'-Hydroxy-4-aminoazobenzene",
      "url": "https://haz-map.com/Agents/3270",
      "category": "agents"
    },
    {
      "type": "name_match",
      "text": "azobenzene",
      "confidence": 1.0,
      "uuid": "e1a05c98-d051-4091-8654-3bf45ff3ecbf",
      "name": "Azobenzene",
      "url": "https://haz-map.com/Agents/3789",
      "category": "agents"
    },
    {
      "type": "name_match",
      "text": "methemoglobin",
      "confidence": 1.0,
      "uuid": "afb7ebf5-d2a3-4e60-8d2e-3a19456344ee",
      "name": "Methemoglobin",
      "url": "https://haz-map.com/Agents/15467",
      "category": "agents"
    },
    {
      "type": "fuzzy_match",
      "text": "methemoglobinemia",
      "matched_name": "Methemoglobinemia, acute",
      "confidence": 0.7208333333333333,
      "uuid": "473a44bd-cf11-4710-a769-e8e2b25ba317",
      "category": "diseases",
      "url": "https://haz-map.com/Diseases/210"
    }
  ],
  "all_links": [
    {
      "text": "Search PubMed",
      "url": "https://www.ncbi.nlm.nih.gov/pubmed?term=4%26%2339%3b-Hydroxy-4-aminoazobenzene%20AND%20human%5Bmh%5D%20AND%20%28Occupational%20Diseases%20%5Bmh%5D%20OR%20Occupational%20Exposure%20%5Bmh%5D%29%20%20AND%20%28tox%5Bsb%5D%29&cmd=search"
    }
  ]
}