{
  "metadata": {
    "scraped_from": "https://haz-map.com/Agents/20696",
    "entity_name": "Ethyl 2-bromoisobutyrate",
    "category": "agents",
    "uuid": "d74fa4f9-02b4-44b9-81db-30dd64bffeb7",
    "scraped_at": "2025-07-23T22:30:06.875229"
  },
  "parsed_at": "2025-07-24T01:13:50.415447",
  "title": "Ethyl 2-bromoisobutyrate",
  "sections": {
    "general": {
      "agent_name": {
        "original_name": "Agent Name",
        "value": "Ethyl 2-bromoisobutyrate",
        "links": [],
        "cross_references": [
          {
            "type": "name_match",
            "text": "ethyl 2-bromoisobutyrate",
            "confidence": 1.0,
            "uuid": "d74fa4f9-02b4-44b9-81db-30dd64bffeb7",
            "name": "Ethyl 2-bromoisobutyrate",
            "url": "https://haz-map.com/Agents/20696",
            "category": "agents"
          }
        ]
      },
      "cas_number": {
        "original_name": "CAS Number",
        "value": "600-00-0",
        "links": [],
        "cross_references": []
      },
      "formula": {
        "original_name": "Formula",
        "value": "C6-H11-Br-O2",
        "links": [],
        "cross_references": []
      },
      "major_category": {
        "original_name": "Major Category",
        "value": "Other Classes",
        "links": [],
        "cross_references": []
      },
      "synonyms": {
        "original_name": "Synonyms",
        "value": "2-Bromo-2-methylpropanoic acid, ethyl ester; alpha-Bromoisobutyric acid, ethyl ester; Ethyl 2-bromo-2-methylpropanoate; Ethyl 2-bromo-2-methylpropionate; Ethyl alpha-bromo-alpha-methylpropionate; Ethyl alpha-bromoisobutyrate; Propionic acid, 2-bromo-2-methyl-, ethyl ester; Propanoic acid, 2-bromo-2-methyl-, ethyl ester; [ChemIDplus] 2-Bromoisobutyric acid ethyl ester; [Sigma-Aldrich MSDS] UN1993",
        "links": [],
        "cross_references": [
          {
            "type": "name_match",
            "text": "propionic acid",
            "confidence": 1.0,
            "uuid": "519c4d0a-ac6f-4f79-a08f-47ebc278e0b4",
            "name": "Propionic acid",
            "url": "https://haz-map.com/Agents/609",
            "category": "agents"
          },
          {
            "type": "name_match",
            "text": "butyric acid",
            "confidence": 1.0,
            "uuid": "a59c4184-bd52-40af-8450-80d14bbee018",
            "name": "Butyric acid",
            "url": "https://haz-map.com/Agents/1391",
            "category": "agents"
          },
          {
            "type": "name_match",
            "text": "2-methylpropanoic acid",
            "confidence": 1.0,
            "uuid": "06a63fc4-897a-4d88-b046-38b7cf85afdf",
            "name": "2-Methylpropanoic acid",
            "url": "https://haz-map.com/Agents/3459",
            "category": "agents"
          }
        ]
      },
      "category": {
        "original_name": "Category",
        "value": "Halogenated Esters",
        "links": [],
        "cross_references": []
      },
      "description": {
        "original_name": "Description",
        "value": "Clear light yellow liquid; [Sigma-Aldrich MSDS]",
        "links": [],
        "cross_references": [
          {
            "type": "name_match",
            "text": "ht",
            "confidence": 1.0,
            "uuid": "764df367-8d53-4a11-81a2-31ccfe122a8d",
            "name": "HT",
            "url": "https://haz-map.com/Agents/2168",
            "category": "agents"
          }
        ]
      },
      "sourcesuses": {
        "original_name": "Sources/Uses",
        "value": "Used to make fine and large scale chemicals and pharmaceuticals; [ECHA REACH Registrations]",
        "links": [],
        "cross_references": [
          {
            "type": "name_match",
            "text": "mica",
            "confidence": 1.0,
            "uuid": "433f26f1-c399-4596-b179-ce3843cfd465",
            "name": "Mica",
            "url": "https://haz-map.com/Agents/621",
            "category": "agents"
          },
          {
            "type": "name_match",
            "text": "pharmaceuticals",
            "confidence": 1.0,
            "uuid": "713c3c30-b67e-4a2f-a90f-b32f8a306332",
            "name": "PHARMACEUTICALS",
            "url": "https://haz-map.com/Agents/1000",
            "category": "agents"
          }
        ]
      },
      "comments": {
        "original_name": "Comments",
        "value": "A mild skin and severe eye irritant (may cause eye injury); May cause skin sensitization; Possible mutagen by oral exposure; [ECHA REACH Registrations] An irritant that may cause serious eye injury; A lachrymator; Harmful by ingestion; [Sigma-Aldrich MSDS] See \"Ethyl 2-bromopropionate.\"",
        "links": [],
        "cross_references": [
          {
            "type": "name_match",
            "text": "ethyl 2-bromopropionate",
            "confidence": 1.0,
            "uuid": "dbd07f91-dbf7-430a-8ea7-50891284d955",
            "name": "Ethyl 2-bromopropionate",
            "url": "https://haz-map.com/Agents/20697",
            "category": "agents"
          }
        ]
      },
      "biomedical_references": {
        "original_name": "Biomedical References",
        "value": "Search PubMed",
        "links": [
          {
            "text": "Search PubMed",
            "url": "https://www.ncbi.nlm.nih.gov/pubmed?term=Ethyl+2-bromoisobutyrate%20AND%20human%5Bmh%5D%20AND%20%28Occupational%20Diseases%20%5Bmh%5D%20OR%20Occupational%20Exposure%20%5Bmh%5D%29%20%20AND%20%28tox%5Bsb%5D%29&cmd=search"
          }
        ],
        "cross_references": []
      }
    },
    "exposure_assessment": {
      "vapor_pressure": {
        "original_name": "Vapor Pressure",
        "value": "2.61 mm Hg",
        "links": [],
        "cross_references": []
      },
      "explanatory_notes": {
        "original_name": "Explanatory Notes",
        "value": "The Guide in the Emergency Response Guidebook is for \"Flammable liquid, n.o.s.\"",
        "links": [],
        "cross_references": []
      }
    },
    "adverse_effects": {
      "skin_sensitizer": {
        "original_name": "Skin Sensitizer",
        "value": "Yes",
        "links": [],
        "cross_references": []
      },
      "lachrymator": {
        "original_name": "Lachrymator",
        "value": "Yes",
        "links": [],
        "cross_references": []
      }
    },
    "diseases_processes_and_activities_linked_to_this_agent": {
      "diseases": {
        "original_name": "Diseases",
        "value": "Occupational diseases associated with exposure to this agent: Contact dermatitis, allergic",
        "links": [
          {
            "text": "Contact dermatitis, allergic",
            "url": "https://haz-map.com/Diseases/18"
          }
        ],
        "cross_references": [
          {
            "type": "url_match",
            "text": "Contact dermatitis, allergic",
            "url": "https://haz-map.com/Diseases/18",
            "confidence": 1.0,
            "uuid": "c9499de0-9aa1-41bf-8753-cd5b28a63e29",
            "name": "Contact dermatitis, allergic",
            "category": "diseases"
          },
          {
            "type": "name_match",
            "text": "dermatitis",
            "confidence": 1.0,
            "uuid": "fe9c05f2-b19f-4ceb-ac7a-ffb7d7a0cae0",
            "name": "dermatitis",
            "url": "https://haz-map.com/Findings/59",
            "category": "findings"
          }
        ]
      }
    }
  },
  "cross_references": [
    {
      "type": "url_match",
      "text": "Contact dermatitis, allergic",
      "url": "https://haz-map.com/Diseases/18",
      "confidence": 1.0,
      "uuid": "c9499de0-9aa1-41bf-8753-cd5b28a63e29",
      "name": "Contact dermatitis, allergic",
      "category": "diseases"
    },
    {
      "type": "name_match",
      "text": "dermatitis",
      "confidence": 1.0,
      "uuid": "fe9c05f2-b19f-4ceb-ac7a-ffb7d7a0cae0",
      "name": "dermatitis",
      "url": "https://haz-map.com/Findings/59",
      "category": "findings"
    },
    {
      "type": "name_match",
      "text": "propionic acid",
      "confidence": 1.0,
      "uuid": "519c4d0a-ac6f-4f79-a08f-47ebc278e0b4",
      "name": "Propionic acid",
      "url": "https://haz-map.com/Agents/609",
      "category": "agents"
    },
    {
      "type": "name_match",
      "text": "mica",
      "confidence": 1.0,
      "uuid": "433f26f1-c399-4596-b179-ce3843cfd465",
      "name": "Mica",
      "url": "https://haz-map.com/Agents/621",
      "category": "agents"
    },
    {
      "type": "name_match",
      "text": "pharmaceuticals",
      "confidence": 1.0,
      "uuid": "713c3c30-b67e-4a2f-a90f-b32f8a306332",
      "name": "PHARMACEUTICALS",
      "url": "https://haz-map.com/Agents/1000",
      "category": "agents"
    },
    {
      "type": "name_match",
      "text": "butyric acid",
      "confidence": 1.0,
      "uuid": "a59c4184-bd52-40af-8450-80d14bbee018",
      "name": "Butyric acid",
      "url": "https://haz-map.com/Agents/1391",
      "category": "agents"
    },
    {
      "type": "name_match",
      "text": "ht",
      "confidence": 1.0,
      "uuid": "764df367-8d53-4a11-81a2-31ccfe122a8d",
      "name": "HT",
      "url": "https://haz-map.com/Agents/2168",
      "category": "agents"
    },
    {
      "type": "name_match",
      "text": "2-methylpropanoic acid",
      "confidence": 1.0,
      "uuid": "06a63fc4-897a-4d88-b046-38b7cf85afdf",
      "name": "2-Methylpropanoic acid",
      "url": "https://haz-map.com/Agents/3459",
      "category": "agents"
    },
    {
      "type": "name_match",
      "text": "ethyl 2-bromoisobutyrate",
      "confidence": 1.0,
      "uuid": "d74fa4f9-02b4-44b9-81db-30dd64bffeb7",
      "name": "Ethyl 2-bromoisobutyrate",
      "url": "https://haz-map.com/Agents/20696",
      "category": "agents"
    },
    {
      "type": "name_match",
      "text": "ethyl 2-bromopropionate",
      "confidence": 1.0,
      "uuid": "dbd07f91-dbf7-430a-8ea7-50891284d955",
      "name": "Ethyl 2-bromopropionate",
      "url": "https://haz-map.com/Agents/20697",
      "category": "agents"
    }
  ],
  "all_links": [
    {
      "text": "Search PubMed",
      "url": "https://www.ncbi.nlm.nih.gov/pubmed?term=Ethyl+2-bromoisobutyrate%20AND%20human%5Bmh%5D%20AND%20%28Occupational%20Diseases%20%5Bmh%5D%20OR%20Occupational%20Exposure%20%5Bmh%5D%29%20%20AND%20%28tox%5Bsb%5D%29&cmd=search"
    },
    {
      "text": "Contact dermatitis, allergic",
      "url": "https://haz-map.com/Diseases/18"
    }
  ]
}