{
  "metadata": {
    "scraped_from": "https://haz-map.com/Agents/11965",
    "entity_name": "Arginine",
    "category": "agents",
    "uuid": "d7acadad-85e4-4d5b-bfc9-ddfb74c71d46",
    "scraped_at": "2025-07-23T21:04:41.302535"
  },
  "parsed_at": "2025-07-24T01:09:53.297451",
  "title": "Arginine",
  "sections": {
    "general": {
      "agent_name": {
        "original_name": "Agent Name",
        "value": "Arginine",
        "links": [],
        "cross_references": [
          {
            "type": "name_match",
            "text": "arginine",
            "confidence": 1.0,
            "uuid": "d7acadad-85e4-4d5b-bfc9-ddfb74c71d46",
            "name": "Arginine",
            "url": "https://haz-map.com/Agents/11965",
            "category": "agents"
          }
        ]
      },
      "cas_number": {
        "original_name": "CAS Number",
        "value": "74-79-3",
        "links": [],
        "cross_references": []
      },
      "formula": {
        "original_name": "Formula",
        "value": "C6-H14-N4-O2",
        "links": [],
        "cross_references": []
      },
      "major_category": {
        "original_name": "Major Category",
        "value": "Biological Agents",
        "links": [],
        "cross_references": []
      },
      "synonyms": {
        "original_name": "Synonyms",
        "value": "L-Arginine; (L)-Arginine; (S)-2-Amino-5-((aminoiminomethyl)amino)pentanoic acid; Arginina [INN-Spanish]; Argininum [INN-Latin]; L-(+)-Arginine; L-Norvaline, 5-((aminoiminomethyl)amino)-; L-Ornithine, N5-(aminoiminomethyl)-; L-alpha-Amino-delta-guanidinovaleric acid; Pentanoic acid, 2-amino-5-((aminoiminomethyl)amino)-, (S)-; Arginine, L-; [ChemIDplus] Arg; R; 2-Amino-5-guanidinovaleric acid; [Merck Index]",
        "links": [],
        "cross_references": [
          {
            "type": "name_match",
            "text": "arginine",
            "confidence": 1.0,
            "uuid": "d7acadad-85e4-4d5b-bfc9-ddfb74c71d46",
            "name": "Arginine",
            "url": "https://haz-map.com/Agents/11965",
            "category": "agents"
          },
          {
            "type": "name_match",
            "text": "valine",
            "confidence": 1.0,
            "uuid": "2284e5a1-ea67-4774-8b4e-3eaa65e20c4f",
            "name": "Valine",
            "url": "https://haz-map.com/Agents/18597",
            "category": "agents"
          },
          {
            "type": "name_match",
            "text": "ornithine",
            "confidence": 1.0,
            "uuid": "6221b594-9a66-4da9-bf76-8a3f58ef065c",
            "name": "Ornithine",
            "url": "https://haz-map.com/Agents/19054",
            "category": "agents"
          }
        ]
      },
      "category": {
        "original_name": "Category",
        "value": "Amino Acids and Derivatives",
        "links": [],
        "cross_references": []
      },
      "description": {
        "original_name": "Description",
        "value": "Solid; [Merck Index] White powder; [Sigma-Aldrich MSDS]",
        "links": [],
        "cross_references": []
      },
      "sourcesuses": {
        "original_name": "Sources/Uses",
        "value": "An essential amino acid; Used as an ammonia detoxicant and diagnostic aid; [Merck Index] Used as a nutritional supplement for foods; [FDA] Used in biochemical research, pharmaceuticals, as a dietary supplement, and medication; [HSDB]",
        "links": [],
        "cross_references": [
          {
            "type": "name_match",
            "text": "ammonia",
            "confidence": 1.0,
            "uuid": "4a9ab845-a2cc-47e0-ab5c-e53693380800",
            "name": "Ammonia",
            "url": "https://haz-map.com/Agents/291",
            "category": "agents"
          },
          {
            "type": "name_match",
            "text": "mica",
            "confidence": 1.0,
            "uuid": "433f26f1-c399-4596-b179-ce3843cfd465",
            "name": "Mica",
            "url": "https://haz-map.com/Agents/621",
            "category": "agents"
          },
          {
            "type": "name_match",
            "text": "pharmaceuticals",
            "confidence": 1.0,
            "uuid": "713c3c30-b67e-4a2f-a90f-b32f8a306332",
            "name": "PHARMACEUTICALS",
            "url": "https://haz-map.com/Agents/1000",
            "category": "agents"
          }
        ]
      },
      "comments": {
        "original_name": "Comments",
        "value": "Safe when used as a flavoring agent in food; [JECFA] May cause irritation; [Sigma-Aldrich MSDS]",
        "links": [],
        "cross_references": []
      },
      "biomedical_references": {
        "original_name": "Biomedical References",
        "value": "Search PubMed",
        "links": [
          {
            "text": "Search PubMed",
            "url": "https://www.ncbi.nlm.nih.gov/pubmed?term=Arginine%20AND%20human%5Bmh%5D%20AND%20%28Occupational%20Diseases%20%5Bmh%5D%20OR%20Occupational%20Exposure%20%5Bmh%5D%29%20%20AND%20%28tox%5Bsb%5D%29&cmd=search"
          }
        ],
        "cross_references": []
      }
    },
    "exposure_assessment": {
      "vapor_pressure": {
        "original_name": "Vapor Pressure",
        "value": "1.39E-09 mm Hg",
        "links": [],
        "cross_references": []
      }
    },
    "diseases_processes_and_activities_linked_to_this_agent": {
      "other_information": {
        "original_name": "Other Information",
        "value": "No other related information on this agent was found.",
        "links": [],
        "cross_references": []
      }
    }
  },
  "cross_references": [
    {
      "type": "name_match",
      "text": "ammonia",
      "confidence": 1.0,
      "uuid": "4a9ab845-a2cc-47e0-ab5c-e53693380800",
      "name": "Ammonia",
      "url": "https://haz-map.com/Agents/291",
      "category": "agents"
    },
    {
      "type": "name_match",
      "text": "mica",
      "confidence": 1.0,
      "uuid": "433f26f1-c399-4596-b179-ce3843cfd465",
      "name": "Mica",
      "url": "https://haz-map.com/Agents/621",
      "category": "agents"
    },
    {
      "type": "name_match",
      "text": "pharmaceuticals",
      "confidence": 1.0,
      "uuid": "713c3c30-b67e-4a2f-a90f-b32f8a306332",
      "name": "PHARMACEUTICALS",
      "url": "https://haz-map.com/Agents/1000",
      "category": "agents"
    },
    {
      "type": "name_match",
      "text": "arginine",
      "confidence": 1.0,
      "uuid": "d7acadad-85e4-4d5b-bfc9-ddfb74c71d46",
      "name": "Arginine",
      "url": "https://haz-map.com/Agents/11965",
      "category": "agents"
    },
    {
      "type": "name_match",
      "text": "valine",
      "confidence": 1.0,
      "uuid": "2284e5a1-ea67-4774-8b4e-3eaa65e20c4f",
      "name": "Valine",
      "url": "https://haz-map.com/Agents/18597",
      "category": "agents"
    },
    {
      "type": "name_match",
      "text": "ornithine",
      "confidence": 1.0,
      "uuid": "6221b594-9a66-4da9-bf76-8a3f58ef065c",
      "name": "Ornithine",
      "url": "https://haz-map.com/Agents/19054",
      "category": "agents"
    }
  ],
  "all_links": [
    {
      "text": "Search PubMed",
      "url": "https://www.ncbi.nlm.nih.gov/pubmed?term=Arginine%20AND%20human%5Bmh%5D%20AND%20%28Occupational%20Diseases%20%5Bmh%5D%20OR%20Occupational%20Exposure%20%5Bmh%5D%29%20%20AND%20%28tox%5Bsb%5D%29&cmd=search"
    }
  ]
}