{
  "metadata": {
    "scraped_from": "https://haz-map.com/Agents/20878",
    "entity_name": "Ethyl vinyl ether",
    "category": "agents",
    "uuid": "d7eab654-c0bd-41c4-ade7-7fb1ef137bbb",
    "scraped_at": "2025-07-23T22:33:33.542465"
  },
  "parsed_at": "2025-07-24T01:11:02.090773",
  "title": "Ethyl vinyl ether",
  "sections": {
    "general": {
      "agent_name": {
        "original_name": "Agent Name",
        "value": "Ethyl vinyl ether",
        "links": [],
        "cross_references": [
          {
            "type": "name_match",
            "text": "ethyl vinyl ether",
            "confidence": 1.0,
            "uuid": "d7eab654-c0bd-41c4-ade7-7fb1ef137bbb",
            "name": "Ethyl vinyl ether",
            "url": "https://haz-map.com/Agents/20878",
            "category": "agents"
          }
        ]
      },
      "alternative_name": {
        "original_name": "Alternative Name",
        "value": "Vinyl ethyl ether",
        "links": [],
        "cross_references": [
          {
            "type": "name_match",
            "text": "ethyl ether",
            "confidence": 1.0,
            "uuid": "c95edddc-9ad3-44f8-bafa-78e0bd19db3a",
            "name": "Ethyl ether",
            "url": "https://haz-map.com/Agents/455",
            "category": "agents"
          }
        ]
      },
      "cas_number": {
        "original_name": "CAS Number",
        "value": "109-92-2",
        "links": [],
        "cross_references": []
      },
      "formula": {
        "original_name": "Formula",
        "value": "C4-H8-O",
        "links": [],
        "cross_references": []
      },
      "major_category": {
        "original_name": "Major Category",
        "value": "Plastics & Rubber",
        "links": [],
        "cross_references": []
      },
      "synonyms": {
        "original_name": "Synonyms",
        "value": "1-Ethoxyethene; 1-Ethoxyethylene; Agrisynth EVE; Ethene, ethoxy; Ether, ethyl vinyl (inhibited); Ether, vinyl ethyl; Ethoxyethene; Ethoxyethylene; Ethyl ethenyl ether; EVE; Vinamar; Vinyl ethyl ether; Vinyl ethyl ether, inhibited; Ether, ethyl vinyl; [ChemIDplus] Ethyloxyethene; [CAMEO] Vinylethylether; Ethoxyethylen; [IUCLID] UN1302",
        "links": [],
        "cross_references": [
          {
            "type": "name_match",
            "text": "ethyl ether",
            "confidence": 1.0,
            "uuid": "c95edddc-9ad3-44f8-bafa-78e0bd19db3a",
            "name": "Ethyl ether",
            "url": "https://haz-map.com/Agents/455",
            "category": "agents"
          },
          {
            "type": "name_match",
            "text": "ethylene",
            "confidence": 1.0,
            "uuid": "958eacc0-5135-4b62-bb93-6df972bf552f",
            "name": "Ethylene",
            "url": "https://haz-map.com/Agents/1076",
            "category": "agents"
          }
        ]
      },
      "category": {
        "original_name": "Category",
        "value": "Other Monomers",
        "links": [],
        "cross_references": []
      },
      "description": {
        "original_name": "Description",
        "value": "Clear colorless liquid with an ether-like odor; Boiling point = 36 deg C; [ICSC]",
        "links": [],
        "cross_references": []
      },
      "sourcesuses": {
        "original_name": "Sources/Uses",
        "value": "Used to make large scale chemicals, polymers, and resins, and as a laboratory reagent; [ExPub: ECHA REACH Registrations]",
        "links": [],
        "cross_references": [
          {
            "type": "name_match",
            "text": "mica",
            "confidence": 1.0,
            "uuid": "433f26f1-c399-4596-b179-ce3843cfd465",
            "name": "Mica",
            "url": "https://haz-map.com/Agents/621",
            "category": "agents"
          }
        ]
      },
      "comments": {
        "original_name": "Comments",
        "value": "A mild skin irritant; Causes general anesthesia in inhalation lethal-concentration studies of mice; [RTECS] May polymerize on heating or contamination and form unstable peroxides on exposure to oxygen; [CAMEO] May cause CNS depression; [ICSC] A skin and eye irritant that may cause transient corneal injury; May cause reddening of skin if spilled and allowed to remain on clothes; Inhalation can cause CNS depression; High vapor concentrations may cause mild smarting of eyes and respiratory system; May cause liver injury; [CHRIS] Stabilized with 0.1% potassium hydroxide; May form explosive peroxides; A skin and strong eye irritant; Inhalation may cause unconsciousness and respiratory paralysis; May cause liver injury; [Sigma-Aldrich MSDS] Vinyl ethyl ether, stabilized (UN1302) has warning of explosive polymerization; [ERG 2016] See \"Butyl vinyl ether.\"",
        "links": [],
        "cross_references": [
          {
            "type": "name_match",
            "text": "ethyl ether",
            "confidence": 1.0,
            "uuid": "c95edddc-9ad3-44f8-bafa-78e0bd19db3a",
            "name": "Ethyl ether",
            "url": "https://haz-map.com/Agents/455",
            "category": "agents"
          },
          {
            "type": "name_match",
            "text": "potassium hydroxide",
            "confidence": 1.0,
            "uuid": "c437c099-636b-4192-9f13-628e3f255de8",
            "name": "Potassium hydroxide",
            "url": "https://haz-map.com/Agents/606",
            "category": "agents"
          },
          {
            "type": "name_match",
            "text": "potassium",
            "confidence": 1.0,
            "uuid": "41542f50-8311-43c8-9ec6-078665bee9df",
            "name": "Potassium",
            "url": "https://haz-map.com/Agents/1526",
            "category": "agents"
          },
          {
            "type": "name_match",
            "text": "oxygen",
            "confidence": 1.0,
            "uuid": "daf61849-c843-41a6-bdfb-880e4ee71d7f",
            "name": "Oxygen",
            "url": "https://haz-map.com/Agents/1564",
            "category": "agents"
          },
          {
            "type": "name_match",
            "text": "butyl vinyl ether",
            "confidence": 1.0,
            "uuid": "931ceb7a-b620-453e-8ec2-a274e2dcd6c3",
            "name": "Butyl vinyl ether",
            "url": "https://haz-map.com/Agents/4058",
            "category": "agents"
          },
          {
            "type": "name_match",
            "text": "dde",
            "confidence": 1.0,
            "uuid": "88506fb4-e7b1-4bde-a283-917057f67fc2",
            "name": "DDE",
            "url": "https://haz-map.com/Agents/4656",
            "category": "agents"
          }
        ]
      },
      "biomedical_references": {
        "original_name": "Biomedical References",
        "value": "Search PubMed",
        "links": [
          {
            "text": "Search PubMed",
            "url": "https://www.ncbi.nlm.nih.gov/pubmed?term=Ethyl+vinyl+ether%20AND%20human%5Bmh%5D%20AND%20%28Occupational%20Diseases%20%5Bmh%5D%20OR%20Occupational%20Exposure%20%5Bmh%5D%29%20%20AND%20%28tox%5Bsb%5D%29&cmd=search"
          }
        ],
        "cross_references": []
      }
    },
    "exposure_assessment": {
      "vapor_pressure": {
        "original_name": "Vapor Pressure",
        "value": "511 mm Hg",
        "links": [],
        "cross_references": []
      },
      "lethal_concentration": {
        "original_name": "Lethal Concentration",
        "value": "LCLo (rat) = 16,000 ppm/4hr",
        "links": [],
        "cross_references": []
      },
      "explosive_polymerization": {
        "original_name": "Explosive Polymerization",
        "value": "Yes",
        "links": [],
        "cross_references": []
      },
      "nfpa": {
        "original_name": "NFPA",
        "value": "burn readily",
        "links": [],
        "cross_references": [
          {
            "type": "name_match",
            "text": "burn",
            "confidence": 1.0,
            "uuid": "63665de5-6376-4918-8dbf-4c10c4d63837",
            "name": "burn",
            "url": "https://haz-map.com/Findings/204",
            "category": "findings"
          }
        ]
      }
    },
    "adverse_effects": {
      "neurotoxin": {
        "original_name": "Neurotoxin",
        "value": "Other CNS neurotoxin",
        "links": [],
        "cross_references": []
      },
      "hepatotoxin": {
        "original_name": "Hepatotoxin",
        "value": "Hepatoxic (a) from occupational exposure (secondary effect) or (b) in animal studies or in humans after ingestion",
        "links": [],
        "cross_references": []
      }
    },
    "diseases_processes_and_activities_linked_to_this_agent": {
      "other_information": {
        "original_name": "Other Information",
        "value": "No other related information on this agent was found.",
        "links": [],
        "cross_references": []
      }
    }
  },
  "cross_references": [
    {
      "type": "name_match",
      "text": "burn",
      "confidence": 1.0,
      "uuid": "63665de5-6376-4918-8dbf-4c10c4d63837",
      "name": "burn",
      "url": "https://haz-map.com/Findings/204",
      "category": "findings"
    },
    {
      "type": "name_match",
      "text": "ethyl ether",
      "confidence": 1.0,
      "uuid": "c95edddc-9ad3-44f8-bafa-78e0bd19db3a",
      "name": "Ethyl ether",
      "url": "https://haz-map.com/Agents/455",
      "category": "agents"
    },
    {
      "type": "name_match",
      "text": "potassium hydroxide",
      "confidence": 1.0,
      "uuid": "c437c099-636b-4192-9f13-628e3f255de8",
      "name": "Potassium hydroxide",
      "url": "https://haz-map.com/Agents/606",
      "category": "agents"
    },
    {
      "type": "name_match",
      "text": "mica",
      "confidence": 1.0,
      "uuid": "433f26f1-c399-4596-b179-ce3843cfd465",
      "name": "Mica",
      "url": "https://haz-map.com/Agents/621",
      "category": "agents"
    },
    {
      "type": "name_match",
      "text": "ethylene",
      "confidence": 1.0,
      "uuid": "958eacc0-5135-4b62-bb93-6df972bf552f",
      "name": "Ethylene",
      "url": "https://haz-map.com/Agents/1076",
      "category": "agents"
    },
    {
      "type": "name_match",
      "text": "potassium",
      "confidence": 1.0,
      "uuid": "41542f50-8311-43c8-9ec6-078665bee9df",
      "name": "Potassium",
      "url": "https://haz-map.com/Agents/1526",
      "category": "agents"
    },
    {
      "type": "name_match",
      "text": "oxygen",
      "confidence": 1.0,
      "uuid": "daf61849-c843-41a6-bdfb-880e4ee71d7f",
      "name": "Oxygen",
      "url": "https://haz-map.com/Agents/1564",
      "category": "agents"
    },
    {
      "type": "name_match",
      "text": "butyl vinyl ether",
      "confidence": 1.0,
      "uuid": "931ceb7a-b620-453e-8ec2-a274e2dcd6c3",
      "name": "Butyl vinyl ether",
      "url": "https://haz-map.com/Agents/4058",
      "category": "agents"
    },
    {
      "type": "name_match",
      "text": "dde",
      "confidence": 1.0,
      "uuid": "88506fb4-e7b1-4bde-a283-917057f67fc2",
      "name": "DDE",
      "url": "https://haz-map.com/Agents/4656",
      "category": "agents"
    },
    {
      "type": "name_match",
      "text": "ethyl vinyl ether",
      "confidence": 1.0,
      "uuid": "d7eab654-c0bd-41c4-ade7-7fb1ef137bbb",
      "name": "Ethyl vinyl ether",
      "url": "https://haz-map.com/Agents/20878",
      "category": "agents"
    }
  ],
  "all_links": [
    {
      "text": "Search PubMed",
      "url": "https://www.ncbi.nlm.nih.gov/pubmed?term=Ethyl+vinyl+ether%20AND%20human%5Bmh%5D%20AND%20%28Occupational%20Diseases%20%5Bmh%5D%20OR%20Occupational%20Exposure%20%5Bmh%5D%29%20%20AND%20%28tox%5Bsb%5D%29&cmd=search"
    }
  ]
}