{
  "metadata": {
    "scraped_from": "https://haz-map.com/Agents/11233",
    "entity_name": "4-Undecanone",
    "category": "agents",
    "uuid": "d83d045d-5447-4a6d-a395-22b81ac0cfdb",
    "scraped_at": "2025-07-23T20:57:03.507489"
  },
  "parsed_at": "2025-07-24T00:51:15.591686",
  "title": "4-Undecanone",
  "sections": {
    "general": {
      "agent_name": {
        "original_name": "Agent Name",
        "value": "4-Undecanone",
        "links": [],
        "cross_references": [
          {
            "type": "name_match",
            "text": "4-undecanone",
            "confidence": 1.0,
            "uuid": "d83d045d-5447-4a6d-a395-22b81ac0cfdb",
            "name": "4-Undecanone",
            "url": "https://haz-map.com/Agents/11233",
            "category": "agents"
          }
        ]
      },
      "cas_number": {
        "original_name": "CAS Number",
        "value": "14476-37-0",
        "links": [],
        "cross_references": []
      },
      "formula": {
        "original_name": "Formula",
        "value": "C11-H22-O",
        "links": [],
        "cross_references": []
      },
      "major_category": {
        "original_name": "Major Category",
        "value": "Solvents",
        "links": [],
        "cross_references": []
      },
      "synonyms": {
        "original_name": "Synonyms",
        "value": "Undecan-4-one; [ChemIDplus]",
        "links": [],
        "cross_references": []
      },
      "category": {
        "original_name": "Category",
        "value": "Ketones (<C12)",
        "links": [],
        "cross_references": []
      },
      "description": {
        "original_name": "Description",
        "value": "Melting point = 4.5 deg C; [ChemIDplus] Liquid; [Alfa Aesar MSDS]",
        "links": [],
        "cross_references": []
      },
      "comments": {
        "original_name": "Comments",
        "value": "May cause irritation; [Alfa Aesar MSDS] See \"2-Undecanone.\"",
        "links": [],
        "cross_references": [
          {
            "type": "name_match",
            "text": "2-undecanone",
            "confidence": 1.0,
            "uuid": "412442c1-6883-43d8-a2dd-b782a276af0a",
            "name": "2-Undecanone",
            "url": "https://haz-map.com/Agents/3172",
            "category": "agents"
          }
        ]
      },
      "biomedical_references": {
        "original_name": "Biomedical References",
        "value": "Search PubMed",
        "links": [
          {
            "text": "Search PubMed",
            "url": "https://www.ncbi.nlm.nih.gov/pubmed?term=4-Undecanone%20AND%20human%5Bmh%5D%20AND%20%28Occupational%20Diseases%20%5Bmh%5D%20OR%20Occupational%20Exposure%20%5Bmh%5D%29%20%20AND%20%28tox%5Bsb%5D%29&cmd=search"
          }
        ],
        "cross_references": []
      }
    },
    "adverse_effects": {
      "neurotoxin": {
        "original_name": "Neurotoxin",
        "value": "Acute solvent syndrome",
        "links": [],
        "cross_references": []
      }
    },
    "diseases_processes_and_activities_linked_to_this_agent": {
      "diseases": {
        "original_name": "Diseases",
        "value": "Occupational diseases associated with exposure to this agent: Solvents, acute toxic effect",
        "links": [
          {
            "text": "Solvents, acute toxic effect",
            "url": "https://haz-map.com/Diseases/326"
          }
        ],
        "cross_references": [
          {
            "type": "url_match",
            "text": "Solvents, acute toxic effect",
            "url": "https://haz-map.com/Diseases/326",
            "confidence": 1.0,
            "uuid": "581e90e3-9d0c-45f0-aa6c-3468c28da129",
            "name": "Solvents, acute toxic effect",
            "category": "diseases"
          }
        ]
      }
    }
  },
  "cross_references": [
    {
      "type": "url_match",
      "text": "Solvents, acute toxic effect",
      "url": "https://haz-map.com/Diseases/326",
      "confidence": 1.0,
      "uuid": "581e90e3-9d0c-45f0-aa6c-3468c28da129",
      "name": "Solvents, acute toxic effect",
      "category": "diseases"
    },
    {
      "type": "name_match",
      "text": "2-undecanone",
      "confidence": 1.0,
      "uuid": "412442c1-6883-43d8-a2dd-b782a276af0a",
      "name": "2-Undecanone",
      "url": "https://haz-map.com/Agents/3172",
      "category": "agents"
    },
    {
      "type": "name_match",
      "text": "4-undecanone",
      "confidence": 1.0,
      "uuid": "d83d045d-5447-4a6d-a395-22b81ac0cfdb",
      "name": "4-Undecanone",
      "url": "https://haz-map.com/Agents/11233",
      "category": "agents"
    }
  ],
  "all_links": [
    {
      "text": "Search PubMed",
      "url": "https://www.ncbi.nlm.nih.gov/pubmed?term=4-Undecanone%20AND%20human%5Bmh%5D%20AND%20%28Occupational%20Diseases%20%5Bmh%5D%20OR%20Occupational%20Exposure%20%5Bmh%5D%29%20%20AND%20%28tox%5Bsb%5D%29&cmd=search"
    },
    {
      "text": "Solvents, acute toxic effect",
      "url": "https://haz-map.com/Diseases/326"
    }
  ]
}