{
  "metadata": {
    "scraped_from": "https://haz-map.com/Agents/12002",
    "entity_name": "Aurin",
    "category": "agents",
    "uuid": "d84a3e17-c22e-49c8-a819-c0f493df6b46",
    "scraped_at": "2025-07-23T21:04:49.007896"
  },
  "parsed_at": "2025-07-24T00:58:08.771896",
  "title": "Aurin",
  "sections": {
    "general": {
      "agent_name": {
        "original_name": "Agent Name",
        "value": "Aurin",
        "links": [],
        "cross_references": [
          {
            "type": "name_match",
            "text": "aurin",
            "confidence": 1.0,
            "uuid": "d84a3e17-c22e-49c8-a819-c0f493df6b46",
            "name": "Aurin",
            "url": "https://haz-map.com/Agents/12002",
            "category": "agents"
          }
        ]
      },
      "cas_number": {
        "original_name": "CAS Number",
        "value": "603-45-2",
        "links": [],
        "cross_references": []
      },
      "formula": {
        "original_name": "Formula",
        "value": "C19-H14-O3",
        "links": [],
        "cross_references": []
      },
      "major_category": {
        "original_name": "Major Category",
        "value": "Dyes",
        "links": [],
        "cross_references": []
      },
      "synonyms": {
        "original_name": "Synonyms",
        "value": "4,4'-Dihydroxyfuchsone; Aurin No. 555; Aurine; C.I. 43800; Corallin; Corallin Spirit Soluble; Spirit Aurine; p-Rosolic acid; 2,5-Cyclohexadien-1-one, 4-(bis(4-hydroxyphenyl)methylene)-; 4-(Bis(p-hydroxyphenyl)methylene)cyclohexa-2,5-dien-1-one; [ChemIDplus] 4-[Bis(4-hydroxyphenyl)methylene]-2,5-cyclohexadien-1-one; 4-(p,p'-Dihydroxybenzhydrylidene)-2,5-cyclohexadien-1-one; [Merck Index]",
        "links": [],
        "cross_references": [
          {
            "type": "name_match",
            "text": "ethylene",
            "confidence": 1.0,
            "uuid": "958eacc0-5135-4b62-bb93-6df972bf552f",
            "name": "Ethylene",
            "url": "https://haz-map.com/Agents/1076",
            "category": "agents"
          },
          {
            "type": "name_match",
            "text": "aurin",
            "confidence": 1.0,
            "uuid": "d84a3e17-c22e-49c8-a819-c0f493df6b46",
            "name": "Aurin",
            "url": "https://haz-map.com/Agents/12002",
            "category": "agents"
          },
          {
            "type": "name_match",
            "text": "rosolic acid",
            "confidence": 1.0,
            "uuid": "9da38f97-ebe4-4584-900b-6e14fc53093d",
            "name": "Rosolic acid",
            "url": "https://haz-map.com/Agents/17132",
            "category": "agents"
          }
        ]
      },
      "category": {
        "original_name": "Category",
        "value": "Di- and Triaryl Dyes",
        "links": [],
        "cross_references": []
      },
      "description": {
        "original_name": "Description",
        "value": "Deep red solid; Technical product may be yellowish-brown with a dark green metallic fracture; [Merck Index] Dark red powder; [Sigma-Aldrich MSDS]",
        "links": [],
        "cross_references": []
      },
      "sourcesuses": {
        "original_name": "Sources/Uses",
        "value": "Used as a dye intermediate; [Merck Index] \"Aurin (C.I. 43800), sometimes named rosolic acid or corallin is an organic compound, forming yellowish or deep-red crystals with greenish metallic luster. It is practically insoluble in water, freely soluble in alcohol. It is soluble in strong acids to form yellow solution, or in aqueous alkalis to form carmine red solutions. Due to this behaviour it can be used as pH indicator with pH transition range 5.0 - 6.8. It is used as an intermediate in manufacturing of dyes.\" [Wikipedia]",
        "links": [],
        "cross_references": [
          {
            "type": "name_match",
            "text": "carmine",
            "confidence": 1.0,
            "uuid": "09c155c3-1487-40b2-bb5b-124eef2b12d8",
            "name": "Carmine",
            "url": "https://haz-map.com/Agents/1870",
            "category": "agents"
          },
          {
            "type": "name_match",
            "text": "aurin",
            "confidence": 1.0,
            "uuid": "d84a3e17-c22e-49c8-a819-c0f493df6b46",
            "name": "Aurin",
            "url": "https://haz-map.com/Agents/12002",
            "category": "agents"
          },
          {
            "type": "name_match",
            "text": "rosolic acid",
            "confidence": 1.0,
            "uuid": "9da38f97-ebe4-4584-900b-6e14fc53093d",
            "name": "Rosolic acid",
            "url": "https://haz-map.com/Agents/17132",
            "category": "agents"
          },
          {
            "type": "name_match",
            "text": "water",
            "confidence": 1.0,
            "uuid": "6f2a7557-dfd2-49bc-9b4b-a93cd8e225d4",
            "name": "Water",
            "url": "https://haz-map.com/Agents/18668",
            "category": "agents"
          }
        ]
      },
      "comments": {
        "original_name": "Comments",
        "value": "A moderate irritant; [Sigma-Aldrich MSDS]",
        "links": [],
        "cross_references": []
      },
      "biomedical_references": {
        "original_name": "Biomedical References",
        "value": "Search PubMed",
        "links": [
          {
            "text": "Search PubMed",
            "url": "https://www.ncbi.nlm.nih.gov/pubmed?term=Aurin%20AND%20human%5Bmh%5D%20AND%20%28Occupational%20Diseases%20%5Bmh%5D%20OR%20Occupational%20Exposure%20%5Bmh%5D%29%20%20AND%20%28tox%5Bsb%5D%29&cmd=search"
          }
        ],
        "cross_references": []
      }
    },
    "exposure_assessment": {
      "vapor_pressure": {
        "original_name": "Vapor Pressure",
        "value": "1.02E-10 mm Hg",
        "links": [],
        "cross_references": []
      }
    },
    "diseases_processes_and_activities_linked_to_this_agent": {
      "other_information": {
        "original_name": "Other Information",
        "value": "No other related information on this agent was found.",
        "links": [],
        "cross_references": []
      }
    }
  },
  "cross_references": [
    {
      "type": "name_match",
      "text": "ethylene",
      "confidence": 1.0,
      "uuid": "958eacc0-5135-4b62-bb93-6df972bf552f",
      "name": "Ethylene",
      "url": "https://haz-map.com/Agents/1076",
      "category": "agents"
    },
    {
      "type": "name_match",
      "text": "carmine",
      "confidence": 1.0,
      "uuid": "09c155c3-1487-40b2-bb5b-124eef2b12d8",
      "name": "Carmine",
      "url": "https://haz-map.com/Agents/1870",
      "category": "agents"
    },
    {
      "type": "name_match",
      "text": "aurin",
      "confidence": 1.0,
      "uuid": "d84a3e17-c22e-49c8-a819-c0f493df6b46",
      "name": "Aurin",
      "url": "https://haz-map.com/Agents/12002",
      "category": "agents"
    },
    {
      "type": "name_match",
      "text": "rosolic acid",
      "confidence": 1.0,
      "uuid": "9da38f97-ebe4-4584-900b-6e14fc53093d",
      "name": "Rosolic acid",
      "url": "https://haz-map.com/Agents/17132",
      "category": "agents"
    },
    {
      "type": "name_match",
      "text": "water",
      "confidence": 1.0,
      "uuid": "6f2a7557-dfd2-49bc-9b4b-a93cd8e225d4",
      "name": "Water",
      "url": "https://haz-map.com/Agents/18668",
      "category": "agents"
    }
  ],
  "all_links": [
    {
      "text": "Search PubMed",
      "url": "https://www.ncbi.nlm.nih.gov/pubmed?term=Aurin%20AND%20human%5Bmh%5D%20AND%20%28Occupational%20Diseases%20%5Bmh%5D%20OR%20Occupational%20Exposure%20%5Bmh%5D%29%20%20AND%20%28tox%5Bsb%5D%29&cmd=search"
    }
  ]
}