{
  "metadata": {
    "scraped_from": "https://haz-map.com/Agents/9246",
    "entity_name": "Phenyl chloroformate",
    "category": "agents",
    "uuid": "d88f7d7b-b06b-44fa-80ac-279335043550",
    "scraped_at": "2025-07-23T20:34:06.700829"
  },
  "parsed_at": "2025-07-24T00:52:10.524414",
  "title": "Phenyl chloroformate",
  "sections": {
    "general": {
      "agent_name": {
        "original_name": "Agent Name",
        "value": "Phenyl chloroformate",
        "links": [],
        "cross_references": [
          {
            "type": "name_match",
            "text": "chloroform",
            "confidence": 1.0,
            "uuid": "c05794fb-7374-465e-8219-dc071fdda4a7",
            "name": "Chloroform",
            "url": "https://haz-map.com/Agents/53",
            "category": "agents"
          },
          {
            "type": "name_match",
            "text": "phenyl chloroformate",
            "confidence": 1.0,
            "uuid": "d88f7d7b-b06b-44fa-80ac-279335043550",
            "name": "Phenyl chloroformate",
            "url": "https://haz-map.com/Agents/9246",
            "category": "agents"
          }
        ]
      },
      "cas_number": {
        "original_name": "CAS Number",
        "value": "1885-14-9",
        "links": [],
        "cross_references": []
      },
      "formula": {
        "original_name": "Formula",
        "value": "C7-H5-Cl-O2",
        "links": [],
        "cross_references": []
      },
      "major_category": {
        "original_name": "Major Category",
        "value": "Toxic Gases & Vapors",
        "links": [],
        "cross_references": []
      },
      "synonyms": {
        "original_name": "Synonyms",
        "value": "Chloroformic acid phenyl ester; Fenylester kyseliny chlormravenci [Czech]; Formic acid, chloro-, phenyl ester; Phenoxycarbonyl chloride; Phenyl chlorocarbonate; TL 398; Carbonochloridic acid, phenyl ester; [ChemIDplus] UN2746",
        "links": [],
        "cross_references": [
          {
            "type": "name_match",
            "text": "chloroform",
            "confidence": 1.0,
            "uuid": "c05794fb-7374-465e-8219-dc071fdda4a7",
            "name": "Chloroform",
            "url": "https://haz-map.com/Agents/53",
            "category": "agents"
          },
          {
            "type": "name_match",
            "text": "formic acid",
            "confidence": 1.0,
            "uuid": "5de50e8b-f1d4-40c0-a85a-79ed7fd08ea8",
            "name": "Formic acid",
            "url": "https://haz-map.com/Agents/497",
            "category": "agents"
          },
          {
            "type": "name_match",
            "text": "carbon",
            "confidence": 1.0,
            "uuid": "b53f8815-ee80-40ef-b4aa-3b000e17dab5",
            "name": "Carbon",
            "url": "https://haz-map.com/Agents/1891",
            "category": "agents"
          }
        ]
      },
      "category": {
        "original_name": "Category",
        "value": "Acid Halides",
        "links": [],
        "cross_references": []
      },
      "description": {
        "original_name": "Description",
        "value": "Colorless liquid with a pungent odor; [ICSC]",
        "links": [],
        "cross_references": []
      },
      "sourcesuses": {
        "original_name": "Sources/Uses",
        "value": "Used to make other chemicals; [CAMEO]",
        "links": [],
        "cross_references": [
          {
            "type": "name_match",
            "text": "mica",
            "confidence": 1.0,
            "uuid": "433f26f1-c399-4596-b179-ce3843cfd465",
            "name": "Mica",
            "url": "https://haz-map.com/Agents/621",
            "category": "agents"
          }
        ]
      },
      "comments": {
        "original_name": "Comments",
        "value": "Decomposed by water producing hydrogen chloride and phenol; A corrosive substance that can cause injury to the skin, eyes, and respiratory tract; Inhalation may cause pulmonary edema; [ICSC] Reacts with water evolving hydrogen chloride; Fumes in moist air releasing hydrogen chloride; A strong skin and eye irritant; [CAMEO] A skin irritant; Corrosive to eyes; [eChemPortal: ERMA] Reacts with water; A corrosive substance that can cause injury to the skin, eyes, and respiratory tract; Inhalation may cause chemical pneumonitis; [MSDSonline] See \"CHLOROFORMATES.\"",
        "links": [],
        "cross_references": [
          {
            "type": "name_match",
            "text": "pulmonary edema",
            "confidence": 1.0,
            "uuid": "ee39114e-c922-40fd-9588-a532de404962",
            "name": "pulmonary edema",
            "url": "https://haz-map.com/Findings/186",
            "category": "findings"
          },
          {
            "type": "name_match",
            "text": "chloroform",
            "confidence": 1.0,
            "uuid": "c05794fb-7374-465e-8219-dc071fdda4a7",
            "name": "Chloroform",
            "url": "https://haz-map.com/Agents/53",
            "category": "agents"
          },
          {
            "type": "name_match",
            "text": "phenol",
            "confidence": 1.0,
            "uuid": "03141a03-a7df-4f51-9a37-adde1a7c4b31",
            "name": "Phenol",
            "url": "https://haz-map.com/Agents/84",
            "category": "agents"
          },
          {
            "type": "name_match",
            "text": "hydrogen chloride",
            "confidence": 1.0,
            "uuid": "706dfaa8-58f7-4376-809d-ba14aee8dbd3",
            "name": "Hydrogen chloride",
            "url": "https://haz-map.com/Agents/513",
            "category": "agents"
          },
          {
            "type": "name_match",
            "text": "mica",
            "confidence": 1.0,
            "uuid": "433f26f1-c399-4596-b179-ce3843cfd465",
            "name": "Mica",
            "url": "https://haz-map.com/Agents/621",
            "category": "agents"
          },
          {
            "type": "name_match",
            "text": "hydrogen",
            "confidence": 1.0,
            "uuid": "e2d9645f-5559-4d88-b820-fc4710c154f2",
            "name": "Hydrogen",
            "url": "https://haz-map.com/Agents/1070",
            "category": "agents"
          },
          {
            "type": "name_match",
            "text": "chloroformates",
            "confidence": 1.0,
            "uuid": "18fdfe1e-9a94-47b8-a3d2-638e06cadfa9",
            "name": "CHLOROFORMATES",
            "url": "https://haz-map.com/Agents/1591",
            "category": "agents"
          },
          {
            "type": "name_match",
            "text": "water",
            "confidence": 1.0,
            "uuid": "6f2a7557-dfd2-49bc-9b4b-a93cd8e225d4",
            "name": "Water",
            "url": "https://haz-map.com/Agents/18668",
            "category": "agents"
          }
        ]
      },
      "biomedical_references": {
        "original_name": "Biomedical References",
        "value": "Search PubMed",
        "links": [
          {
            "text": "Search PubMed",
            "url": "https://www.ncbi.nlm.nih.gov/pubmed?term=Phenyl+chloroformate%20AND%20human%5Bmh%5D%20AND%20%28Occupational%20Diseases%20%5Bmh%5D%20OR%20Occupational%20Exposure%20%5Bmh%5D%29%20%20AND%20%28tox%5Bsb%5D%29&cmd=search"
          }
        ],
        "cross_references": []
      }
    },
    "exposure_assessment": {
      "vapor_pressure": {
        "original_name": "Vapor Pressure",
        "value": "0.67 mm Hg",
        "links": [],
        "cross_references": []
      },
      "lethal_concentration": {
        "original_name": "Lethal Concentration",
        "value": "LCLo (rat) = 44 ppm/4h",
        "links": [],
        "cross_references": []
      }
    },
    "adverse_effects": {
      "toxic_pneumonitis": {
        "original_name": "Toxic Pneumonitis",
        "value": "Yes",
        "links": [],
        "cross_references": []
      },
      "dermatotoxin": {
        "original_name": "Dermatotoxin",
        "value": "Skin burns",
        "links": [],
        "cross_references": [
          {
            "type": "name_match",
            "text": "burn",
            "confidence": 1.0,
            "uuid": "63665de5-6376-4918-8dbf-4c10c4d63837",
            "name": "burn",
            "url": "https://haz-map.com/Findings/204",
            "category": "findings"
          }
        ]
      }
    },
    "diseases_processes_and_activities_linked_to_this_agent": {
      "other_information": {
        "original_name": "Other Information",
        "value": "No other related information on this agent was found.",
        "links": [],
        "cross_references": []
      }
    }
  },
  "cross_references": [
    {
      "type": "name_match",
      "text": "pulmonary edema",
      "confidence": 1.0,
      "uuid": "ee39114e-c922-40fd-9588-a532de404962",
      "name": "pulmonary edema",
      "url": "https://haz-map.com/Findings/186",
      "category": "findings"
    },
    {
      "type": "name_match",
      "text": "burn",
      "confidence": 1.0,
      "uuid": "63665de5-6376-4918-8dbf-4c10c4d63837",
      "name": "burn",
      "url": "https://haz-map.com/Findings/204",
      "category": "findings"
    },
    {
      "type": "name_match",
      "text": "chloroform",
      "confidence": 1.0,
      "uuid": "c05794fb-7374-465e-8219-dc071fdda4a7",
      "name": "Chloroform",
      "url": "https://haz-map.com/Agents/53",
      "category": "agents"
    },
    {
      "type": "name_match",
      "text": "phenol",
      "confidence": 1.0,
      "uuid": "03141a03-a7df-4f51-9a37-adde1a7c4b31",
      "name": "Phenol",
      "url": "https://haz-map.com/Agents/84",
      "category": "agents"
    },
    {
      "type": "name_match",
      "text": "formic acid",
      "confidence": 1.0,
      "uuid": "5de50e8b-f1d4-40c0-a85a-79ed7fd08ea8",
      "name": "Formic acid",
      "url": "https://haz-map.com/Agents/497",
      "category": "agents"
    },
    {
      "type": "name_match",
      "text": "hydrogen chloride",
      "confidence": 1.0,
      "uuid": "706dfaa8-58f7-4376-809d-ba14aee8dbd3",
      "name": "Hydrogen chloride",
      "url": "https://haz-map.com/Agents/513",
      "category": "agents"
    },
    {
      "type": "name_match",
      "text": "mica",
      "confidence": 1.0,
      "uuid": "433f26f1-c399-4596-b179-ce3843cfd465",
      "name": "Mica",
      "url": "https://haz-map.com/Agents/621",
      "category": "agents"
    },
    {
      "type": "name_match",
      "text": "hydrogen",
      "confidence": 1.0,
      "uuid": "e2d9645f-5559-4d88-b820-fc4710c154f2",
      "name": "Hydrogen",
      "url": "https://haz-map.com/Agents/1070",
      "category": "agents"
    },
    {
      "type": "name_match",
      "text": "chloroformates",
      "confidence": 1.0,
      "uuid": "18fdfe1e-9a94-47b8-a3d2-638e06cadfa9",
      "name": "CHLOROFORMATES",
      "url": "https://haz-map.com/Agents/1591",
      "category": "agents"
    },
    {
      "type": "name_match",
      "text": "carbon",
      "confidence": 1.0,
      "uuid": "b53f8815-ee80-40ef-b4aa-3b000e17dab5",
      "name": "Carbon",
      "url": "https://haz-map.com/Agents/1891",
      "category": "agents"
    },
    {
      "type": "name_match",
      "text": "phenyl chloroformate",
      "confidence": 1.0,
      "uuid": "d88f7d7b-b06b-44fa-80ac-279335043550",
      "name": "Phenyl chloroformate",
      "url": "https://haz-map.com/Agents/9246",
      "category": "agents"
    },
    {
      "type": "name_match",
      "text": "water",
      "confidence": 1.0,
      "uuid": "6f2a7557-dfd2-49bc-9b4b-a93cd8e225d4",
      "name": "Water",
      "url": "https://haz-map.com/Agents/18668",
      "category": "agents"
    }
  ],
  "all_links": [
    {
      "text": "Search PubMed",
      "url": "https://www.ncbi.nlm.nih.gov/pubmed?term=Phenyl+chloroformate%20AND%20human%5Bmh%5D%20AND%20%28Occupational%20Diseases%20%5Bmh%5D%20OR%20Occupational%20Exposure%20%5Bmh%5D%29%20%20AND%20%28tox%5Bsb%5D%29&cmd=search"
    }
  ]
}