{
  "metadata": {
    "scraped_from": "https://haz-map.com/Agents/5369",
    "entity_name": "Fomesafen",
    "category": "agents",
    "uuid": "d8949d38-8a44-4ad4-b8a1-6356864ba102",
    "scraped_at": "2025-07-23T19:51:41.494723"
  },
  "parsed_at": "2025-07-24T01:00:34.275777",
  "title": "Fomesafen",
  "sections": {
    "general": {
      "agent_name": {
        "original_name": "Agent Name",
        "value": "Fomesafen",
        "links": [],
        "cross_references": [
          {
            "type": "name_match",
            "text": "fomesafen",
            "confidence": 1.0,
            "uuid": "d8949d38-8a44-4ad4-b8a1-6356864ba102",
            "name": "Fomesafen",
            "url": "https://haz-map.com/Agents/5369",
            "category": "agents"
          }
        ]
      },
      "cas_number": {
        "original_name": "CAS Number",
        "value": "72178-02-0",
        "links": [],
        "cross_references": []
      },
      "formula": {
        "original_name": "Formula",
        "value": "C15-H10-Cl-F3-N2-O6-S",
        "links": [],
        "cross_references": []
      },
      "major_category": {
        "original_name": "Major Category",
        "value": "Pesticides",
        "links": [],
        "cross_references": []
      },
      "synonyms": {
        "original_name": "Synonyms",
        "value": "5-(2-Chloro-4-(trifluoromethyl)phenoxy)-N-(methylsulfonyl)-2-nitrobenzamide; 5-(2-Chloro-alpha,alpha,alpha-trifluoro-p-tolyloxy)-N-mesyl-2-nitrobenzamide; 5-(2-Chloro-alpha,alpha,alpha-trifluoro-p-tolyloxy)-N-methylsulfonyl-2-nitrobenzamide; 5-(2-Chloro-alpha,alpha,alpha-trifluoro-p-tolyloxy)-N-methylsulphonyl-2-nitrobenzamide; Fomesafene [ISO-French]; PP021; Reflex; [ChemIDplus]",
        "links": [],
        "cross_references": [
          {
            "type": "name_match",
            "text": "benzamide",
            "confidence": 1.0,
            "uuid": "8900c544-7f26-477e-a4c1-ff24fcc01b2c",
            "name": "Benzamide",
            "url": "https://haz-map.com/Agents/3828",
            "category": "agents"
          },
          {
            "type": "name_match",
            "text": "fomesafen",
            "confidence": 1.0,
            "uuid": "d8949d38-8a44-4ad4-b8a1-6356864ba102",
            "name": "Fomesafen",
            "url": "https://haz-map.com/Agents/5369",
            "category": "agents"
          },
          {
            "type": "name_match",
            "text": "2-nitrobenzamide",
            "confidence": 1.0,
            "uuid": "223624d1-1e4a-4ee9-90ab-75c75a6554be",
            "name": "2-Nitrobenzamide",
            "url": "https://haz-map.com/Agents/8134",
            "category": "agents"
          }
        ]
      },
      "category": {
        "original_name": "Category",
        "value": "Herbicides, Protox-Inhibiting",
        "links": [],
        "cross_references": [
          {
            "type": "name_match",
            "text": "herbicides",
            "confidence": 1.0,
            "uuid": "195f29ae-3f15-47c5-836d-0a9791db3fc1",
            "name": "HERBICIDES",
            "url": "https://haz-map.com/Agents/703",
            "category": "agents"
          }
        ]
      },
      "description": {
        "original_name": "Description",
        "value": "Colorless or white solid; [HSDB]",
        "links": [],
        "cross_references": []
      },
      "sourcesuses": {
        "original_name": "Sources/Uses",
        "value": "Used as post-emergence herbicide for control of broad-leaved weeds in soy beans and other legumes; [Merck Index]",
        "links": [],
        "cross_references": []
      },
      "comments": {
        "original_name": "Comments",
        "value": "The protox inhibitor herbicides (Fomesafen, Oxadiazon, Lactofen, Sulfentrazone, Carfentrazone-ethyl, Oxyfluorofen and Bifenox) can disrupt porphyrin metabolism; \"It has been speculated that a transient form of porphyria variegate may occur following a massive exposure or long-term exposure to lower doses.\" A mild skin irritant; A mild to moderate eye irritant, based on animal studies; [HSDB] May cause irritation; [MSDSonline] See \"Fluthiacet-methyl.\"",
        "links": [],
        "cross_references": [
          {
            "type": "name_match",
            "text": "herbicides",
            "confidence": 1.0,
            "uuid": "195f29ae-3f15-47c5-836d-0a9791db3fc1",
            "name": "HERBICIDES",
            "url": "https://haz-map.com/Agents/703",
            "category": "agents"
          },
          {
            "type": "name_match",
            "text": "bifenox",
            "confidence": 1.0,
            "uuid": "9ec7a571-58f4-46f9-9dc6-6b2cbf66ee7c",
            "name": "Bifenox",
            "url": "https://haz-map.com/Agents/3921",
            "category": "agents"
          },
          {
            "type": "name_match",
            "text": "carfentrazone-ethyl",
            "confidence": 1.0,
            "uuid": "0340f65a-eca9-4b22-9f41-2a42b1114547",
            "name": "Carfentrazone-ethyl",
            "url": "https://haz-map.com/Agents/4234",
            "category": "agents"
          },
          {
            "type": "name_match",
            "text": "fluthiacet-methyl",
            "confidence": 1.0,
            "uuid": "c739660d-c14b-4b0a-b5f8-c6e34cabdf75",
            "name": "Fluthiacet-methyl",
            "url": "https://haz-map.com/Agents/5361",
            "category": "agents"
          },
          {
            "type": "name_match",
            "text": "fomesafen",
            "confidence": 1.0,
            "uuid": "d8949d38-8a44-4ad4-b8a1-6356864ba102",
            "name": "Fomesafen",
            "url": "https://haz-map.com/Agents/5369",
            "category": "agents"
          },
          {
            "type": "name_match",
            "text": "lactofen",
            "confidence": 1.0,
            "uuid": "c5f86a3a-e472-494d-be8d-a765b191e91a",
            "name": "Lactofen",
            "url": "https://haz-map.com/Agents/5778",
            "category": "agents"
          },
          {
            "type": "name_match",
            "text": "oxadiazon",
            "confidence": 1.0,
            "uuid": "d8562319-0ae3-4b64-a4dd-97c0d540ff3e",
            "name": "Oxadiazon",
            "url": "https://haz-map.com/Agents/6471",
            "category": "agents"
          },
          {
            "type": "name_match",
            "text": "oxyfluorofen",
            "confidence": 1.0,
            "uuid": "cb7b180e-0f04-4fce-91a2-e8952b66f44f",
            "name": "Oxyfluorofen",
            "url": "https://haz-map.com/Agents/6490",
            "category": "agents"
          },
          {
            "type": "name_match",
            "text": "sulfentrazone",
            "confidence": 1.0,
            "uuid": "55db9c0f-2c72-482d-a029-650dbfa200a2",
            "name": "Sulfentrazone",
            "url": "https://haz-map.com/Agents/7259",
            "category": "agents"
          }
        ]
      },
      "biomedical_references": {
        "original_name": "Biomedical References",
        "value": "Search PubMed",
        "links": [
          {
            "text": "Search PubMed",
            "url": "https://www.ncbi.nlm.nih.gov/pubmed?term=Fomesafen%20AND%20human%5Bmh%5D%20AND%20%28Occupational%20Diseases%20%5Bmh%5D%20OR%20Occupational%20Exposure%20%5Bmh%5D%29%20%20AND%20%28tox%5Bsb%5D%29&cmd=search"
          }
        ],
        "cross_references": []
      }
    },
    "exposure_assessment": {
      "vapor_pressure": {
        "original_name": "Vapor Pressure",
        "value": "7.5E-07 mm Hg",
        "links": [],
        "cross_references": []
      }
    },
    "diseases_processes_and_activities_linked_to_this_agent": {
      "processes": {
        "original_name": "Processes",
        "value": "Industrial Processes with risk of exposure: Farming (Pesticides)",
        "links": [
          {
            "text": "Farming (Pesticides)",
            "url": "https://haz-map.com/Processes/218"
          }
        ],
        "cross_references": [
          {
            "type": "url_match",
            "text": "Farming (Pesticides)",
            "url": "https://haz-map.com/Processes/218",
            "confidence": 1.0,
            "uuid": "cf1e5815-c9bb-4917-82a5-391848170b7e",
            "name": "Farming (Pesticides)",
            "category": "processes"
          }
        ]
      }
    }
  },
  "cross_references": [
    {
      "type": "url_match",
      "text": "Farming (Pesticides)",
      "url": "https://haz-map.com/Processes/218",
      "confidence": 1.0,
      "uuid": "cf1e5815-c9bb-4917-82a5-391848170b7e",
      "name": "Farming (Pesticides)",
      "category": "processes"
    },
    {
      "type": "name_match",
      "text": "herbicides",
      "confidence": 1.0,
      "uuid": "195f29ae-3f15-47c5-836d-0a9791db3fc1",
      "name": "HERBICIDES",
      "url": "https://haz-map.com/Agents/703",
      "category": "agents"
    },
    {
      "type": "name_match",
      "text": "benzamide",
      "confidence": 1.0,
      "uuid": "8900c544-7f26-477e-a4c1-ff24fcc01b2c",
      "name": "Benzamide",
      "url": "https://haz-map.com/Agents/3828",
      "category": "agents"
    },
    {
      "type": "name_match",
      "text": "bifenox",
      "confidence": 1.0,
      "uuid": "9ec7a571-58f4-46f9-9dc6-6b2cbf66ee7c",
      "name": "Bifenox",
      "url": "https://haz-map.com/Agents/3921",
      "category": "agents"
    },
    {
      "type": "name_match",
      "text": "carfentrazone-ethyl",
      "confidence": 1.0,
      "uuid": "0340f65a-eca9-4b22-9f41-2a42b1114547",
      "name": "Carfentrazone-ethyl",
      "url": "https://haz-map.com/Agents/4234",
      "category": "agents"
    },
    {
      "type": "name_match",
      "text": "fluthiacet-methyl",
      "confidence": 1.0,
      "uuid": "c739660d-c14b-4b0a-b5f8-c6e34cabdf75",
      "name": "Fluthiacet-methyl",
      "url": "https://haz-map.com/Agents/5361",
      "category": "agents"
    },
    {
      "type": "name_match",
      "text": "fomesafen",
      "confidence": 1.0,
      "uuid": "d8949d38-8a44-4ad4-b8a1-6356864ba102",
      "name": "Fomesafen",
      "url": "https://haz-map.com/Agents/5369",
      "category": "agents"
    },
    {
      "type": "name_match",
      "text": "lactofen",
      "confidence": 1.0,
      "uuid": "c5f86a3a-e472-494d-be8d-a765b191e91a",
      "name": "Lactofen",
      "url": "https://haz-map.com/Agents/5778",
      "category": "agents"
    },
    {
      "type": "name_match",
      "text": "oxadiazon",
      "confidence": 1.0,
      "uuid": "d8562319-0ae3-4b64-a4dd-97c0d540ff3e",
      "name": "Oxadiazon",
      "url": "https://haz-map.com/Agents/6471",
      "category": "agents"
    },
    {
      "type": "name_match",
      "text": "oxyfluorofen",
      "confidence": 1.0,
      "uuid": "cb7b180e-0f04-4fce-91a2-e8952b66f44f",
      "name": "Oxyfluorofen",
      "url": "https://haz-map.com/Agents/6490",
      "category": "agents"
    },
    {
      "type": "name_match",
      "text": "sulfentrazone",
      "confidence": 1.0,
      "uuid": "55db9c0f-2c72-482d-a029-650dbfa200a2",
      "name": "Sulfentrazone",
      "url": "https://haz-map.com/Agents/7259",
      "category": "agents"
    },
    {
      "type": "name_match",
      "text": "2-nitrobenzamide",
      "confidence": 1.0,
      "uuid": "223624d1-1e4a-4ee9-90ab-75c75a6554be",
      "name": "2-Nitrobenzamide",
      "url": "https://haz-map.com/Agents/8134",
      "category": "agents"
    }
  ],
  "all_links": [
    {
      "text": "Search PubMed",
      "url": "https://www.ncbi.nlm.nih.gov/pubmed?term=Fomesafen%20AND%20human%5Bmh%5D%20AND%20%28Occupational%20Diseases%20%5Bmh%5D%20OR%20Occupational%20Exposure%20%5Bmh%5D%29%20%20AND%20%28tox%5Bsb%5D%29&cmd=search"
    },
    {
      "text": "Farming (Pesticides)",
      "url": "https://haz-map.com/Processes/218"
    }
  ]
}