{
  "metadata": {
    "scraped_from": "https://haz-map.com/Agents/144",
    "entity_name": "Methyl (n-amyl) ketone",
    "category": "agents",
    "uuid": "d99baadd-1985-4219-a019-7058a54b9cdb",
    "scraped_at": "2025-07-23T18:35:53.467948"
  },
  "parsed_at": "2025-07-24T01:02:09.916638",
  "title": "Methyl (n-amyl) ketone",
  "sections": {
    "general": {
      "agent_name": {
        "original_name": "Agent Name",
        "value": "Methyl (n-amyl) ketone",
        "links": [],
        "cross_references": [
          {
            "type": "name_match",
            "text": "methyl (n-amyl) ketone",
            "confidence": 1.0,
            "uuid": "d99baadd-1985-4219-a019-7058a54b9cdb",
            "name": "Methyl (n-amyl) ketone",
            "url": "https://haz-map.com/Agents/144",
            "category": "agents"
          }
        ]
      },
      "cas_number": {
        "original_name": "CAS Number",
        "value": "110-43-0",
        "links": [],
        "cross_references": []
      },
      "formula": {
        "original_name": "Formula",
        "value": "C7-H14-O",
        "links": [],
        "cross_references": []
      },
      "major_category": {
        "original_name": "Major Category",
        "value": "Solvents",
        "links": [],
        "cross_references": []
      },
      "synonyms": {
        "original_name": "Synonyms",
        "value": "2-Heptanone; 2-Heptanone (natural); Amyl methyl ketone; Amyl-methyl-cetone [French]; Butylacetone; Ketone C-7; Ketone, methyl pentyl; Methyl amyl ketone; Methyl n-amyl ketone; Methyl n-pentyl ketone; Methyl pentyl ketone; Methyl-amyl-cetone [French]; Methyl-n-amylketone; Pentyl methyl ketone; n-Amyl methyl ketone; n-Pentyl methyl ketone; [ChemIDplus] UN1110",
        "links": [],
        "cross_references": [
          {
            "type": "name_match",
            "text": "acetone",
            "confidence": 1.0,
            "uuid": "31b7bdae-eb37-44cc-9c56-b6dfc1908d64",
            "name": "Acetone",
            "url": "https://haz-map.com/Agents/138",
            "category": "agents"
          },
          {
            "type": "name_match",
            "text": "ethyl amyl ketone",
            "confidence": 1.0,
            "uuid": "b24709a5-d3a7-4228-a56a-b7138412fe40",
            "name": "Ethyl amyl ketone",
            "url": "https://haz-map.com/Agents/482",
            "category": "agents"
          }
        ]
      },
      "category": {
        "original_name": "Category",
        "value": "Ketones (<C12)",
        "links": [],
        "cross_references": []
      },
      "description": {
        "original_name": "Description",
        "value": "Colorless to white liquid with a banana-like, fruity odor; [NIOSH]",
        "links": [],
        "cross_references": []
      },
      "sourcesuses": {
        "original_name": "Sources/Uses",
        "value": "Used as a solvent for resins and lacquers, a fragrance for cosmetics, and a flavor for foods; [HSDB]",
        "links": [],
        "cross_references": []
      },
      "comments": {
        "original_name": "Comments",
        "value": "A potential CNS depressant after inhalation; [CAMEO]",
        "links": [],
        "cross_references": []
      },
      "biomedical_references": {
        "original_name": "Biomedical References",
        "value": "Search PubMed",
        "links": [
          {
            "text": "Search PubMed",
            "url": "https://www.ncbi.nlm.nih.gov/pubmed?term=Methyl+(n-amyl)+ketone%20AND%20human%5Bmh%5D%20AND%20%28Occupational%20Diseases%20%5Bmh%5D%20OR%20Occupational%20Exposure%20%5Bmh%5D%29%20%20AND%20%28tox%5Bsb%5D%29&cmd=search"
          }
        ],
        "cross_references": []
      }
    },
    "exposure_assessment": {
      "skin_designation_acgih": {
        "original_name": "Skin Designation (ACGIH)",
        "value": "Insufficient data",
        "links": [],
        "cross_references": []
      },
      "tlv_acgih": {
        "original_name": "TLV (ACGIH)",
        "value": "50 ppm",
        "links": [],
        "cross_references": []
      },
      "pel_osha": {
        "original_name": "PEL (OSHA)",
        "value": "100 ppm",
        "links": [],
        "cross_references": []
      },
      "idlh_niosh": {
        "original_name": "IDLH (NIOSH)",
        "value": "800 ppm",
        "links": [],
        "cross_references": []
      },
      "excerpts_from_documentation_for_idlhs": {
        "original_name": "Excerpts from Documentation for IDLHs",
        "value": "Other animal data: Exposures to guinea pigs lasting 4­8 hours were irritating to the mucous membranes at 1,500 ppm, strongly narcotic at 2,000 ppm, and caused narcosis and death at 4,800 ppm [Specht et al. 1940]. \\ Human data: None relevant for use in determining the revised IDLH.",
        "links": [],
        "cross_references": [
          {
            "type": "name_match",
            "text": "mining",
            "confidence": 1.0,
            "uuid": "aaa4a4af-567a-4a01-83bc-ccad9fc73d04",
            "name": "Mining",
            "url": "https://haz-map.com/Processes/219",
            "category": "processes"
          },
          {
            "type": "name_match",
            "text": "ht",
            "confidence": 1.0,
            "uuid": "764df367-8d53-4a11-81a2-31ccfe122a8d",
            "name": "HT",
            "url": "https://haz-map.com/Agents/2168",
            "category": "agents"
          }
        ]
      },
      "vapor_pressure": {
        "original_name": "Vapor Pressure",
        "value": "3.85 mm Hg",
        "links": [],
        "cross_references": []
      },
      "odor_threshold_low": {
        "original_name": "Odor Threshold Low",
        "value": "0.18 ppm",
        "links": [],
        "cross_references": []
      },
      "odor_threshold_high": {
        "original_name": "Odor Threshold High",
        "value": "0.19 ppm",
        "links": [],
        "cross_references": []
      },
      "lethal_concentration": {
        "original_name": "Lethal Concentration",
        "value": "LCLo (rat) = 4,000 ppm/4H",
        "links": [],
        "cross_references": []
      },
      "explanatory_notes": {
        "original_name": "Explanatory Notes",
        "value": "Odor threshold from AIHA; Flash point = 39 deg C; VP from HSDB;",
        "links": [],
        "cross_references": [
          {
            "type": "name_match",
            "text": "ash",
            "confidence": 1.0,
            "uuid": "68b360f1-5ad0-4337-bea0-d7adca2961b5",
            "name": "Ash",
            "url": "https://haz-map.com/Agents/965",
            "category": "agents"
          }
        ]
      },
      "nfpa": {
        "original_name": "NFPA",
        "value": "high ambient temp required",
        "links": [],
        "cross_references": []
      }
    },
    "adverse_effects": {
      "neurotoxin": {
        "original_name": "Neurotoxin",
        "value": "Acute solvent syndrome",
        "links": [],
        "cross_references": []
      }
    },
    "diseases_processes_and_activities_linked_to_this_agent": {
      "diseases": {
        "original_name": "Diseases",
        "value": "Occupational diseases associated with exposure to this agent: Encephalopathy, chronic solvent Solvents, acute toxic effect",
        "links": [
          {
            "text": "Encephalopathy, chronic solvent",
            "url": "https://haz-map.com/Diseases/325"
          },
          {
            "text": "Solvents, acute toxic effect",
            "url": "https://haz-map.com/Diseases/326"
          }
        ],
        "cross_references": [
          {
            "type": "url_match",
            "text": "Encephalopathy, chronic solvent",
            "url": "https://haz-map.com/Diseases/325",
            "confidence": 1.0,
            "uuid": "589ad578-4636-444e-8823-bf2dd0c7aeab",
            "name": "Encephalopathy, chronic solvent",
            "category": "diseases"
          },
          {
            "type": "url_match",
            "text": "Solvents, acute toxic effect",
            "url": "https://haz-map.com/Diseases/326",
            "confidence": 1.0,
            "uuid": "581e90e3-9d0c-45f0-aa6c-3468c28da129",
            "name": "Solvents, acute toxic effect",
            "category": "diseases"
          }
        ]
      },
      "processes": {
        "original_name": "Processes",
        "value": "Industrial Processes with risk of exposure: Painting (Solvents) Plastic Composites Manufacturing",
        "links": [
          {
            "text": "Painting (Solvents)",
            "url": "https://haz-map.com/Processes/142"
          },
          {
            "text": "Plastic Composites Manufacturing",
            "url": "https://haz-map.com/Processes/222"
          }
        ],
        "cross_references": [
          {
            "type": "url_match",
            "text": "Painting (Solvents)",
            "url": "https://haz-map.com/Processes/142",
            "confidence": 1.0,
            "uuid": "ca747481-4da1-4550-a546-f0d43a41b46c",
            "name": "Painting (Solvents)",
            "category": "processes"
          },
          {
            "type": "url_match",
            "text": "Plastic Composites Manufacturing",
            "url": "https://haz-map.com/Processes/222",
            "confidence": 1.0,
            "uuid": "d4461b82-dc77-4172-8e3d-0a5e3b213911",
            "name": "Plastic Composites Manufacturing",
            "category": "processes"
          },
          {
            "type": "name_match",
            "text": "painting",
            "confidence": 1.0,
            "uuid": "19816ce9-9edf-4a86-8e64-b0cbf7dcf520",
            "name": "Painting",
            "url": "https://haz-map.com/Activities/9",
            "category": "activities"
          }
        ]
      }
    }
  },
  "cross_references": [
    {
      "type": "url_match",
      "text": "Encephalopathy, chronic solvent",
      "url": "https://haz-map.com/Diseases/325",
      "confidence": 1.0,
      "uuid": "589ad578-4636-444e-8823-bf2dd0c7aeab",
      "name": "Encephalopathy, chronic solvent",
      "category": "diseases"
    },
    {
      "type": "url_match",
      "text": "Solvents, acute toxic effect",
      "url": "https://haz-map.com/Diseases/326",
      "confidence": 1.0,
      "uuid": "581e90e3-9d0c-45f0-aa6c-3468c28da129",
      "name": "Solvents, acute toxic effect",
      "category": "diseases"
    },
    {
      "type": "url_match",
      "text": "Painting (Solvents)",
      "url": "https://haz-map.com/Processes/142",
      "confidence": 1.0,
      "uuid": "ca747481-4da1-4550-a546-f0d43a41b46c",
      "name": "Painting (Solvents)",
      "category": "processes"
    },
    {
      "type": "url_match",
      "text": "Plastic Composites Manufacturing",
      "url": "https://haz-map.com/Processes/222",
      "confidence": 1.0,
      "uuid": "d4461b82-dc77-4172-8e3d-0a5e3b213911",
      "name": "Plastic Composites Manufacturing",
      "category": "processes"
    },
    {
      "type": "name_match",
      "text": "painting",
      "confidence": 1.0,
      "uuid": "19816ce9-9edf-4a86-8e64-b0cbf7dcf520",
      "name": "Painting",
      "url": "https://haz-map.com/Activities/9",
      "category": "activities"
    },
    {
      "type": "name_match",
      "text": "mining",
      "confidence": 1.0,
      "uuid": "aaa4a4af-567a-4a01-83bc-ccad9fc73d04",
      "name": "Mining",
      "url": "https://haz-map.com/Processes/219",
      "category": "processes"
    },
    {
      "type": "name_match",
      "text": "acetone",
      "confidence": 1.0,
      "uuid": "31b7bdae-eb37-44cc-9c56-b6dfc1908d64",
      "name": "Acetone",
      "url": "https://haz-map.com/Agents/138",
      "category": "agents"
    },
    {
      "type": "name_match",
      "text": "methyl (n-amyl) ketone",
      "confidence": 1.0,
      "uuid": "d99baadd-1985-4219-a019-7058a54b9cdb",
      "name": "Methyl (n-amyl) ketone",
      "url": "https://haz-map.com/Agents/144",
      "category": "agents"
    },
    {
      "type": "name_match",
      "text": "ethyl amyl ketone",
      "confidence": 1.0,
      "uuid": "b24709a5-d3a7-4228-a56a-b7138412fe40",
      "name": "Ethyl amyl ketone",
      "url": "https://haz-map.com/Agents/482",
      "category": "agents"
    },
    {
      "type": "name_match",
      "text": "ash",
      "confidence": 1.0,
      "uuid": "68b360f1-5ad0-4337-bea0-d7adca2961b5",
      "name": "Ash",
      "url": "https://haz-map.com/Agents/965",
      "category": "agents"
    },
    {
      "type": "name_match",
      "text": "ht",
      "confidence": 1.0,
      "uuid": "764df367-8d53-4a11-81a2-31ccfe122a8d",
      "name": "HT",
      "url": "https://haz-map.com/Agents/2168",
      "category": "agents"
    }
  ],
  "all_links": [
    {
      "text": "Search PubMed",
      "url": "https://www.ncbi.nlm.nih.gov/pubmed?term=Methyl+(n-amyl)+ketone%20AND%20human%5Bmh%5D%20AND%20%28Occupational%20Diseases%20%5Bmh%5D%20OR%20Occupational%20Exposure%20%5Bmh%5D%29%20%20AND%20%28tox%5Bsb%5D%29&cmd=search"
    },
    {
      "text": "Encephalopathy, chronic solvent",
      "url": "https://haz-map.com/Diseases/325"
    },
    {
      "text": "Solvents, acute toxic effect",
      "url": "https://haz-map.com/Diseases/326"
    },
    {
      "text": "Painting (Solvents)",
      "url": "https://haz-map.com/Processes/142"
    },
    {
      "text": "Plastic Composites Manufacturing",
      "url": "https://haz-map.com/Processes/222"
    }
  ]
}