{
  "metadata": {
    "scraped_from": "https://haz-map.com/Agents/3292",
    "entity_name": "4-Chlorobenzophenone",
    "category": "agents",
    "uuid": "d9ac167d-6811-4b9f-aa77-1e7d804fc861",
    "scraped_at": "2025-07-23T19:27:05.396846"
  },
  "parsed_at": "2025-07-24T01:06:05.065527",
  "title": "4-Chlorobenzophenone",
  "sections": {
    "general": {
      "agent_name": {
        "original_name": "Agent Name",
        "value": "4-Chlorobenzophenone",
        "links": [],
        "cross_references": [
          {
            "type": "name_match",
            "text": "4-chlorobenzophenone",
            "confidence": 1.0,
            "uuid": "d9ac167d-6811-4b9f-aa77-1e7d804fc861",
            "name": "4-Chlorobenzophenone",
            "url": "https://haz-map.com/Agents/3292",
            "category": "agents"
          },
          {
            "type": "name_match",
            "text": "benzophenone",
            "confidence": 1.0,
            "uuid": "3fe45323-f1b9-4c0c-8aeb-7879750d2af2",
            "name": "Benzophenone",
            "url": "https://haz-map.com/Agents/3865",
            "category": "agents"
          }
        ]
      },
      "cas_number": {
        "original_name": "CAS Number",
        "value": "134-85-0",
        "links": [],
        "cross_references": []
      },
      "formula": {
        "original_name": "Formula",
        "value": "C13-H9-Cl-O",
        "links": [],
        "cross_references": []
      },
      "major_category": {
        "original_name": "Major Category",
        "value": "Other Classes",
        "links": [],
        "cross_references": []
      },
      "synonyms": {
        "original_name": "Synonyms",
        "value": "Benzophenone, 4-chloro-; Methanone, (4-chlorophenyl)phenyl-; p-CBP; p-Chlorobenzophenone; para-Chlorobenzophenone; [ChemIDplus]",
        "links": [],
        "cross_references": [
          {
            "type": "name_match",
            "text": "benzophenone",
            "confidence": 1.0,
            "uuid": "3fe45323-f1b9-4c0c-8aeb-7879750d2af2",
            "name": "Benzophenone",
            "url": "https://haz-map.com/Agents/3865",
            "category": "agents"
          }
        ]
      },
      "category": {
        "original_name": "Category",
        "value": "Benzophenones",
        "links": [],
        "cross_references": [
          {
            "type": "name_match",
            "text": "benzophenone",
            "confidence": 1.0,
            "uuid": "3fe45323-f1b9-4c0c-8aeb-7879750d2af2",
            "name": "Benzophenone",
            "url": "https://haz-map.com/Agents/3865",
            "category": "agents"
          }
        ]
      },
      "description": {
        "original_name": "Description",
        "value": "White to off-white solid; [HSDB] Off-white crystalline powder; [MSDSonline]",
        "links": [],
        "cross_references": [
          {
            "type": "fuzzy_match",
            "text": "crystalline",
            "matched_name": "Silica, crystalline",
            "confidence": 0.7061403508771931,
            "uuid": "f920e8a2-46df-41b7-af8d-0368a777251e",
            "category": "agents",
            "url": "https://haz-map.com/Agents/427"
          }
        ]
      },
      "sourcesuses": {
        "original_name": "Sources/Uses",
        "value": "Used as an intermediate; [HSDB]",
        "links": [],
        "cross_references": []
      },
      "comments": {
        "original_name": "Comments",
        "value": "May cause irritation; [MSDSonline] See \"Benzophenone.\"",
        "links": [],
        "cross_references": [
          {
            "type": "name_match",
            "text": "benzophenone",
            "confidence": 1.0,
            "uuid": "3fe45323-f1b9-4c0c-8aeb-7879750d2af2",
            "name": "Benzophenone",
            "url": "https://haz-map.com/Agents/3865",
            "category": "agents"
          }
        ]
      },
      "biomedical_references": {
        "original_name": "Biomedical References",
        "value": "Search PubMed",
        "links": [
          {
            "text": "Search PubMed",
            "url": "https://www.ncbi.nlm.nih.gov/pubmed?term=4-Chlorobenzophenone%20AND%20human%5Bmh%5D%20AND%20%28Occupational%20Diseases%20%5Bmh%5D%20OR%20Occupational%20Exposure%20%5Bmh%5D%29%20%20AND%20%28tox%5Bsb%5D%29&cmd=search"
          }
        ],
        "cross_references": []
      }
    },
    "exposure_assessment": {
      "vapor_pressure": {
        "original_name": "Vapor Pressure",
        "value": "0.00011 mm Hg",
        "links": [],
        "cross_references": []
      }
    },
    "diseases_processes_and_activities_linked_to_this_agent": {
      "other_information": {
        "original_name": "Other Information",
        "value": "No other related information on this agent was found.",
        "links": [],
        "cross_references": []
      }
    }
  },
  "cross_references": [
    {
      "type": "name_match",
      "text": "4-chlorobenzophenone",
      "confidence": 1.0,
      "uuid": "d9ac167d-6811-4b9f-aa77-1e7d804fc861",
      "name": "4-Chlorobenzophenone",
      "url": "https://haz-map.com/Agents/3292",
      "category": "agents"
    },
    {
      "type": "name_match",
      "text": "benzophenone",
      "confidence": 1.0,
      "uuid": "3fe45323-f1b9-4c0c-8aeb-7879750d2af2",
      "name": "Benzophenone",
      "url": "https://haz-map.com/Agents/3865",
      "category": "agents"
    },
    {
      "type": "fuzzy_match",
      "text": "crystalline",
      "matched_name": "Silica, crystalline",
      "confidence": 0.7061403508771931,
      "uuid": "f920e8a2-46df-41b7-af8d-0368a777251e",
      "category": "agents",
      "url": "https://haz-map.com/Agents/427"
    }
  ],
  "all_links": [
    {
      "text": "Search PubMed",
      "url": "https://www.ncbi.nlm.nih.gov/pubmed?term=4-Chlorobenzophenone%20AND%20human%5Bmh%5D%20AND%20%28Occupational%20Diseases%20%5Bmh%5D%20OR%20Occupational%20Exposure%20%5Bmh%5D%29%20%20AND%20%28tox%5Bsb%5D%29&cmd=search"
    }
  ]
}