{
  "metadata": {
    "scraped_from": "https://haz-map.com/Agents/21346",
    "entity_name": "N-Nitrosooctamethyleneimine",
    "category": "agents",
    "uuid": "d9d7f1a3-3ac4-4a7e-bdc8-8f0f0cc7f504",
    "scraped_at": "2025-07-23T22:42:16.321318"
  },
  "parsed_at": "2025-07-24T01:10:23.827342",
  "title": "N-Nitrosooctamethyleneimine",
  "sections": {
    "general": {
      "agent_name": {
        "original_name": "Agent Name",
        "value": "N-Nitrosooctamethyleneimine",
        "links": [],
        "cross_references": [
          {
            "type": "name_match",
            "text": "ethyleneimine",
            "confidence": 1.0,
            "uuid": "e1ebff38-07a8-4961-a722-504ebacc7a8a",
            "name": "Ethyleneimine",
            "url": "https://haz-map.com/Agents/280",
            "category": "agents"
          },
          {
            "type": "name_match",
            "text": "ethylene",
            "confidence": 1.0,
            "uuid": "958eacc0-5135-4b62-bb93-6df972bf552f",
            "name": "Ethylene",
            "url": "https://haz-map.com/Agents/1076",
            "category": "agents"
          },
          {
            "type": "name_match",
            "text": "n-nitrosooctamethyleneimine",
            "confidence": 1.0,
            "uuid": "d9d7f1a3-3ac4-4a7e-bdc8-8f0f0cc7f504",
            "name": "N-Nitrosooctamethyleneimine",
            "url": "https://haz-map.com/Agents/21346",
            "category": "agents"
          }
        ]
      },
      "cas_number": {
        "original_name": "CAS Number",
        "value": "20917-50-4",
        "links": [],
        "cross_references": []
      },
      "formula": {
        "original_name": "Formula",
        "value": "C8-H16-N2-O",
        "links": [],
        "cross_references": []
      },
      "major_category": {
        "original_name": "Major Category",
        "value": "Nitrogen Compounds",
        "links": [],
        "cross_references": [
          {
            "type": "name_match",
            "text": "nitrogen",
            "confidence": 1.0,
            "uuid": "db5e90a9-06d2-45b9-8b81-f345a89b0bc0",
            "name": "Nitrogen",
            "url": "https://haz-map.com/Agents/1072",
            "category": "agents"
          }
        ]
      },
      "synonyms": {
        "original_name": "Synonyms",
        "value": "N-Nitrosoazacyclononane; Octahydro-1-nitroso-1H-azonine; 1H-Azonine, octahydro-1-nitroso-; [ChemIDplus]",
        "links": [],
        "cross_references": [
          {
            "type": "name_match",
            "text": "nonane",
            "confidence": 1.0,
            "uuid": "fe0f019a-d093-4bb9-a7d3-2f2ceaf91953",
            "name": "Nonane",
            "url": "https://haz-map.com/Agents/578",
            "category": "agents"
          }
        ]
      },
      "category": {
        "original_name": "Category",
        "value": "Nitrosamines",
        "links": [],
        "cross_references": [
          {
            "type": "name_match",
            "text": "nitrosamines",
            "confidence": 1.0,
            "uuid": "71647706-f82f-4f7a-a1ad-2500c04c2ac0",
            "name": "NITROSAMINES",
            "url": "https://haz-map.com/Agents/767",
            "category": "agents"
          }
        ]
      },
      "comments": {
        "original_name": "Comments",
        "value": "Causes acute pulmonary edema and zonal hepatitis in oral lethal-dose studies of rats; [RTECS] See \"NITROSAMINES.\"",
        "links": [],
        "cross_references": [
          {
            "type": "name_match",
            "text": "pulmonary edema",
            "confidence": 1.0,
            "uuid": "ee39114e-c922-40fd-9588-a532de404962",
            "name": "pulmonary edema",
            "url": "https://haz-map.com/Findings/186",
            "category": "findings"
          },
          {
            "type": "name_match",
            "text": "nitrosamines",
            "confidence": 1.0,
            "uuid": "71647706-f82f-4f7a-a1ad-2500c04c2ac0",
            "name": "NITROSAMINES",
            "url": "https://haz-map.com/Agents/767",
            "category": "agents"
          }
        ]
      },
      "biomedical_references": {
        "original_name": "Biomedical References",
        "value": "Search PubMed",
        "links": [
          {
            "text": "Search PubMed",
            "url": "https://www.ncbi.nlm.nih.gov/pubmed?term=N-Nitrosooctamethyleneimine%20AND%20human%5Bmh%5D%20AND%20%28Occupational%20Diseases%20%5Bmh%5D%20OR%20Occupational%20Exposure%20%5Bmh%5D%29%20%20AND%20%28tox%5Bsb%5D%29&cmd=search"
          }
        ],
        "cross_references": []
      }
    },
    "exposure_assessment": {
      "vapor_pressure": {
        "original_name": "Vapor Pressure",
        "value": "0.0073 mm Hg",
        "links": [],
        "cross_references": []
      }
    },
    "adverse_effects": {
      "hepatotoxin": {
        "original_name": "Hepatotoxin",
        "value": "Hepatoxic (a) from occupational exposure (secondary effect) or (b) in animal studies or in humans after ingestion",
        "links": [],
        "cross_references": []
      }
    },
    "diseases_processes_and_activities_linked_to_this_agent": {
      "other_information": {
        "original_name": "Other Information",
        "value": "No other related information on this agent was found.",
        "links": [],
        "cross_references": []
      }
    }
  },
  "cross_references": [
    {
      "type": "name_match",
      "text": "pulmonary edema",
      "confidence": 1.0,
      "uuid": "ee39114e-c922-40fd-9588-a532de404962",
      "name": "pulmonary edema",
      "url": "https://haz-map.com/Findings/186",
      "category": "findings"
    },
    {
      "type": "name_match",
      "text": "ethyleneimine",
      "confidence": 1.0,
      "uuid": "e1ebff38-07a8-4961-a722-504ebacc7a8a",
      "name": "Ethyleneimine",
      "url": "https://haz-map.com/Agents/280",
      "category": "agents"
    },
    {
      "type": "name_match",
      "text": "nonane",
      "confidence": 1.0,
      "uuid": "fe0f019a-d093-4bb9-a7d3-2f2ceaf91953",
      "name": "Nonane",
      "url": "https://haz-map.com/Agents/578",
      "category": "agents"
    },
    {
      "type": "name_match",
      "text": "nitrosamines",
      "confidence": 1.0,
      "uuid": "71647706-f82f-4f7a-a1ad-2500c04c2ac0",
      "name": "NITROSAMINES",
      "url": "https://haz-map.com/Agents/767",
      "category": "agents"
    },
    {
      "type": "name_match",
      "text": "nitrogen",
      "confidence": 1.0,
      "uuid": "db5e90a9-06d2-45b9-8b81-f345a89b0bc0",
      "name": "Nitrogen",
      "url": "https://haz-map.com/Agents/1072",
      "category": "agents"
    },
    {
      "type": "name_match",
      "text": "ethylene",
      "confidence": 1.0,
      "uuid": "958eacc0-5135-4b62-bb93-6df972bf552f",
      "name": "Ethylene",
      "url": "https://haz-map.com/Agents/1076",
      "category": "agents"
    },
    {
      "type": "name_match",
      "text": "n-nitrosooctamethyleneimine",
      "confidence": 1.0,
      "uuid": "d9d7f1a3-3ac4-4a7e-bdc8-8f0f0cc7f504",
      "name": "N-Nitrosooctamethyleneimine",
      "url": "https://haz-map.com/Agents/21346",
      "category": "agents"
    }
  ],
  "all_links": [
    {
      "text": "Search PubMed",
      "url": "https://www.ncbi.nlm.nih.gov/pubmed?term=N-Nitrosooctamethyleneimine%20AND%20human%5Bmh%5D%20AND%20%28Occupational%20Diseases%20%5Bmh%5D%20OR%20Occupational%20Exposure%20%5Bmh%5D%29%20%20AND%20%28tox%5Bsb%5D%29&cmd=search"
    }
  ]
}