{
  "metadata": {
    "scraped_from": "https://haz-map.com/Agents/21270",
    "entity_name": "N',N'-Dimethyl-N-ethyl-N-nitrosourea",
    "category": "agents",
    "uuid": "d9e67a50-7197-41f5-9961-ff1c6695df07",
    "scraped_at": "2025-07-23T22:40:40.031237"
  },
  "parsed_at": "2025-07-24T01:04:14.397959",
  "title": "N',N'-Dimethyl-N-ethyl-N-nitrosourea",
  "sections": {
    "general": {
      "agent_name": {
        "original_name": "Agent Name",
        "value": "N',N'-Dimethyl-N-ethyl-N-nitrosourea",
        "links": [],
        "cross_references": [
          {
            "type": "name_match",
            "text": "urea",
            "confidence": 1.0,
            "uuid": "a92a6129-bddd-4f79-9a78-136812ae610f",
            "name": "Urea",
            "url": "https://haz-map.com/Agents/2078",
            "category": "agents"
          },
          {
            "type": "name_match",
            "text": "n',n'-dimethyl-n-ethyl-n-nitrosourea",
            "confidence": 1.0,
            "uuid": "d9e67a50-7197-41f5-9961-ff1c6695df07",
            "name": "N',N'-Dimethyl-N-ethyl-N-nitrosourea",
            "url": "https://haz-map.com/Agents/21270",
            "category": "agents"
          }
        ]
      },
      "cas_number": {
        "original_name": "CAS Number",
        "value": "50285-71-7",
        "links": [],
        "cross_references": []
      },
      "formula": {
        "original_name": "Formula",
        "value": "C5-H11-N3-O2",
        "links": [],
        "cross_references": []
      },
      "major_category": {
        "original_name": "Major Category",
        "value": "Nitrogen Compounds",
        "links": [],
        "cross_references": [
          {
            "type": "name_match",
            "text": "nitrogen",
            "confidence": 1.0,
            "uuid": "db5e90a9-06d2-45b9-8b81-f345a89b0bc0",
            "name": "Nitrogen",
            "url": "https://haz-map.com/Agents/1072",
            "category": "agents"
          }
        ]
      },
      "synonyms": {
        "original_name": "Synonyms",
        "value": "1,1-Dimethyl-3-ethyl-3-nitrosourea; 1-Nitroso-1-ethyl-3,3-dimethylurea; N'-N'-Dimethyl-N-ethyl-N-nitrosourea; Nitroso-1,1-dimethyl-3-ethylurea; Nitrosoaethyldimethylharnstoff; Nitrosoethyldimethylurea; Urea, N-ethyl-N',N'-dimethyl-N-nitroso-; Urea, 1,1-dimethyl-3-ethyl-3-nitroso-; [ChemIDplus]",
        "links": [],
        "cross_references": [
          {
            "type": "name_match",
            "text": "urea",
            "confidence": 1.0,
            "uuid": "a92a6129-bddd-4f79-9a78-136812ae610f",
            "name": "Urea",
            "url": "https://haz-map.com/Agents/2078",
            "category": "agents"
          },
          {
            "type": "name_match",
            "text": "methylurea",
            "confidence": 1.0,
            "uuid": "b888d9c8-b4c5-4fa1-8a2a-b0823b193d30",
            "name": "Methylurea",
            "url": "https://haz-map.com/Agents/21164",
            "category": "agents"
          },
          {
            "type": "fuzzy_match",
            "text": "n'-dimethyl-n-ethyl-n-nitrosourea",
            "matched_name": "N',N'-Dimethyl-N-ethyl-N-nitrosourea",
            "confidence": 0.928921568627451,
            "uuid": "d9e67a50-7197-41f5-9961-ff1c6695df07",
            "category": "agents",
            "url": "https://haz-map.com/Agents/21270"
          },
          {
            "type": "fuzzy_match",
            "text": "3-dimethylurea",
            "matched_name": "1,3-Dimethylurea",
            "confidence": 0.8708333333333333,
            "uuid": "6b03ed3a-89c5-4dfc-ac1e-7df0c4990062",
            "category": "agents",
            "url": "https://haz-map.com/Agents/2800"
          }
        ]
      },
      "category": {
        "original_name": "Category",
        "value": "Nitrosamines",
        "links": [],
        "cross_references": [
          {
            "type": "name_match",
            "text": "nitrosamines",
            "confidence": 1.0,
            "uuid": "71647706-f82f-4f7a-a1ad-2500c04c2ac0",
            "name": "NITROSAMINES",
            "url": "https://haz-map.com/Agents/767",
            "category": "agents"
          }
        ]
      },
      "comments": {
        "original_name": "Comments",
        "value": "See \"NITROSAMINES.\"",
        "links": [],
        "cross_references": [
          {
            "type": "name_match",
            "text": "nitrosamines",
            "confidence": 1.0,
            "uuid": "71647706-f82f-4f7a-a1ad-2500c04c2ac0",
            "name": "NITROSAMINES",
            "url": "https://haz-map.com/Agents/767",
            "category": "agents"
          }
        ]
      },
      "biomedical_references": {
        "original_name": "Biomedical References",
        "value": "Search PubMed",
        "links": [
          {
            "text": "Search PubMed",
            "url": "https://www.ncbi.nlm.nih.gov/pubmed?term=N%26%2339%3b%2cN%26%2339%3b-Dimethyl-N-ethyl-N-nitrosourea%20AND%20human%5Bmh%5D%20AND%20%28Occupational%20Diseases%20%5Bmh%5D%20OR%20Occupational%20Exposure%20%5Bmh%5D%29%20%20AND%20%28tox%5Bsb%5D%29&cmd=search"
          }
        ],
        "cross_references": []
      }
    },
    "exposure_assessment": {
      "vapor_pressure": {
        "original_name": "Vapor Pressure",
        "value": "0.679 mm Hg",
        "links": [],
        "cross_references": []
      }
    },
    "diseases_processes_and_activities_linked_to_this_agent": {
      "other_information": {
        "original_name": "Other Information",
        "value": "No other related information on this agent was found.",
        "links": [],
        "cross_references": []
      }
    }
  },
  "cross_references": [
    {
      "type": "name_match",
      "text": "nitrosamines",
      "confidence": 1.0,
      "uuid": "71647706-f82f-4f7a-a1ad-2500c04c2ac0",
      "name": "NITROSAMINES",
      "url": "https://haz-map.com/Agents/767",
      "category": "agents"
    },
    {
      "type": "name_match",
      "text": "nitrogen",
      "confidence": 1.0,
      "uuid": "db5e90a9-06d2-45b9-8b81-f345a89b0bc0",
      "name": "Nitrogen",
      "url": "https://haz-map.com/Agents/1072",
      "category": "agents"
    },
    {
      "type": "name_match",
      "text": "urea",
      "confidence": 1.0,
      "uuid": "a92a6129-bddd-4f79-9a78-136812ae610f",
      "name": "Urea",
      "url": "https://haz-map.com/Agents/2078",
      "category": "agents"
    },
    {
      "type": "name_match",
      "text": "methylurea",
      "confidence": 1.0,
      "uuid": "b888d9c8-b4c5-4fa1-8a2a-b0823b193d30",
      "name": "Methylurea",
      "url": "https://haz-map.com/Agents/21164",
      "category": "agents"
    },
    {
      "type": "name_match",
      "text": "n',n'-dimethyl-n-ethyl-n-nitrosourea",
      "confidence": 1.0,
      "uuid": "d9e67a50-7197-41f5-9961-ff1c6695df07",
      "name": "N',N'-Dimethyl-N-ethyl-N-nitrosourea",
      "url": "https://haz-map.com/Agents/21270",
      "category": "agents"
    },
    {
      "type": "fuzzy_match",
      "text": "3-dimethylurea",
      "matched_name": "1,3-Dimethylurea",
      "confidence": 0.8708333333333333,
      "uuid": "6b03ed3a-89c5-4dfc-ac1e-7df0c4990062",
      "category": "agents",
      "url": "https://haz-map.com/Agents/2800"
    }
  ],
  "all_links": [
    {
      "text": "Search PubMed",
      "url": "https://www.ncbi.nlm.nih.gov/pubmed?term=N%26%2339%3b%2cN%26%2339%3b-Dimethyl-N-ethyl-N-nitrosourea%20AND%20human%5Bmh%5D%20AND%20%28Occupational%20Diseases%20%5Bmh%5D%20OR%20Occupational%20Exposure%20%5Bmh%5D%29%20%20AND%20%28tox%5Bsb%5D%29&cmd=search"
    }
  ]
}