{
  "metadata": {
    "scraped_from": "https://haz-map.com/Agents/1638",
    "entity_name": "2-Methyl-2-heptanethiol",
    "category": "agents",
    "uuid": "d9f1e73c-fdb0-4a90-9cb4-1393bfd7a2e5",
    "scraped_at": "2025-07-23T19:02:36.315787"
  },
  "parsed_at": "2025-07-24T01:02:26.877939",
  "title": "2-Methyl-2-heptanethiol",
  "sections": {
    "general": {
      "agent_name": {
        "original_name": "Agent Name",
        "value": "2-Methyl-2-heptanethiol",
        "links": [],
        "cross_references": [
          {
            "type": "name_match",
            "text": "2-methyl-2-heptanethiol",
            "confidence": 1.0,
            "uuid": "d9f1e73c-fdb0-4a90-9cb4-1393bfd7a2e5",
            "name": "2-Methyl-2-heptanethiol",
            "url": "https://haz-map.com/Agents/1638",
            "category": "agents"
          },
          {
            "type": "name_match",
            "text": "2-heptanethiol",
            "confidence": 1.0,
            "uuid": "057ce97b-801c-4314-ba71-1ad178e08f2d",
            "name": "2-Heptanethiol",
            "url": "https://haz-map.com/Agents/10208",
            "category": "agents"
          }
        ]
      },
      "cas_number": {
        "original_name": "CAS Number",
        "value": "763-20-2",
        "links": [],
        "cross_references": []
      },
      "formula": {
        "original_name": "Formula",
        "value": "C8-H18-S",
        "links": [],
        "cross_references": []
      },
      "major_category": {
        "original_name": "Major Category",
        "value": "Toxic Gases & Vapors",
        "links": [],
        "cross_references": []
      },
      "synonyms": {
        "original_name": "Synonyms",
        "value": "2-Methyl-2-heptylmercaptan; 2-Heptanethiol, 2-methyl-; UN3023; [ChemIDplus]",
        "links": [],
        "cross_references": [
          {
            "type": "name_match",
            "text": "captan",
            "confidence": 1.0,
            "uuid": "19bf918c-9caa-4481-999a-002bb3395f5a",
            "name": "Captan",
            "url": "https://haz-map.com/Agents/341",
            "category": "agents"
          },
          {
            "type": "name_match",
            "text": "2-heptanethiol",
            "confidence": 1.0,
            "uuid": "057ce97b-801c-4314-ba71-1ad178e08f2d",
            "name": "2-Heptanethiol",
            "url": "https://haz-map.com/Agents/10208",
            "category": "agents"
          }
        ]
      },
      "category": {
        "original_name": "Category",
        "value": "Other Toxic Gases & Vapors",
        "links": [],
        "cross_references": []
      },
      "description": {
        "original_name": "Description",
        "value": "Yellow liquid with an obnoxious odor; [CAMEO]",
        "links": [],
        "cross_references": []
      },
      "sourcesuses": {
        "original_name": "Sources/Uses",
        "value": "Used as a lubricant additive and a polymer modifier; [CAMEO]",
        "links": [],
        "cross_references": []
      },
      "comments": {
        "original_name": "Comments",
        "value": "Highly toxic by inhalation or skin absorption; Irritating to the skin and eyes; Decomposes in heat to release sulfur oxides and flammable hydrogen sulfide; [CAMEO] See \"THIOLS.\"",
        "links": [],
        "cross_references": [
          {
            "type": "name_match",
            "text": "hydrogen sulfide",
            "confidence": 1.0,
            "uuid": "f19cb2ec-fb76-4caf-bf11-33b23fef9ae6",
            "name": "Hydrogen sulfide",
            "url": "https://haz-map.com/Agents/22",
            "category": "agents"
          },
          {
            "type": "name_match",
            "text": "thiols",
            "confidence": 1.0,
            "uuid": "c2e8a59b-9094-4832-9851-2c3cfd1fa8f9",
            "name": "THIOLS",
            "url": "https://haz-map.com/Agents/709",
            "category": "agents"
          },
          {
            "type": "name_match",
            "text": "hydrogen",
            "confidence": 1.0,
            "uuid": "e2d9645f-5559-4d88-b820-fc4710c154f2",
            "name": "Hydrogen",
            "url": "https://haz-map.com/Agents/1070",
            "category": "agents"
          },
          {
            "type": "name_match",
            "text": "sulfur",
            "confidence": 1.0,
            "uuid": "5aabdef6-71c8-44c8-b762-feaabff50696",
            "name": "Sulfur",
            "url": "https://haz-map.com/Agents/1942",
            "category": "agents"
          }
        ]
      },
      "biomedical_references": {
        "original_name": "Biomedical References",
        "value": "Search PubMed",
        "links": [
          {
            "text": "Search PubMed",
            "url": "https://www.ncbi.nlm.nih.gov/pubmed?term=2-Methyl-2-heptanethiol%20AND%20human%5Bmh%5D%20AND%20%28Occupational%20Diseases%20%5Bmh%5D%20OR%20Occupational%20Exposure%20%5Bmh%5D%29%20%20AND%20%28tox%5Bsb%5D%29&cmd=search"
          }
        ],
        "cross_references": []
      }
    },
    "exposure_assessment": {
      "tih": {
        "original_name": "TIH",
        "value": "Yes",
        "links": [],
        "cross_references": []
      },
      "explanatory_notes": {
        "original_name": "Explanatory Notes",
        "value": "Flash point = 115 deg F [CAMEO]",
        "links": [],
        "cross_references": [
          {
            "type": "name_match",
            "text": "ash",
            "confidence": 1.0,
            "uuid": "68b360f1-5ad0-4337-bea0-d7adca2961b5",
            "name": "Ash",
            "url": "https://haz-map.com/Agents/965",
            "category": "agents"
          }
        ]
      }
    },
    "adverse_effects": {
      "other_poison": {
        "original_name": "Other Poison",
        "value": "Chemical Asphyxiant",
        "links": [],
        "cross_references": [
          {
            "type": "name_match",
            "text": "mica",
            "confidence": 1.0,
            "uuid": "433f26f1-c399-4596-b179-ce3843cfd465",
            "name": "Mica",
            "url": "https://haz-map.com/Agents/621",
            "category": "agents"
          }
        ]
      }
    },
    "diseases_processes_and_activities_linked_to_this_agent": {
      "other_information": {
        "original_name": "Other Information",
        "value": "No other related information on this agent was found.",
        "links": [],
        "cross_references": []
      }
    }
  },
  "cross_references": [
    {
      "type": "name_match",
      "text": "hydrogen sulfide",
      "confidence": 1.0,
      "uuid": "f19cb2ec-fb76-4caf-bf11-33b23fef9ae6",
      "name": "Hydrogen sulfide",
      "url": "https://haz-map.com/Agents/22",
      "category": "agents"
    },
    {
      "type": "name_match",
      "text": "captan",
      "confidence": 1.0,
      "uuid": "19bf918c-9caa-4481-999a-002bb3395f5a",
      "name": "Captan",
      "url": "https://haz-map.com/Agents/341",
      "category": "agents"
    },
    {
      "type": "name_match",
      "text": "mica",
      "confidence": 1.0,
      "uuid": "433f26f1-c399-4596-b179-ce3843cfd465",
      "name": "Mica",
      "url": "https://haz-map.com/Agents/621",
      "category": "agents"
    },
    {
      "type": "name_match",
      "text": "thiols",
      "confidence": 1.0,
      "uuid": "c2e8a59b-9094-4832-9851-2c3cfd1fa8f9",
      "name": "THIOLS",
      "url": "https://haz-map.com/Agents/709",
      "category": "agents"
    },
    {
      "type": "name_match",
      "text": "ash",
      "confidence": 1.0,
      "uuid": "68b360f1-5ad0-4337-bea0-d7adca2961b5",
      "name": "Ash",
      "url": "https://haz-map.com/Agents/965",
      "category": "agents"
    },
    {
      "type": "name_match",
      "text": "hydrogen",
      "confidence": 1.0,
      "uuid": "e2d9645f-5559-4d88-b820-fc4710c154f2",
      "name": "Hydrogen",
      "url": "https://haz-map.com/Agents/1070",
      "category": "agents"
    },
    {
      "type": "name_match",
      "text": "2-methyl-2-heptanethiol",
      "confidence": 1.0,
      "uuid": "d9f1e73c-fdb0-4a90-9cb4-1393bfd7a2e5",
      "name": "2-Methyl-2-heptanethiol",
      "url": "https://haz-map.com/Agents/1638",
      "category": "agents"
    },
    {
      "type": "name_match",
      "text": "sulfur",
      "confidence": 1.0,
      "uuid": "5aabdef6-71c8-44c8-b762-feaabff50696",
      "name": "Sulfur",
      "url": "https://haz-map.com/Agents/1942",
      "category": "agents"
    },
    {
      "type": "name_match",
      "text": "2-heptanethiol",
      "confidence": 1.0,
      "uuid": "057ce97b-801c-4314-ba71-1ad178e08f2d",
      "name": "2-Heptanethiol",
      "url": "https://haz-map.com/Agents/10208",
      "category": "agents"
    }
  ],
  "all_links": [
    {
      "text": "Search PubMed",
      "url": "https://www.ncbi.nlm.nih.gov/pubmed?term=2-Methyl-2-heptanethiol%20AND%20human%5Bmh%5D%20AND%20%28Occupational%20Diseases%20%5Bmh%5D%20OR%20Occupational%20Exposure%20%5Bmh%5D%29%20%20AND%20%28tox%5Bsb%5D%29&cmd=search"
    }
  ]
}