{
  "metadata": {
    "scraped_from": "https://haz-map.com/Agents/20048",
    "entity_name": "4-Hydroxyacetophenone",
    "category": "agents",
    "uuid": "da33fa4a-bac1-4b12-aab3-14d92fe19b37",
    "scraped_at": "2025-07-23T22:17:58.991478"
  },
  "parsed_at": "2025-07-24T01:02:43.117572",
  "title": "4-Hydroxyacetophenone",
  "sections": {
    "general": {
      "agent_name": {
        "original_name": "Agent Name",
        "value": "4-Hydroxyacetophenone",
        "links": [],
        "cross_references": [
          {
            "type": "name_match",
            "text": "acetophenone",
            "confidence": 1.0,
            "uuid": "ea2f7a13-5a06-4d04-88db-0d365933a3ec",
            "name": "Acetophenone",
            "url": "https://haz-map.com/Agents/2193",
            "category": "agents"
          },
          {
            "type": "name_match",
            "text": "4-hydroxyacetophenone",
            "confidence": 1.0,
            "uuid": "da33fa4a-bac1-4b12-aab3-14d92fe19b37",
            "name": "4-Hydroxyacetophenone",
            "url": "https://haz-map.com/Agents/20048",
            "category": "agents"
          }
        ]
      },
      "cas_number": {
        "original_name": "CAS Number",
        "value": "99-93-4",
        "links": [],
        "cross_references": []
      },
      "formula": {
        "original_name": "Formula",
        "value": "C8-H8-O2",
        "links": [],
        "cross_references": []
      },
      "major_category": {
        "original_name": "Major Category",
        "value": "Other Classes",
        "links": [],
        "cross_references": []
      },
      "synonyms": {
        "original_name": "Synonyms",
        "value": "1-(4-Hydroxyphenyl)ethanone; 4'-Hydroxyacetophenone; 4-Acetylphenol; 4-Hydroksyacetofenol [Polish]; Acetophenone, 4'-hydroxy-; Acetophenone, p-hydroxy-; HYDROXYACETOPHENONE, PARA; Methyl p-hydroxyphenyl ketone; Methyl-p-hydroxyphenyl ketone; p-Acetylphenol; p-Hydroxyacetophenone; p-Hydroxyphenyl methyl ketone; p-Oxyacetophenone; Phenol, p-acetyl-; Piceol; Ethanone, 1-(4-hydroxyphenyl)-; [ChemIDplus]",
        "links": [],
        "cross_references": [
          {
            "type": "name_match",
            "text": "phenol",
            "confidence": 1.0,
            "uuid": "03141a03-a7df-4f51-9a37-adde1a7c4b31",
            "name": "Phenol",
            "url": "https://haz-map.com/Agents/84",
            "category": "agents"
          },
          {
            "type": "name_match",
            "text": "acetophenone",
            "confidence": 1.0,
            "uuid": "ea2f7a13-5a06-4d04-88db-0d365933a3ec",
            "name": "Acetophenone",
            "url": "https://haz-map.com/Agents/2193",
            "category": "agents"
          }
        ]
      },
      "category": {
        "original_name": "Category",
        "value": "Aromatic Ketones",
        "links": [],
        "cross_references": []
      },
      "description": {
        "original_name": "Description",
        "value": "White or off-white powder; [Alfa Aesar MSDS]",
        "links": [],
        "cross_references": []
      },
      "sourcesuses": {
        "original_name": "Sources/Uses",
        "value": "A flavoring agent that naturally occurs in cloudberry, coffee, mango, sherry, and in trace amounts in cranberry; [EFSA] Used as an intermediate for plastics, cosmetics, and pharmaceuticals; [ECHA REACH Registrations]",
        "links": [],
        "cross_references": [
          {
            "type": "name_match",
            "text": "pharmaceuticals",
            "confidence": 1.0,
            "uuid": "713c3c30-b67e-4a2f-a90f-b32f8a306332",
            "name": "PHARMACEUTICALS",
            "url": "https://haz-map.com/Agents/1000",
            "category": "agents"
          }
        ]
      },
      "comments": {
        "original_name": "Comments",
        "value": "Safe when used as a flavoring agent in food; [EFSA] A skin and strong eye irritant; Toxic by ingestion; [Alfa Aesar MSDS] See \"2'-Hydroxyacetophenone,\" \"3'-Hydroxyacetophenone,\" and \"Acetophenone.\"",
        "links": [],
        "cross_references": [
          {
            "type": "name_match",
            "text": "acetophenone",
            "confidence": 1.0,
            "uuid": "ea2f7a13-5a06-4d04-88db-0d365933a3ec",
            "name": "Acetophenone",
            "url": "https://haz-map.com/Agents/2193",
            "category": "agents"
          },
          {
            "type": "name_match",
            "text": "3'-hydroxyacetophenone",
            "confidence": 1.0,
            "uuid": "996f45fe-8230-45b4-98ba-bbf91fd2d426",
            "name": "3'-Hydroxyacetophenone",
            "url": "https://haz-map.com/Agents/10766",
            "category": "agents"
          },
          {
            "type": "name_match",
            "text": "2'-hydroxyacetophenone",
            "confidence": 1.0,
            "uuid": "491850e5-3d3d-49b9-9719-25f0147898f1",
            "name": "2'-Hydroxyacetophenone",
            "url": "https://haz-map.com/Agents/19615",
            "category": "agents"
          }
        ]
      },
      "biomedical_references": {
        "original_name": "Biomedical References",
        "value": "Search PubMed",
        "links": [
          {
            "text": "Search PubMed",
            "url": "https://www.ncbi.nlm.nih.gov/pubmed?term=4-Hydroxyacetophenone%20AND%20human%5Bmh%5D%20AND%20%28Occupational%20Diseases%20%5Bmh%5D%20OR%20Occupational%20Exposure%20%5Bmh%5D%29%20%20AND%20%28tox%5Bsb%5D%29&cmd=search"
          }
        ],
        "cross_references": []
      }
    },
    "exposure_assessment": {
      "vapor_pressure": {
        "original_name": "Vapor Pressure",
        "value": "0.00748 mm Hg",
        "links": [],
        "cross_references": []
      }
    },
    "diseases_processes_and_activities_linked_to_this_agent": {
      "other_information": {
        "original_name": "Other Information",
        "value": "No other related information on this agent was found.",
        "links": [],
        "cross_references": []
      }
    }
  },
  "cross_references": [
    {
      "type": "name_match",
      "text": "phenol",
      "confidence": 1.0,
      "uuid": "03141a03-a7df-4f51-9a37-adde1a7c4b31",
      "name": "Phenol",
      "url": "https://haz-map.com/Agents/84",
      "category": "agents"
    },
    {
      "type": "name_match",
      "text": "pharmaceuticals",
      "confidence": 1.0,
      "uuid": "713c3c30-b67e-4a2f-a90f-b32f8a306332",
      "name": "PHARMACEUTICALS",
      "url": "https://haz-map.com/Agents/1000",
      "category": "agents"
    },
    {
      "type": "name_match",
      "text": "acetophenone",
      "confidence": 1.0,
      "uuid": "ea2f7a13-5a06-4d04-88db-0d365933a3ec",
      "name": "Acetophenone",
      "url": "https://haz-map.com/Agents/2193",
      "category": "agents"
    },
    {
      "type": "name_match",
      "text": "3'-hydroxyacetophenone",
      "confidence": 1.0,
      "uuid": "996f45fe-8230-45b4-98ba-bbf91fd2d426",
      "name": "3'-Hydroxyacetophenone",
      "url": "https://haz-map.com/Agents/10766",
      "category": "agents"
    },
    {
      "type": "name_match",
      "text": "2'-hydroxyacetophenone",
      "confidence": 1.0,
      "uuid": "491850e5-3d3d-49b9-9719-25f0147898f1",
      "name": "2'-Hydroxyacetophenone",
      "url": "https://haz-map.com/Agents/19615",
      "category": "agents"
    },
    {
      "type": "name_match",
      "text": "4-hydroxyacetophenone",
      "confidence": 1.0,
      "uuid": "da33fa4a-bac1-4b12-aab3-14d92fe19b37",
      "name": "4-Hydroxyacetophenone",
      "url": "https://haz-map.com/Agents/20048",
      "category": "agents"
    }
  ],
  "all_links": [
    {
      "text": "Search PubMed",
      "url": "https://www.ncbi.nlm.nih.gov/pubmed?term=4-Hydroxyacetophenone%20AND%20human%5Bmh%5D%20AND%20%28Occupational%20Diseases%20%5Bmh%5D%20OR%20Occupational%20Exposure%20%5Bmh%5D%29%20%20AND%20%28tox%5Bsb%5D%29&cmd=search"
    }
  ]
}