{
  "metadata": {
    "scraped_from": "https://haz-map.com/Agents/5691",
    "entity_name": "Isodecyl alcohol",
    "category": "agents",
    "uuid": "da90fad3-b686-44bf-a5c7-286dbd49c233",
    "scraped_at": "2025-07-23T19:55:03.923538"
  },
  "parsed_at": "2025-07-24T00:58:39.335652",
  "title": "Isodecyl alcohol",
  "sections": {
    "general": {
      "agent_name": {
        "original_name": "Agent Name",
        "value": "Isodecyl alcohol",
        "links": [],
        "cross_references": [
          {
            "type": "name_match",
            "text": "isodecyl alcohol",
            "confidence": 1.0,
            "uuid": "da90fad3-b686-44bf-a5c7-286dbd49c233",
            "name": "Isodecyl alcohol",
            "url": "https://haz-map.com/Agents/5691",
            "category": "agents"
          }
        ]
      },
      "cas_number": {
        "original_name": "CAS Number",
        "value": "25339-17-7",
        "links": [],
        "cross_references": []
      },
      "formula": {
        "original_name": "Formula",
        "value": "C10-H22-O",
        "links": [],
        "cross_references": []
      },
      "major_category": {
        "original_name": "Major Category",
        "value": "Solvents",
        "links": [],
        "cross_references": []
      },
      "synonyms": {
        "original_name": "Synonyms",
        "value": "Isodecanol; [ChemIDplus] Iso-decanol; [MSDSonline]",
        "links": [],
        "cross_references": []
      },
      "category": {
        "original_name": "Category",
        "value": "Alcohols (<C12)",
        "links": [],
        "cross_references": []
      },
      "description": {
        "original_name": "Description",
        "value": "Colorless liquid; [HSDB]",
        "links": [],
        "cross_references": []
      },
      "sourcesuses": {
        "original_name": "Sources/Uses",
        "value": "Used as an antifoaming agent in textile processing, in synthetic lubricants, in uranium refining, as a specialty solvent, and to make plasticizers; [HSDB]",
        "links": [],
        "cross_references": [
          {
            "type": "name_match",
            "text": "uranium",
            "confidence": 1.0,
            "uuid": "6790b1d5-8068-41c3-ad2c-112a904fbba8",
            "name": "Uranium",
            "url": "https://haz-map.com/Agents/43",
            "category": "agents"
          }
        ]
      },
      "comments": {
        "original_name": "Comments",
        "value": "A skin, eye, and respiratory tract irritant; May cause CNS depression; Defats the skin; [ICSC] Higher alcohols are not highly toxic in the industrial setting; Can cause liver injury, somnolence, and respiratory depression in experimental animals; Can cause smarting of the skin; Extended exposure may cause second degree burns; [HSDB] A skin irritant; [CAMEO] Causes hepatitis in feeding studies of rats; [RTECS] Causes malformations at doses that are maternally toxic; [REPROTOX] An eye irritant; [MSDSonline]",
        "links": [],
        "cross_references": [
          {
            "type": "name_match",
            "text": "burn",
            "confidence": 1.0,
            "uuid": "63665de5-6376-4918-8dbf-4c10c4d63837",
            "name": "burn",
            "url": "https://haz-map.com/Findings/204",
            "category": "findings"
          }
        ]
      },
      "biomedical_references": {
        "original_name": "Biomedical References",
        "value": "Search PubMed",
        "links": [
          {
            "text": "Search PubMed",
            "url": "https://www.ncbi.nlm.nih.gov/pubmed?term=Isodecyl+alcohol%20AND%20human%5Bmh%5D%20AND%20%28Occupational%20Diseases%20%5Bmh%5D%20OR%20Occupational%20Exposure%20%5Bmh%5D%29%20%20AND%20%28tox%5Bsb%5D%29&cmd=search"
          }
        ],
        "cross_references": []
      }
    },
    "exposure_assessment": {
      "vapor_pressure": {
        "original_name": "Vapor Pressure",
        "value": "0.0207 mm Hg",
        "links": [],
        "cross_references": []
      },
      "explanatory_notes": {
        "original_name": "Explanatory Notes",
        "value": "VP from ChemIDplus;",
        "links": [],
        "cross_references": []
      },
      "nfpa": {
        "original_name": "NFPA",
        "value": "must be preheated",
        "links": [],
        "cross_references": []
      }
    },
    "adverse_effects": {
      "neurotoxin": {
        "original_name": "Neurotoxin",
        "value": "Acute solvent syndrome",
        "links": [],
        "cross_references": []
      },
      "hepatotoxin": {
        "original_name": "Hepatotoxin",
        "value": "Hepatoxic (a) from occupational exposure (secondary effect) or (b) in animal studies or in humans after ingestion",
        "links": [],
        "cross_references": []
      }
    },
    "diseases_processes_and_activities_linked_to_this_agent": {
      "diseases": {
        "original_name": "Diseases",
        "value": "Occupational diseases associated with exposure to this agent: Solvents, acute toxic effect",
        "links": [
          {
            "text": "Solvents, acute toxic effect",
            "url": "https://haz-map.com/Diseases/326"
          }
        ],
        "cross_references": [
          {
            "type": "url_match",
            "text": "Solvents, acute toxic effect",
            "url": "https://haz-map.com/Diseases/326",
            "confidence": 1.0,
            "uuid": "581e90e3-9d0c-45f0-aa6c-3468c28da129",
            "name": "Solvents, acute toxic effect",
            "category": "diseases"
          }
        ]
      },
      "processes": {
        "original_name": "Processes",
        "value": "Industrial Processes with risk of exposure: Metal Extraction and Refining Textiles (Fiber & Fabric Manufacturing)",
        "links": [
          {
            "text": "Metal Extraction and Refining",
            "url": "https://haz-map.com/Processes/261"
          },
          {
            "text": "Textiles (Fiber & Fabric Manufacturing)",
            "url": "https://haz-map.com/Processes/135"
          }
        ],
        "cross_references": [
          {
            "type": "url_match",
            "text": "Textiles (Fiber & Fabric Manufacturing)",
            "url": "https://haz-map.com/Processes/135",
            "confidence": 1.0,
            "uuid": "43ebdcdb-bb09-4402-87b6-ae8cf169dddd",
            "name": "Textiles (Fiber & Fabric Manufacturing)",
            "category": "processes"
          }
        ]
      }
    }
  },
  "cross_references": [
    {
      "type": "url_match",
      "text": "Solvents, acute toxic effect",
      "url": "https://haz-map.com/Diseases/326",
      "confidence": 1.0,
      "uuid": "581e90e3-9d0c-45f0-aa6c-3468c28da129",
      "name": "Solvents, acute toxic effect",
      "category": "diseases"
    },
    {
      "type": "url_match",
      "text": "Textiles (Fiber & Fabric Manufacturing)",
      "url": "https://haz-map.com/Processes/135",
      "confidence": 1.0,
      "uuid": "43ebdcdb-bb09-4402-87b6-ae8cf169dddd",
      "name": "Textiles (Fiber & Fabric Manufacturing)",
      "category": "processes"
    },
    {
      "type": "name_match",
      "text": "burn",
      "confidence": 1.0,
      "uuid": "63665de5-6376-4918-8dbf-4c10c4d63837",
      "name": "burn",
      "url": "https://haz-map.com/Findings/204",
      "category": "findings"
    },
    {
      "type": "name_match",
      "text": "uranium",
      "confidence": 1.0,
      "uuid": "6790b1d5-8068-41c3-ad2c-112a904fbba8",
      "name": "Uranium",
      "url": "https://haz-map.com/Agents/43",
      "category": "agents"
    },
    {
      "type": "name_match",
      "text": "isodecyl alcohol",
      "confidence": 1.0,
      "uuid": "da90fad3-b686-44bf-a5c7-286dbd49c233",
      "name": "Isodecyl alcohol",
      "url": "https://haz-map.com/Agents/5691",
      "category": "agents"
    }
  ],
  "all_links": [
    {
      "text": "Search PubMed",
      "url": "https://www.ncbi.nlm.nih.gov/pubmed?term=Isodecyl+alcohol%20AND%20human%5Bmh%5D%20AND%20%28Occupational%20Diseases%20%5Bmh%5D%20OR%20Occupational%20Exposure%20%5Bmh%5D%29%20%20AND%20%28tox%5Bsb%5D%29&cmd=search"
    },
    {
      "text": "Solvents, acute toxic effect",
      "url": "https://haz-map.com/Diseases/326"
    },
    {
      "text": "Metal Extraction and Refining",
      "url": "https://haz-map.com/Processes/261"
    },
    {
      "text": "Textiles (Fiber & Fabric Manufacturing)",
      "url": "https://haz-map.com/Processes/135"
    }
  ]
}