{
  "metadata": {
    "scraped_from": "https://haz-map.com/Agents/10488",
    "entity_name": "2-(5-Bromo-2-pyridylazo)-5-diethylaminophenol",
    "category": "agents",
    "uuid": "da95f2c7-d8f6-4c4c-a51e-e40e1e6e2433",
    "scraped_at": "2025-07-23T20:48:11.585580"
  },
  "parsed_at": "2025-07-24T01:15:13.176569",
  "title": "2-(5-Bromo-2-pyridylazo)-5-diethylaminophenol",
  "sections": {
    "general": {
      "agent_name": {
        "original_name": "Agent Name",
        "value": "2-(5-Bromo-2-pyridylazo)-5-diethylaminophenol",
        "links": [],
        "cross_references": [
          {
            "type": "name_match",
            "text": "phenol",
            "confidence": 1.0,
            "uuid": "03141a03-a7df-4f51-9a37-adde1a7c4b31",
            "name": "Phenol",
            "url": "https://haz-map.com/Agents/84",
            "category": "agents"
          },
          {
            "type": "name_match",
            "text": "2-(5-bromo-2-pyridylazo)-5-diethylaminophenol",
            "confidence": 1.0,
            "uuid": "da95f2c7-d8f6-4c4c-a51e-e40e1e6e2433",
            "name": "2-(5-Bromo-2-pyridylazo)-5-diethylaminophenol",
            "url": "https://haz-map.com/Agents/10488",
            "category": "agents"
          }
        ]
      },
      "cas_number": {
        "original_name": "CAS Number",
        "value": "14337-53-2",
        "links": [],
        "cross_references": []
      },
      "formula": {
        "original_name": "Formula",
        "value": "C15-H17-Br-N4-O",
        "links": [],
        "cross_references": []
      },
      "major_category": {
        "original_name": "Major Category",
        "value": "Dyes",
        "links": [],
        "cross_references": []
      },
      "synonyms": {
        "original_name": "Synonyms",
        "value": "5-Diethylamino-2-(5-bromo-2-pyridylazo)phenol; [ChemIDplus] 2-(5-Bromo-2-pyridylazo)-5-(diethylamino)phenol; [Aldrich MSDS]",
        "links": [],
        "cross_references": [
          {
            "type": "name_match",
            "text": "phenol",
            "confidence": 1.0,
            "uuid": "03141a03-a7df-4f51-9a37-adde1a7c4b31",
            "name": "Phenol",
            "url": "https://haz-map.com/Agents/84",
            "category": "agents"
          }
        ]
      },
      "category": {
        "original_name": "Category",
        "value": "Azo Dyes",
        "links": [],
        "cross_references": []
      },
      "description": {
        "original_name": "Description",
        "value": "Dark red powder; [Aldrich MSDS]",
        "links": [],
        "cross_references": []
      },
      "comments": {
        "original_name": "Comments",
        "value": "May cause irritation; [Aldrich MSDS]",
        "links": [],
        "cross_references": []
      },
      "biomedical_references": {
        "original_name": "Biomedical References",
        "value": "Search PubMed",
        "links": [
          {
            "text": "Search PubMed",
            "url": "https://www.ncbi.nlm.nih.gov/pubmed?term=2-(5-Bromo-2-pyridylazo)-5-diethylaminophenol%20AND%20human%5Bmh%5D%20AND%20%28Occupational%20Diseases%20%5Bmh%5D%20OR%20Occupational%20Exposure%20%5Bmh%5D%29%20%20AND%20%28tox%5Bsb%5D%29&cmd=search"
          }
        ],
        "cross_references": []
      }
    },
    "exposure_assessment": {
      "vapor_pressure": {
        "original_name": "Vapor Pressure",
        "value": "7.63E-09 mm Hg",
        "links": [],
        "cross_references": []
      }
    },
    "diseases_processes_and_activities_linked_to_this_agent": {
      "other_information": {
        "original_name": "Other Information",
        "value": "No other related information on this agent was found.",
        "links": [],
        "cross_references": []
      }
    }
  },
  "cross_references": [
    {
      "type": "name_match",
      "text": "phenol",
      "confidence": 1.0,
      "uuid": "03141a03-a7df-4f51-9a37-adde1a7c4b31",
      "name": "Phenol",
      "url": "https://haz-map.com/Agents/84",
      "category": "agents"
    },
    {
      "type": "name_match",
      "text": "2-(5-bromo-2-pyridylazo)-5-diethylaminophenol",
      "confidence": 1.0,
      "uuid": "da95f2c7-d8f6-4c4c-a51e-e40e1e6e2433",
      "name": "2-(5-Bromo-2-pyridylazo)-5-diethylaminophenol",
      "url": "https://haz-map.com/Agents/10488",
      "category": "agents"
    }
  ],
  "all_links": [
    {
      "text": "Search PubMed",
      "url": "https://www.ncbi.nlm.nih.gov/pubmed?term=2-(5-Bromo-2-pyridylazo)-5-diethylaminophenol%20AND%20human%5Bmh%5D%20AND%20%28Occupational%20Diseases%20%5Bmh%5D%20OR%20Occupational%20Exposure%20%5Bmh%5D%29%20%20AND%20%28tox%5Bsb%5D%29&cmd=search"
    }
  ]
}