{
  "metadata": {
    "scraped_from": "https://haz-map.com/Agents/9544",
    "entity_name": "Triphenylarsine",
    "category": "agents",
    "uuid": "db2d5fb1-bdb8-4a28-aeef-7cebe2f5f079",
    "scraped_at": "2025-07-23T20:38:20.727865"
  },
  "parsed_at": "2025-07-24T01:01:51.030129",
  "title": "Triphenylarsine",
  "sections": {
    "general": {
      "agent_name": {
        "original_name": "Agent Name",
        "value": "Triphenylarsine",
        "links": [],
        "cross_references": [
          {
            "type": "name_match",
            "text": "arsine",
            "confidence": 1.0,
            "uuid": "9cbc23fa-8b7b-4fc4-b893-37c76e241fda",
            "name": "Arsine",
            "url": "https://haz-map.com/Agents/80",
            "category": "agents"
          },
          {
            "type": "name_match",
            "text": "triphenylarsine",
            "confidence": 1.0,
            "uuid": "db2d5fb1-bdb8-4a28-aeef-7cebe2f5f079",
            "name": "Triphenylarsine",
            "url": "https://haz-map.com/Agents/9544",
            "category": "agents"
          }
        ]
      },
      "cas_number": {
        "original_name": "CAS Number",
        "value": "603-32-7",
        "links": [],
        "cross_references": []
      },
      "formula": {
        "original_name": "Formula",
        "value": "C18-H15-As",
        "links": [],
        "cross_references": []
      },
      "major_category": {
        "original_name": "Major Category",
        "value": "Metals",
        "links": [],
        "cross_references": []
      },
      "synonyms": {
        "original_name": "Synonyms",
        "value": "Triphenyl arsenic; Triphenylarsane; Triphenylarsene; Arsine, triphenyl-; [ChemIDplus] UN3465",
        "links": [],
        "cross_references": [
          {
            "type": "name_match",
            "text": "arsine",
            "confidence": 1.0,
            "uuid": "9cbc23fa-8b7b-4fc4-b893-37c76e241fda",
            "name": "Arsine",
            "url": "https://haz-map.com/Agents/80",
            "category": "agents"
          },
          {
            "type": "name_match",
            "text": "arsenic",
            "confidence": 1.0,
            "uuid": "2bf78711-4881-4b55-9b7c-df80529b3991",
            "name": "Arsenic",
            "url": "https://haz-map.com/Agents/1147",
            "category": "agents"
          }
        ]
      },
      "category": {
        "original_name": "Category",
        "value": "Arsenic Compounds, Organic",
        "links": [],
        "cross_references": [
          {
            "type": "name_match",
            "text": "arsenic",
            "confidence": 1.0,
            "uuid": "2bf78711-4881-4b55-9b7c-df80529b3991",
            "name": "Arsenic",
            "url": "https://haz-map.com/Agents/1147",
            "category": "agents"
          }
        ]
      },
      "description": {
        "original_name": "Description",
        "value": "White powder; [Alfa Aesar MSDS] Fine colorless crystals; [Aldrich MSDS]",
        "links": [],
        "cross_references": []
      },
      "comments": {
        "original_name": "Comments",
        "value": "An irritant; Toxic by ingestion and inhalation; [Alfa Aesar MSDS] \"Almost nothing is known regarding health effects of organic arsenic compounds in humans. Studies in animals show that some simple organic arsenic compounds are less toxic than inorganic forms. Ingestion of methyl and dimethyl compounds can cause diarrhea and damage to the kidneys.\" [ATSDR ToxProfiles] See \"Dimethylarsenic acid.\"",
        "links": [],
        "cross_references": [
          {
            "type": "name_match",
            "text": "diarrhea",
            "confidence": 1.0,
            "uuid": "001ae7b5-5f3c-42c2-bc33-81e7581abd53",
            "name": "diarrhea",
            "url": "https://haz-map.com/Findings/15",
            "category": "findings"
          },
          {
            "type": "name_match",
            "text": "arsenic",
            "confidence": 1.0,
            "uuid": "2bf78711-4881-4b55-9b7c-df80529b3991",
            "name": "Arsenic",
            "url": "https://haz-map.com/Agents/1147",
            "category": "agents"
          },
          {
            "type": "name_match",
            "text": "arsenic acid",
            "confidence": 1.0,
            "uuid": "c8c2727b-8ee4-4c42-9201-bb806b629464",
            "name": "Arsenic acid",
            "url": "https://haz-map.com/Agents/3743",
            "category": "agents"
          },
          {
            "type": "name_match",
            "text": "dimethylarsenic acid",
            "confidence": 1.0,
            "uuid": "a62b9fb8-b294-4e3f-9f49-6768af57c78a",
            "name": "Dimethylarsenic acid",
            "url": "https://haz-map.com/Agents/4939",
            "category": "agents"
          }
        ]
      },
      "biomedical_references": {
        "original_name": "Biomedical References",
        "value": "Search PubMed",
        "links": [
          {
            "text": "Search PubMed",
            "url": "https://www.ncbi.nlm.nih.gov/pubmed?term=Triphenylarsine%20AND%20human%5Bmh%5D%20AND%20%28Occupational%20Diseases%20%5Bmh%5D%20OR%20Occupational%20Exposure%20%5Bmh%5D%29%20%20AND%20%28tox%5Bsb%5D%29&cmd=search"
          }
        ],
        "cross_references": []
      }
    },
    "exposure_assessment": {
      "pel_osha": {
        "original_name": "PEL (OSHA)",
        "value": "0.5 mg/m3, as As",
        "links": [],
        "cross_references": []
      },
      "vapor_pressure": {
        "original_name": "Vapor Pressure",
        "value": "4.96E-05 mm Hg",
        "links": [],
        "cross_references": []
      },
      "explanatory_notes": {
        "original_name": "Explanatory Notes",
        "value": "The Guide in the Emergency Response Guidebook is for \"Organoarsenic compound, solid, n.o.s.\"",
        "links": [],
        "cross_references": [
          {
            "type": "name_match",
            "text": "arsenic",
            "confidence": 1.0,
            "uuid": "2bf78711-4881-4b55-9b7c-df80529b3991",
            "name": "Arsenic",
            "url": "https://haz-map.com/Agents/1147",
            "category": "agents"
          }
        ]
      }
    },
    "diseases_processes_and_activities_linked_to_this_agent": {
      "other_information": {
        "original_name": "Other Information",
        "value": "No other related information on this agent was found.",
        "links": [],
        "cross_references": []
      }
    }
  },
  "cross_references": [
    {
      "type": "name_match",
      "text": "diarrhea",
      "confidence": 1.0,
      "uuid": "001ae7b5-5f3c-42c2-bc33-81e7581abd53",
      "name": "diarrhea",
      "url": "https://haz-map.com/Findings/15",
      "category": "findings"
    },
    {
      "type": "name_match",
      "text": "arsine",
      "confidence": 1.0,
      "uuid": "9cbc23fa-8b7b-4fc4-b893-37c76e241fda",
      "name": "Arsine",
      "url": "https://haz-map.com/Agents/80",
      "category": "agents"
    },
    {
      "type": "name_match",
      "text": "arsenic",
      "confidence": 1.0,
      "uuid": "2bf78711-4881-4b55-9b7c-df80529b3991",
      "name": "Arsenic",
      "url": "https://haz-map.com/Agents/1147",
      "category": "agents"
    },
    {
      "type": "name_match",
      "text": "arsenic acid",
      "confidence": 1.0,
      "uuid": "c8c2727b-8ee4-4c42-9201-bb806b629464",
      "name": "Arsenic acid",
      "url": "https://haz-map.com/Agents/3743",
      "category": "agents"
    },
    {
      "type": "name_match",
      "text": "dimethylarsenic acid",
      "confidence": 1.0,
      "uuid": "a62b9fb8-b294-4e3f-9f49-6768af57c78a",
      "name": "Dimethylarsenic acid",
      "url": "https://haz-map.com/Agents/4939",
      "category": "agents"
    },
    {
      "type": "name_match",
      "text": "triphenylarsine",
      "confidence": 1.0,
      "uuid": "db2d5fb1-bdb8-4a28-aeef-7cebe2f5f079",
      "name": "Triphenylarsine",
      "url": "https://haz-map.com/Agents/9544",
      "category": "agents"
    }
  ],
  "all_links": [
    {
      "text": "Search PubMed",
      "url": "https://www.ncbi.nlm.nih.gov/pubmed?term=Triphenylarsine%20AND%20human%5Bmh%5D%20AND%20%28Occupational%20Diseases%20%5Bmh%5D%20OR%20Occupational%20Exposure%20%5Bmh%5D%29%20%20AND%20%28tox%5Bsb%5D%29&cmd=search"
    }
  ]
}