{
  "metadata": {
    "scraped_from": "https://haz-map.com/Agents/13731",
    "entity_name": "Dibenzo-18-crown-6",
    "category": "agents",
    "uuid": "db69c8b0-6e61-433c-852d-aedecbaedf1d",
    "scraped_at": "2025-07-23T21:17:53.221785"
  },
  "parsed_at": "2025-07-24T01:14:26.817999",
  "title": "Dibenzo-18-crown-6",
  "sections": {
    "general": {
      "agent_name": {
        "original_name": "Agent Name",
        "value": "Dibenzo-18-crown-6",
        "links": [],
        "cross_references": [
          {
            "type": "name_match",
            "text": "18-crown-6",
            "confidence": 1.0,
            "uuid": "87903a96-7bd3-41a9-bf99-518b337af636",
            "name": "18-Crown-6",
            "url": "https://haz-map.com/Agents/2472",
            "category": "agents"
          },
          {
            "type": "name_match",
            "text": "dibenzo-18-crown-6",
            "confidence": 1.0,
            "uuid": "db69c8b0-6e61-433c-852d-aedecbaedf1d",
            "name": "Dibenzo-18-crown-6",
            "url": "https://haz-map.com/Agents/13731",
            "category": "agents"
          }
        ]
      },
      "cas_number": {
        "original_name": "CAS Number",
        "value": "14187-32-7",
        "links": [],
        "cross_references": []
      },
      "formula": {
        "original_name": "Formula",
        "value": "C20-H24-O6",
        "links": [],
        "cross_references": []
      },
      "major_category": {
        "original_name": "Major Category",
        "value": "Other Classes",
        "links": [],
        "cross_references": []
      },
      "synonyms": {
        "original_name": "Synonyms",
        "value": "2,3:11,12-Dibenzo-1,4,7,10,13,16-hexaoxacyclooctadecane; 6,7,9,10,17,18,20,21-Octahydrodibenzo(b,k)(1,4,7,10,13,16)hexaoxacyclooctadecin; Crown 18; Dibenzo(b,k)(1,4,7,10,13,16)hexaoxacyclooctadecane; Dibenzo-18-crown-6-ether; Dicyclohexano-18-crown-6; Dibenzo(a,j)-1,4,7,10,13,16-hexaoxacyclooctadeca-2,11-diene; Dibenzo(b,k)(1,4,7,10,13,16)hexaoxacyclooctadecin, 6,7,9,10,17,18,20,21-octahydro-; [ChemIDplus]",
        "links": [],
        "cross_references": [
          {
            "type": "name_match",
            "text": "octadecane",
            "confidence": 1.0,
            "uuid": "b225cac9-ed31-4c8b-82c2-1687df01fe67",
            "name": "Octadecane",
            "url": "https://haz-map.com/Agents/1908",
            "category": "agents"
          },
          {
            "type": "name_match",
            "text": "18-crown-6",
            "confidence": 1.0,
            "uuid": "87903a96-7bd3-41a9-bf99-518b337af636",
            "name": "18-Crown-6",
            "url": "https://haz-map.com/Agents/2472",
            "category": "agents"
          },
          {
            "type": "name_match",
            "text": "dibenzo-18-crown-6",
            "confidence": 1.0,
            "uuid": "db69c8b0-6e61-433c-852d-aedecbaedf1d",
            "name": "Dibenzo-18-crown-6",
            "url": "https://haz-map.com/Agents/13731",
            "category": "agents"
          },
          {
            "type": "name_match",
            "text": "dicyclohexano-18-crown-6",
            "confidence": 1.0,
            "uuid": "90a0afb5-3ba6-4903-8144-7b80ff285d95",
            "name": "Dicyclohexano-18-crown-6",
            "url": "https://haz-map.com/Agents/13782",
            "category": "agents"
          }
        ]
      },
      "category": {
        "original_name": "Category",
        "value": "Other Organic Compounds",
        "links": [],
        "cross_references": [
          {
            "type": "fuzzy_match",
            "text": "organic compounds",
            "matched_name": "Tin, organic compounds",
            "confidence": 0.8196969696969697,
            "uuid": "e027d413-8869-4308-9eb2-27d768b011ea",
            "category": "agents",
            "url": "https://haz-map.com/Agents/656"
          }
        ]
      },
      "description": {
        "original_name": "Description",
        "value": "Light beige fibers or powder; [Alfa Aesar MSDS]",
        "links": [],
        "cross_references": [
          {
            "type": "name_match",
            "text": "ht",
            "confidence": 1.0,
            "uuid": "764df367-8d53-4a11-81a2-31ccfe122a8d",
            "name": "HT",
            "url": "https://haz-map.com/Agents/2168",
            "category": "agents"
          }
        ]
      },
      "comments": {
        "original_name": "Comments",
        "value": "A mild skin and moderate eye irritant; Causes convulsions, lung changes and other liver changes in oral lethal-dose studies of rats; [RTECS] Crown ethers have caused convulsions, liver injury, and dermatitis in experimental animals; A skin and strong eye irritant; [Alfa Aesar MSDS] See \"18-Crown-6.\"",
        "links": [],
        "cross_references": [
          {
            "type": "name_match",
            "text": "convulsion",
            "confidence": 1.0,
            "uuid": "af2c36f8-707a-48e3-a62b-1aa07adc9b72",
            "name": "convulsion",
            "url": "https://haz-map.com/Findings/14",
            "category": "findings"
          },
          {
            "type": "name_match",
            "text": "dermatitis",
            "confidence": 1.0,
            "uuid": "fe9c05f2-b19f-4ceb-ac7a-ffb7d7a0cae0",
            "name": "dermatitis",
            "url": "https://haz-map.com/Findings/59",
            "category": "findings"
          },
          {
            "type": "name_match",
            "text": "18-crown-6",
            "confidence": 1.0,
            "uuid": "87903a96-7bd3-41a9-bf99-518b337af636",
            "name": "18-Crown-6",
            "url": "https://haz-map.com/Agents/2472",
            "category": "agents"
          }
        ]
      },
      "biomedical_references": {
        "original_name": "Biomedical References",
        "value": "Search PubMed",
        "links": [
          {
            "text": "Search PubMed",
            "url": "https://www.ncbi.nlm.nih.gov/pubmed?term=Dibenzo-18-crown-6%20AND%20human%5Bmh%5D%20AND%20%28Occupational%20Diseases%20%5Bmh%5D%20OR%20Occupational%20Exposure%20%5Bmh%5D%29%20%20AND%20%28tox%5Bsb%5D%29&cmd=search"
          }
        ],
        "cross_references": []
      }
    },
    "exposure_assessment": {
      "vapor_pressure": {
        "original_name": "Vapor Pressure",
        "value": "3.97E-09 mm Hg",
        "links": [],
        "cross_references": []
      }
    },
    "adverse_effects": {
      "neurotoxin": {
        "original_name": "Neurotoxin",
        "value": "Other CNS neurotoxin",
        "links": [],
        "cross_references": []
      },
      "hepatotoxin": {
        "original_name": "Hepatotoxin",
        "value": "Hepatoxic (a) from occupational exposure (secondary effect) or (b) in animal studies or in humans after ingestion",
        "links": [],
        "cross_references": []
      }
    },
    "diseases_processes_and_activities_linked_to_this_agent": {
      "other_information": {
        "original_name": "Other Information",
        "value": "No other related information on this agent was found.",
        "links": [],
        "cross_references": []
      }
    }
  },
  "cross_references": [
    {
      "type": "name_match",
      "text": "convulsion",
      "confidence": 1.0,
      "uuid": "af2c36f8-707a-48e3-a62b-1aa07adc9b72",
      "name": "convulsion",
      "url": "https://haz-map.com/Findings/14",
      "category": "findings"
    },
    {
      "type": "name_match",
      "text": "dermatitis",
      "confidence": 1.0,
      "uuid": "fe9c05f2-b19f-4ceb-ac7a-ffb7d7a0cae0",
      "name": "dermatitis",
      "url": "https://haz-map.com/Findings/59",
      "category": "findings"
    },
    {
      "type": "name_match",
      "text": "octadecane",
      "confidence": 1.0,
      "uuid": "b225cac9-ed31-4c8b-82c2-1687df01fe67",
      "name": "Octadecane",
      "url": "https://haz-map.com/Agents/1908",
      "category": "agents"
    },
    {
      "type": "name_match",
      "text": "ht",
      "confidence": 1.0,
      "uuid": "764df367-8d53-4a11-81a2-31ccfe122a8d",
      "name": "HT",
      "url": "https://haz-map.com/Agents/2168",
      "category": "agents"
    },
    {
      "type": "name_match",
      "text": "18-crown-6",
      "confidence": 1.0,
      "uuid": "87903a96-7bd3-41a9-bf99-518b337af636",
      "name": "18-Crown-6",
      "url": "https://haz-map.com/Agents/2472",
      "category": "agents"
    },
    {
      "type": "name_match",
      "text": "dibenzo-18-crown-6",
      "confidence": 1.0,
      "uuid": "db69c8b0-6e61-433c-852d-aedecbaedf1d",
      "name": "Dibenzo-18-crown-6",
      "url": "https://haz-map.com/Agents/13731",
      "category": "agents"
    },
    {
      "type": "name_match",
      "text": "dicyclohexano-18-crown-6",
      "confidence": 1.0,
      "uuid": "90a0afb5-3ba6-4903-8144-7b80ff285d95",
      "name": "Dicyclohexano-18-crown-6",
      "url": "https://haz-map.com/Agents/13782",
      "category": "agents"
    },
    {
      "type": "fuzzy_match",
      "text": "organic compounds",
      "matched_name": "Tin, organic compounds",
      "confidence": 0.8196969696969697,
      "uuid": "e027d413-8869-4308-9eb2-27d768b011ea",
      "category": "agents",
      "url": "https://haz-map.com/Agents/656"
    }
  ],
  "all_links": [
    {
      "text": "Search PubMed",
      "url": "https://www.ncbi.nlm.nih.gov/pubmed?term=Dibenzo-18-crown-6%20AND%20human%5Bmh%5D%20AND%20%28Occupational%20Diseases%20%5Bmh%5D%20OR%20Occupational%20Exposure%20%5Bmh%5D%29%20%20AND%20%28tox%5Bsb%5D%29&cmd=search"
    }
  ]
}