{
  "metadata": {
    "scraped_from": "https://haz-map.com/Agents/10160",
    "entity_name": "Octadecane, 1-(ethenyloxy)-",
    "category": "agents",
    "uuid": "dc1a434b-b593-45ec-a4f7-021958d2bc99",
    "scraped_at": "2025-07-23T20:44:48.590379"
  },
  "parsed_at": "2025-07-24T00:53:25.776039",
  "title": "Octadecane, 1-(ethenyloxy)-",
  "sections": {
    "general": {
      "agent_name": {
        "original_name": "Agent Name",
        "value": "Octadecane, 1-(ethenyloxy)-",
        "links": [],
        "cross_references": [
          {
            "type": "name_match",
            "text": "octadecane",
            "confidence": 1.0,
            "uuid": "b225cac9-ed31-4c8b-82c2-1687df01fe67",
            "name": "Octadecane",
            "url": "https://haz-map.com/Agents/1908",
            "category": "agents"
          },
          {
            "type": "name_match",
            "text": "octadecane, 1-(ethenyloxy)-",
            "confidence": 1.0,
            "uuid": "dc1a434b-b593-45ec-a4f7-021958d2bc99",
            "name": "Octadecane, 1-(ethenyloxy)-",
            "url": "https://haz-map.com/Agents/10160",
            "category": "agents"
          }
        ]
      },
      "cas_number": {
        "original_name": "CAS Number",
        "value": "930-02-9",
        "links": [],
        "cross_references": []
      },
      "formula": {
        "original_name": "Formula",
        "value": "C20-H40-O",
        "links": [],
        "cross_references": []
      },
      "major_category": {
        "original_name": "Major Category",
        "value": "Other Classes",
        "links": [],
        "cross_references": []
      },
      "synonyms": {
        "original_name": "Synonyms",
        "value": "1-(Ethenyloxy)octadecane; Octadecyl vinyl ether; Stearyl vinyl ether; Vinyl octadecyl ether; Vinyl stearyl ether; Vinyloctadecyl ether; 1-(Vinyloxy)octadecane; Ether, octadecyl vinyl (6CI,7CI,8CI); [ChemIDplus]",
        "links": [],
        "cross_references": [
          {
            "type": "name_match",
            "text": "tea",
            "confidence": 1.0,
            "uuid": "773409e5-ac1a-4c9e-9470-9667ca82091c",
            "name": "Tea",
            "url": "https://haz-map.com/Agents/878",
            "category": "agents"
          },
          {
            "type": "name_match",
            "text": "octadecane",
            "confidence": 1.0,
            "uuid": "b225cac9-ed31-4c8b-82c2-1687df01fe67",
            "name": "Octadecane",
            "url": "https://haz-map.com/Agents/1908",
            "category": "agents"
          }
        ]
      },
      "category": {
        "original_name": "Category",
        "value": "Other Organic Compounds",
        "links": [],
        "cross_references": [
          {
            "type": "fuzzy_match",
            "text": "organic compounds",
            "matched_name": "Tin, organic compounds",
            "confidence": 0.8196969696969697,
            "uuid": "e027d413-8869-4308-9eb2-27d768b011ea",
            "category": "agents",
            "url": "https://haz-map.com/Agents/656"
          }
        ]
      },
      "description": {
        "original_name": "Description",
        "value": "Melting point = 30 deg C; [ChemIDplus] Solid; mp = 24-28 deg C; [Aldrich MSDS]",
        "links": [],
        "cross_references": []
      },
      "comments": {
        "original_name": "Comments",
        "value": "May cause irritation; [Aldrich MSDS]",
        "links": [],
        "cross_references": []
      },
      "biomedical_references": {
        "original_name": "Biomedical References",
        "value": "Search PubMed",
        "links": [
          {
            "text": "Search PubMed",
            "url": "https://www.ncbi.nlm.nih.gov/pubmed?term=Octadecane%2c+1-(ethenyloxy)-%20AND%20human%5Bmh%5D%20AND%20%28Occupational%20Diseases%20%5Bmh%5D%20OR%20Occupational%20Exposure%20%5Bmh%5D%29%20%20AND%20%28tox%5Bsb%5D%29&cmd=search"
          }
        ],
        "cross_references": []
      }
    },
    "diseases_processes_and_activities_linked_to_this_agent": {
      "other_information": {
        "original_name": "Other Information",
        "value": "No other related information on this agent was found.",
        "links": [],
        "cross_references": []
      }
    }
  },
  "cross_references": [
    {
      "type": "name_match",
      "text": "tea",
      "confidence": 1.0,
      "uuid": "773409e5-ac1a-4c9e-9470-9667ca82091c",
      "name": "Tea",
      "url": "https://haz-map.com/Agents/878",
      "category": "agents"
    },
    {
      "type": "name_match",
      "text": "octadecane",
      "confidence": 1.0,
      "uuid": "b225cac9-ed31-4c8b-82c2-1687df01fe67",
      "name": "Octadecane",
      "url": "https://haz-map.com/Agents/1908",
      "category": "agents"
    },
    {
      "type": "name_match",
      "text": "octadecane, 1-(ethenyloxy)-",
      "confidence": 1.0,
      "uuid": "dc1a434b-b593-45ec-a4f7-021958d2bc99",
      "name": "Octadecane, 1-(ethenyloxy)-",
      "url": "https://haz-map.com/Agents/10160",
      "category": "agents"
    },
    {
      "type": "fuzzy_match",
      "text": "organic compounds",
      "matched_name": "Tin, organic compounds",
      "confidence": 0.8196969696969697,
      "uuid": "e027d413-8869-4308-9eb2-27d768b011ea",
      "category": "agents",
      "url": "https://haz-map.com/Agents/656"
    }
  ],
  "all_links": [
    {
      "text": "Search PubMed",
      "url": "https://www.ncbi.nlm.nih.gov/pubmed?term=Octadecane%2c+1-(ethenyloxy)-%20AND%20human%5Bmh%5D%20AND%20%28Occupational%20Diseases%20%5Bmh%5D%20OR%20Occupational%20Exposure%20%5Bmh%5D%29%20%20AND%20%28tox%5Bsb%5D%29&cmd=search"
    }
  ]
}