{
  "metadata": {
    "scraped_from": "https://haz-map.com/Agents/11029",
    "entity_name": "3-Chloro-1-propanol",
    "category": "agents",
    "uuid": "dc3bd77f-c6f1-47e3-8355-84baea0b41dc",
    "scraped_at": "2025-07-23T20:55:30.784899"
  },
  "parsed_at": "2025-07-24T01:15:59.760139",
  "title": "3-Chloro-1-propanol",
  "sections": {
    "general": {
      "agent_name": {
        "original_name": "Agent Name",
        "value": "3-Chloro-1-propanol",
        "links": [],
        "cross_references": [
          {
            "type": "name_match",
            "text": "3-chloro-1-propanol",
            "confidence": 1.0,
            "uuid": "dc3bd77f-c6f1-47e3-8355-84baea0b41dc",
            "name": "3-Chloro-1-propanol",
            "url": "https://haz-map.com/Agents/11029",
            "category": "agents"
          }
        ]
      },
      "cas_number": {
        "original_name": "CAS Number",
        "value": "627-30-5",
        "links": [],
        "cross_references": []
      },
      "formula": {
        "original_name": "Formula",
        "value": "C3-H7-Cl-O",
        "links": [],
        "cross_references": []
      },
      "major_category": {
        "original_name": "Major Category",
        "value": "Other Classes",
        "links": [],
        "cross_references": []
      },
      "synonyms": {
        "original_name": "Synonyms",
        "value": "1-Chloro-3-hydroxypropane; 3-Chloropropanol; 3-Chlorpropan-1-ol [German]; Trimethylene chlorohydrin; 1-Propanol, 3-chloro-; 3-Chloropropanol-1; [ChemIDplus] 1-Chloro-3-propanol; 3-Chloro-1-hydroxypropane; 3-Chloropropyl alcohol; Chloro-3 propanol-1 (French DOT); [CAMEO] Chloropropanol, 3-, 1-; [NTP] UN2849",
        "links": [],
        "cross_references": [
          {
            "type": "name_match",
            "text": "ethylene chlorohydrin",
            "confidence": 1.0,
            "uuid": "7b0ebc46-43b6-4e18-8cc3-9550665240de",
            "name": "Ethylene chlorohydrin",
            "url": "https://haz-map.com/Agents/487",
            "category": "agents"
          },
          {
            "type": "name_match",
            "text": "propane",
            "confidence": 1.0,
            "uuid": "563a611b-46ea-4bdc-b77b-17d8f7646283",
            "name": "Propane",
            "url": "https://haz-map.com/Agents/607",
            "category": "agents"
          },
          {
            "type": "name_match",
            "text": "ethylene",
            "confidence": 1.0,
            "uuid": "958eacc0-5135-4b62-bb93-6df972bf552f",
            "name": "Ethylene",
            "url": "https://haz-map.com/Agents/1076",
            "category": "agents"
          }
        ]
      },
      "category": {
        "original_name": "Category",
        "value": "Halogenated Alcohols",
        "links": [],
        "cross_references": []
      },
      "description": {
        "original_name": "Description",
        "value": "Colorless liquid; [CAMEO]",
        "links": [],
        "cross_references": []
      },
      "sourcesuses": {
        "original_name": "Sources/Uses",
        "value": "Used to make plastics, resins, and other chemicals; [CAMEO] Used as an intermediate in organic synthesis; [NTP] \"An inhibitor of triosephosphate isomerase and glyceraldehyde 3-phosphate dehydrogenase.\" [ChemIDplus]",
        "links": [],
        "cross_references": [
          {
            "type": "name_match",
            "text": "mica",
            "confidence": 1.0,
            "uuid": "433f26f1-c399-4596-b179-ce3843cfd465",
            "name": "Mica",
            "url": "https://haz-map.com/Agents/621",
            "category": "agents"
          },
          {
            "type": "name_match",
            "text": "hydrogen",
            "confidence": 1.0,
            "uuid": "e2d9645f-5559-4d88-b820-fc4710c154f2",
            "name": "Hydrogen",
            "url": "https://haz-map.com/Agents/1070",
            "category": "agents"
          },
          {
            "type": "name_match",
            "text": "glyceraldehyde",
            "confidence": 1.0,
            "uuid": "b18a9e64-f3ae-4950-8e7d-6243931ceea5",
            "name": "Glyceraldehyde",
            "url": "https://haz-map.com/Agents/13957",
            "category": "agents"
          },
          {
            "type": "name_match",
            "text": "glyceraldehyde 3-phosphate dehydrogenase",
            "confidence": 1.0,
            "uuid": "d7e241e5-79cc-4760-85f8-65f57106ece9",
            "name": "Glyceraldehyde 3-phosphate dehydrogenase",
            "url": "https://haz-map.com/Agents/14429",
            "category": "agents"
          },
          {
            "type": "fuzzy_match",
            "text": "d glyceraldehyde",
            "matched_name": "D-Glyceraldehyde",
            "confidence": 0.9090909090909092,
            "uuid": "9c49782d-2fe4-4035-8788-9bc4f92ffcc6",
            "category": "agents",
            "url": "https://haz-map.com/Agents/13697"
          }
        ]
      },
      "comments": {
        "original_name": "Comments",
        "value": "Causes muscle contraction or spasticity, ulceration of the stomach, and other liver changes in oral lethal-dose studies of mice; [RTECS] May cause skin, eye, and nasal irritation; Other symptoms may include vomiting, giddiness, dizziness, incoordination, visual disturbances, and coma; May be absorbed through skin; [NTP] An irritant; Harmful by ingestion; [Alfa Aesar MSDS] See \"1-Chloro-2-propanol.\"",
        "links": [],
        "cross_references": [
          {
            "type": "name_match",
            "text": "dizziness",
            "confidence": 1.0,
            "uuid": "4b0e6043-b228-49de-996c-b42ec8b3780e",
            "name": "dizziness",
            "url": "https://haz-map.com/Findings/16",
            "category": "findings"
          },
          {
            "type": "name_match",
            "text": "incoordination",
            "confidence": 1.0,
            "uuid": "76a55800-9cc5-4f0d-997c-17875a9482ca",
            "name": "incoordination",
            "url": "https://haz-map.com/Findings/25",
            "category": "findings"
          },
          {
            "type": "name_match",
            "text": "1-chloro-2-propanol",
            "confidence": 1.0,
            "uuid": "3e820ec5-6b33-472a-a625-b789ef396833",
            "name": "1-Chloro-2-propanol",
            "url": "https://haz-map.com/Agents/1649",
            "category": "agents"
          }
        ]
      },
      "biomedical_references": {
        "original_name": "Biomedical References",
        "value": "Search PubMed",
        "links": [
          {
            "text": "Search PubMed",
            "url": "https://www.ncbi.nlm.nih.gov/pubmed?term=3-Chloro-1-propanol%20AND%20human%5Bmh%5D%20AND%20%28Occupational%20Diseases%20%5Bmh%5D%20OR%20Occupational%20Exposure%20%5Bmh%5D%29%20%20AND%20%28tox%5Bsb%5D%29&cmd=search"
          }
        ],
        "cross_references": []
      }
    },
    "exposure_assessment": {
      "vapor_pressure": {
        "original_name": "Vapor Pressure",
        "value": "1.2 mm Hg",
        "links": [],
        "cross_references": []
      },
      "explanatory_notes": {
        "original_name": "Explanatory Notes",
        "value": "VP from ChemIDplus;",
        "links": [],
        "cross_references": []
      }
    },
    "adverse_effects": {
      "neurotoxin": {
        "original_name": "Neurotoxin",
        "value": "Acute solvent syndrome",
        "links": [],
        "cross_references": []
      },
      "hepatotoxin": {
        "original_name": "Hepatotoxin",
        "value": "Hepatoxic (a) from occupational exposure (secondary effect) or (b) in animal studies or in humans after ingestion",
        "links": [],
        "cross_references": []
      }
    },
    "diseases_processes_and_activities_linked_to_this_agent": {
      "diseases": {
        "original_name": "Diseases",
        "value": "Occupational diseases associated with exposure to this agent: Solvents, acute toxic effect",
        "links": [
          {
            "text": "Solvents, acute toxic effect",
            "url": "https://haz-map.com/Diseases/326"
          }
        ],
        "cross_references": [
          {
            "type": "url_match",
            "text": "Solvents, acute toxic effect",
            "url": "https://haz-map.com/Diseases/326",
            "confidence": 1.0,
            "uuid": "581e90e3-9d0c-45f0-aa6c-3468c28da129",
            "name": "Solvents, acute toxic effect",
            "category": "diseases"
          }
        ]
      }
    }
  },
  "cross_references": [
    {
      "type": "url_match",
      "text": "Solvents, acute toxic effect",
      "url": "https://haz-map.com/Diseases/326",
      "confidence": 1.0,
      "uuid": "581e90e3-9d0c-45f0-aa6c-3468c28da129",
      "name": "Solvents, acute toxic effect",
      "category": "diseases"
    },
    {
      "type": "name_match",
      "text": "dizziness",
      "confidence": 1.0,
      "uuid": "4b0e6043-b228-49de-996c-b42ec8b3780e",
      "name": "dizziness",
      "url": "https://haz-map.com/Findings/16",
      "category": "findings"
    },
    {
      "type": "name_match",
      "text": "incoordination",
      "confidence": 1.0,
      "uuid": "76a55800-9cc5-4f0d-997c-17875a9482ca",
      "name": "incoordination",
      "url": "https://haz-map.com/Findings/25",
      "category": "findings"
    },
    {
      "type": "name_match",
      "text": "ethylene chlorohydrin",
      "confidence": 1.0,
      "uuid": "7b0ebc46-43b6-4e18-8cc3-9550665240de",
      "name": "Ethylene chlorohydrin",
      "url": "https://haz-map.com/Agents/487",
      "category": "agents"
    },
    {
      "type": "name_match",
      "text": "propane",
      "confidence": 1.0,
      "uuid": "563a611b-46ea-4bdc-b77b-17d8f7646283",
      "name": "Propane",
      "url": "https://haz-map.com/Agents/607",
      "category": "agents"
    },
    {
      "type": "name_match",
      "text": "mica",
      "confidence": 1.0,
      "uuid": "433f26f1-c399-4596-b179-ce3843cfd465",
      "name": "Mica",
      "url": "https://haz-map.com/Agents/621",
      "category": "agents"
    },
    {
      "type": "name_match",
      "text": "hydrogen",
      "confidence": 1.0,
      "uuid": "e2d9645f-5559-4d88-b820-fc4710c154f2",
      "name": "Hydrogen",
      "url": "https://haz-map.com/Agents/1070",
      "category": "agents"
    },
    {
      "type": "name_match",
      "text": "ethylene",
      "confidence": 1.0,
      "uuid": "958eacc0-5135-4b62-bb93-6df972bf552f",
      "name": "Ethylene",
      "url": "https://haz-map.com/Agents/1076",
      "category": "agents"
    },
    {
      "type": "name_match",
      "text": "1-chloro-2-propanol",
      "confidence": 1.0,
      "uuid": "3e820ec5-6b33-472a-a625-b789ef396833",
      "name": "1-Chloro-2-propanol",
      "url": "https://haz-map.com/Agents/1649",
      "category": "agents"
    },
    {
      "type": "name_match",
      "text": "3-chloro-1-propanol",
      "confidence": 1.0,
      "uuid": "dc3bd77f-c6f1-47e3-8355-84baea0b41dc",
      "name": "3-Chloro-1-propanol",
      "url": "https://haz-map.com/Agents/11029",
      "category": "agents"
    },
    {
      "type": "name_match",
      "text": "glyceraldehyde",
      "confidence": 1.0,
      "uuid": "b18a9e64-f3ae-4950-8e7d-6243931ceea5",
      "name": "Glyceraldehyde",
      "url": "https://haz-map.com/Agents/13957",
      "category": "agents"
    },
    {
      "type": "name_match",
      "text": "glyceraldehyde 3-phosphate dehydrogenase",
      "confidence": 1.0,
      "uuid": "d7e241e5-79cc-4760-85f8-65f57106ece9",
      "name": "Glyceraldehyde 3-phosphate dehydrogenase",
      "url": "https://haz-map.com/Agents/14429",
      "category": "agents"
    },
    {
      "type": "fuzzy_match",
      "text": "d glyceraldehyde",
      "matched_name": "D-Glyceraldehyde",
      "confidence": 0.9090909090909092,
      "uuid": "9c49782d-2fe4-4035-8788-9bc4f92ffcc6",
      "category": "agents",
      "url": "https://haz-map.com/Agents/13697"
    }
  ],
  "all_links": [
    {
      "text": "Search PubMed",
      "url": "https://www.ncbi.nlm.nih.gov/pubmed?term=3-Chloro-1-propanol%20AND%20human%5Bmh%5D%20AND%20%28Occupational%20Diseases%20%5Bmh%5D%20OR%20Occupational%20Exposure%20%5Bmh%5D%29%20%20AND%20%28tox%5Bsb%5D%29&cmd=search"
    },
    {
      "text": "Solvents, acute toxic effect",
      "url": "https://haz-map.com/Diseases/326"
    }
  ]
}