{
  "metadata": {
    "scraped_from": "https://haz-map.com/Agents/9763",
    "entity_name": "2,3-Dimethyl-1,3-butadiene",
    "category": "agents",
    "uuid": "dc9675c8-c771-46aa-9116-680adb3e6cbb",
    "scraped_at": "2025-07-23T20:42:23.017932"
  },
  "parsed_at": "2025-07-24T01:08:10.655319",
  "title": "2,3-Dimethyl-1,3-butadiene",
  "sections": {
    "general": {
      "agent_name": {
        "original_name": "Agent Name",
        "value": "2,3-Dimethyl-1,3-butadiene",
        "links": [],
        "cross_references": [
          {
            "type": "name_match",
            "text": "1,3-butadiene",
            "confidence": 1.0,
            "uuid": "ea12a86a-218a-42af-aaa1-b113f636b7fe",
            "name": "1,3-Butadiene",
            "url": "https://haz-map.com/Agents/318",
            "category": "agents"
          },
          {
            "type": "name_match",
            "text": "2,3-dimethyl-1,3-butadiene",
            "confidence": 1.0,
            "uuid": "dc9675c8-c771-46aa-9116-680adb3e6cbb",
            "name": "2,3-Dimethyl-1,3-butadiene",
            "url": "https://haz-map.com/Agents/9763",
            "category": "agents"
          },
          {
            "type": "name_match",
            "text": "butadiene",
            "confidence": 1.0,
            "uuid": "f4fdb4ce-e062-4db5-8e5d-eba44b8a05be",
            "name": "Butadiene",
            "url": "https://haz-map.com/Agents/12505",
            "category": "agents"
          }
        ]
      },
      "cas_number": {
        "original_name": "CAS Number",
        "value": "513-81-5",
        "links": [],
        "cross_references": []
      },
      "formula": {
        "original_name": "Formula",
        "value": "C6-H10",
        "links": [],
        "cross_references": []
      },
      "major_category": {
        "original_name": "Major Category",
        "value": "Plastics & Rubber",
        "links": [],
        "cross_references": []
      },
      "synonyms": {
        "original_name": "Synonyms",
        "value": "2,3-Dimethylbutadiene; 2,3-Dimethylenebutane; Biisopropenyl; Diisopropenyl; 1,3-Butadiene, 2,3-dimethyl-; 2,3-Dimethylbuta-1,3-diene; [ChemIDplus] beta, gamma-Dimethyl-delta-alpha,gamma-butadiene; [Merck Index] UN3295",
        "links": [],
        "cross_references": [
          {
            "type": "name_match",
            "text": "1,3-butadiene",
            "confidence": 1.0,
            "uuid": "ea12a86a-218a-42af-aaa1-b113f636b7fe",
            "name": "1,3-Butadiene",
            "url": "https://haz-map.com/Agents/318",
            "category": "agents"
          },
          {
            "type": "name_match",
            "text": "ethylene",
            "confidence": 1.0,
            "uuid": "958eacc0-5135-4b62-bb93-6df972bf552f",
            "name": "Ethylene",
            "url": "https://haz-map.com/Agents/1076",
            "category": "agents"
          },
          {
            "type": "name_match",
            "text": "butadiene",
            "confidence": 1.0,
            "uuid": "f4fdb4ce-e062-4db5-8e5d-eba44b8a05be",
            "name": "Butadiene",
            "url": "https://haz-map.com/Agents/12505",
            "category": "agents"
          }
        ]
      },
      "category": {
        "original_name": "Category",
        "value": "Other Monomers",
        "links": [],
        "cross_references": []
      },
      "description": {
        "original_name": "Description",
        "value": "Liquid; [Merck Index]",
        "links": [],
        "cross_references": []
      },
      "sourcesuses": {
        "original_name": "Sources/Uses",
        "value": "Found in the 66-70 deg fraction of Puertollano shale oil; Used to make synthetic rubber and polymers; [Merck Index]",
        "links": [],
        "cross_references": []
      },
      "comments": {
        "original_name": "Comments",
        "value": "Stabilized with 0.01% butylated hydroxytoluene (CAS# 128-37-0); May cause irritation; [Aldrich MSDS] Harmful by ingestion (may cause lung damage by aspiration); [Alfa Aesar MSDS] See \"1,3-Butadiene.\"",
        "links": [],
        "cross_references": [
          {
            "type": "name_match",
            "text": "toluene",
            "confidence": 1.0,
            "uuid": "0a34d5de-e924-4c47-aff5-7ae8e48c6772",
            "name": "Toluene",
            "url": "https://haz-map.com/Agents/83",
            "category": "agents"
          },
          {
            "type": "name_match",
            "text": "1,3-butadiene",
            "confidence": 1.0,
            "uuid": "ea12a86a-218a-42af-aaa1-b113f636b7fe",
            "name": "1,3-Butadiene",
            "url": "https://haz-map.com/Agents/318",
            "category": "agents"
          },
          {
            "type": "name_match",
            "text": "butylated hydroxytoluene",
            "confidence": 1.0,
            "uuid": "30b3b14d-abf5-4589-a525-777c122abd63",
            "name": "Butylated hydroxytoluene",
            "url": "https://haz-map.com/Agents/393",
            "category": "agents"
          },
          {
            "type": "name_match",
            "text": "butylate",
            "confidence": 1.0,
            "uuid": "b12d0560-252c-45cd-b876-db833a25c2a7",
            "name": "Butylate",
            "url": "https://haz-map.com/Agents/4040",
            "category": "agents"
          },
          {
            "type": "name_match",
            "text": "butadiene",
            "confidence": 1.0,
            "uuid": "f4fdb4ce-e062-4db5-8e5d-eba44b8a05be",
            "name": "Butadiene",
            "url": "https://haz-map.com/Agents/12505",
            "category": "agents"
          }
        ]
      },
      "biomedical_references": {
        "original_name": "Biomedical References",
        "value": "Search PubMed",
        "links": [
          {
            "text": "Search PubMed",
            "url": "https://www.ncbi.nlm.nih.gov/pubmed?term=2%2c3-Dimethyl-1%2c3-butadiene%20AND%20human%5Bmh%5D%20AND%20%28Occupational%20Diseases%20%5Bmh%5D%20OR%20Occupational%20Exposure%20%5Bmh%5D%29%20%20AND%20%28tox%5Bsb%5D%29&cmd=search"
          }
        ],
        "cross_references": []
      }
    },
    "exposure_assessment": {
      "vapor_pressure": {
        "original_name": "Vapor Pressure",
        "value": "152 mm Hg",
        "links": [],
        "cross_references": []
      },
      "explanatory_notes": {
        "original_name": "Explanatory Notes",
        "value": "The Guide in the Emergency Response Guidebook is for \"Hydrocarbons, liquid, n.o.s.\"",
        "links": [],
        "cross_references": [
          {
            "type": "name_match",
            "text": "carbon",
            "confidence": 1.0,
            "uuid": "b53f8815-ee80-40ef-b4aa-3b000e17dab5",
            "name": "Carbon",
            "url": "https://haz-map.com/Agents/1891",
            "category": "agents"
          },
          {
            "type": "fuzzy_match",
            "text": "hydrocarbons",
            "matched_name": "Hydrocarbons, C>3",
            "confidence": 0.7100840336134454,
            "uuid": "8eaa37ac-3931-44e4-9242-2734127fd661",
            "category": "agents",
            "url": "https://haz-map.com/Agents/14795"
          }
        ]
      }
    },
    "diseases_processes_and_activities_linked_to_this_agent": {
      "other_information": {
        "original_name": "Other Information",
        "value": "No other related information on this agent was found.",
        "links": [],
        "cross_references": []
      }
    }
  },
  "cross_references": [
    {
      "type": "name_match",
      "text": "toluene",
      "confidence": 1.0,
      "uuid": "0a34d5de-e924-4c47-aff5-7ae8e48c6772",
      "name": "Toluene",
      "url": "https://haz-map.com/Agents/83",
      "category": "agents"
    },
    {
      "type": "name_match",
      "text": "1,3-butadiene",
      "confidence": 1.0,
      "uuid": "ea12a86a-218a-42af-aaa1-b113f636b7fe",
      "name": "1,3-Butadiene",
      "url": "https://haz-map.com/Agents/318",
      "category": "agents"
    },
    {
      "type": "name_match",
      "text": "butylated hydroxytoluene",
      "confidence": 1.0,
      "uuid": "30b3b14d-abf5-4589-a525-777c122abd63",
      "name": "Butylated hydroxytoluene",
      "url": "https://haz-map.com/Agents/393",
      "category": "agents"
    },
    {
      "type": "name_match",
      "text": "ethylene",
      "confidence": 1.0,
      "uuid": "958eacc0-5135-4b62-bb93-6df972bf552f",
      "name": "Ethylene",
      "url": "https://haz-map.com/Agents/1076",
      "category": "agents"
    },
    {
      "type": "name_match",
      "text": "carbon",
      "confidence": 1.0,
      "uuid": "b53f8815-ee80-40ef-b4aa-3b000e17dab5",
      "name": "Carbon",
      "url": "https://haz-map.com/Agents/1891",
      "category": "agents"
    },
    {
      "type": "name_match",
      "text": "butylate",
      "confidence": 1.0,
      "uuid": "b12d0560-252c-45cd-b876-db833a25c2a7",
      "name": "Butylate",
      "url": "https://haz-map.com/Agents/4040",
      "category": "agents"
    },
    {
      "type": "name_match",
      "text": "2,3-dimethyl-1,3-butadiene",
      "confidence": 1.0,
      "uuid": "dc9675c8-c771-46aa-9116-680adb3e6cbb",
      "name": "2,3-Dimethyl-1,3-butadiene",
      "url": "https://haz-map.com/Agents/9763",
      "category": "agents"
    },
    {
      "type": "name_match",
      "text": "butadiene",
      "confidence": 1.0,
      "uuid": "f4fdb4ce-e062-4db5-8e5d-eba44b8a05be",
      "name": "Butadiene",
      "url": "https://haz-map.com/Agents/12505",
      "category": "agents"
    },
    {
      "type": "fuzzy_match",
      "text": "hydrocarbons",
      "matched_name": "Hydrocarbons, C>3",
      "confidence": 0.7100840336134454,
      "uuid": "8eaa37ac-3931-44e4-9242-2734127fd661",
      "category": "agents",
      "url": "https://haz-map.com/Agents/14795"
    }
  ],
  "all_links": [
    {
      "text": "Search PubMed",
      "url": "https://www.ncbi.nlm.nih.gov/pubmed?term=2%2c3-Dimethyl-1%2c3-butadiene%20AND%20human%5Bmh%5D%20AND%20%28Occupational%20Diseases%20%5Bmh%5D%20OR%20Occupational%20Exposure%20%5Bmh%5D%29%20%20AND%20%28tox%5Bsb%5D%29&cmd=search"
    }
  ]
}