{
  "metadata": {
    "scraped_from": "https://haz-map.com/Agents/20066",
    "entity_name": "4-Methylcyclohexanol",
    "category": "agents",
    "uuid": "dcbf478c-18b7-4812-9601-cc0e9781ba8e",
    "scraped_at": "2025-07-23T22:18:22.478567"
  },
  "parsed_at": "2025-07-24T00:53:51.896223",
  "title": "4-Methylcyclohexanol",
  "sections": {
    "general": {
      "agent_name": {
        "original_name": "Agent Name",
        "value": "4-Methylcyclohexanol",
        "links": [],
        "cross_references": [
          {
            "type": "name_match",
            "text": "methylcyclohexanol",
            "confidence": 1.0,
            "uuid": "22f08510-21ee-4de7-afd9-d5b08745568b",
            "name": "Methylcyclohexanol",
            "url": "https://haz-map.com/Agents/558",
            "category": "agents"
          },
          {
            "type": "name_match",
            "text": "cyclohexanol",
            "confidence": 1.0,
            "uuid": "24ac6370-b064-46ca-bf9a-8fb5eada1573",
            "name": "Cyclohexanol",
            "url": "https://haz-map.com/Agents/772",
            "category": "agents"
          },
          {
            "type": "name_match",
            "text": "4-methylcyclohexanol",
            "confidence": 1.0,
            "uuid": "dcbf478c-18b7-4812-9601-cc0e9781ba8e",
            "name": "4-Methylcyclohexanol",
            "url": "https://haz-map.com/Agents/20066",
            "category": "agents"
          }
        ]
      },
      "cas_number": {
        "original_name": "CAS Number",
        "value": "589-91-3",
        "links": [],
        "cross_references": []
      },
      "formula": {
        "original_name": "Formula",
        "value": "C7-H14-O",
        "links": [],
        "cross_references": []
      },
      "major_category": {
        "original_name": "Major Category",
        "value": "Solvents",
        "links": [],
        "cross_references": []
      },
      "synonyms": {
        "original_name": "Synonyms",
        "value": "1-Methyl-4-cyclohexanol; 4-Methylcyclohexanol, mixed isomers; Cyclohexanol, 4-methyl-; [ChemIDplus] p-Methylcyclohexanol; 4-Hexahydromethylphenol; p-Hexahydromethylphenol; [ICSC]",
        "links": [],
        "cross_references": [
          {
            "type": "name_match",
            "text": "phenol",
            "confidence": 1.0,
            "uuid": "03141a03-a7df-4f51-9a37-adde1a7c4b31",
            "name": "Phenol",
            "url": "https://haz-map.com/Agents/84",
            "category": "agents"
          },
          {
            "type": "name_match",
            "text": "methylcyclohexanol",
            "confidence": 1.0,
            "uuid": "22f08510-21ee-4de7-afd9-d5b08745568b",
            "name": "Methylcyclohexanol",
            "url": "https://haz-map.com/Agents/558",
            "category": "agents"
          },
          {
            "type": "name_match",
            "text": "cyclohexanol",
            "confidence": 1.0,
            "uuid": "24ac6370-b064-46ca-bf9a-8fb5eada1573",
            "name": "Cyclohexanol",
            "url": "https://haz-map.com/Agents/772",
            "category": "agents"
          },
          {
            "type": "name_match",
            "text": "4-methylcyclohexanol",
            "confidence": 1.0,
            "uuid": "dcbf478c-18b7-4812-9601-cc0e9781ba8e",
            "name": "4-Methylcyclohexanol",
            "url": "https://haz-map.com/Agents/20066",
            "category": "agents"
          }
        ]
      },
      "category": {
        "original_name": "Category",
        "value": "Alcohols (<C12)",
        "links": [],
        "cross_references": []
      },
      "description": {
        "original_name": "Description",
        "value": "Colorless liquid; [ICSC]",
        "links": [],
        "cross_references": []
      },
      "sourcesuses": {
        "original_name": "Sources/Uses",
        "value": "Used as a solvent, lubricant antioxidant, and blending agent for textile soaps and detergents; [Alfa Aesar MSDS]",
        "links": [],
        "cross_references": []
      },
      "comments": {
        "original_name": "Comments",
        "value": "A mild skin and eye irritant; High vapor concentrations may cause eye and upper respiratory tract irritation; [ICSC] May cause irritation; Mildly toxic by ingestion; Fumes are narcotic and may cause liver and kidney injury; [Alfa Aesar MSDS] See \"Methylcyclohexanol.\"",
        "links": [],
        "cross_references": [
          {
            "type": "name_match",
            "text": "methylcyclohexanol",
            "confidence": 1.0,
            "uuid": "22f08510-21ee-4de7-afd9-d5b08745568b",
            "name": "Methylcyclohexanol",
            "url": "https://haz-map.com/Agents/558",
            "category": "agents"
          },
          {
            "type": "name_match",
            "text": "cyclohexanol",
            "confidence": 1.0,
            "uuid": "24ac6370-b064-46ca-bf9a-8fb5eada1573",
            "name": "Cyclohexanol",
            "url": "https://haz-map.com/Agents/772",
            "category": "agents"
          }
        ]
      },
      "biomedical_references": {
        "original_name": "Biomedical References",
        "value": "Search PubMed",
        "links": [
          {
            "text": "Search PubMed",
            "url": "https://www.ncbi.nlm.nih.gov/pubmed?term=4-Methylcyclohexanol%20AND%20human%5Bmh%5D%20AND%20%28Occupational%20Diseases%20%5Bmh%5D%20OR%20Occupational%20Exposure%20%5Bmh%5D%29%20%20AND%20%28tox%5Bsb%5D%29&cmd=search"
          }
        ],
        "cross_references": []
      }
    },
    "exposure_assessment": {
      "vapor_pressure": {
        "original_name": "Vapor Pressure",
        "value": "0.291 mm Hg",
        "links": [],
        "cross_references": []
      },
      "nfpa": {
        "original_name": "NFPA",
        "value": "high ambient temp required",
        "links": [],
        "cross_references": []
      }
    },
    "adverse_effects": {
      "neurotoxin": {
        "original_name": "Neurotoxin",
        "value": "Acute solvent syndrome",
        "links": [],
        "cross_references": []
      },
      "hepatotoxin": {
        "original_name": "Hepatotoxin",
        "value": "Hepatoxic (a) from occupational exposure (secondary effect) or (b) in animal studies or in humans after ingestion",
        "links": [],
        "cross_references": []
      }
    },
    "diseases_processes_and_activities_linked_to_this_agent": {
      "diseases": {
        "original_name": "Diseases",
        "value": "Occupational diseases associated with exposure to this agent: Solvents, acute toxic effect",
        "links": [
          {
            "text": "Solvents, acute toxic effect",
            "url": "https://haz-map.com/Diseases/326"
          }
        ],
        "cross_references": [
          {
            "type": "url_match",
            "text": "Solvents, acute toxic effect",
            "url": "https://haz-map.com/Diseases/326",
            "confidence": 1.0,
            "uuid": "581e90e3-9d0c-45f0-aa6c-3468c28da129",
            "name": "Solvents, acute toxic effect",
            "category": "diseases"
          }
        ]
      }
    }
  },
  "cross_references": [
    {
      "type": "url_match",
      "text": "Solvents, acute toxic effect",
      "url": "https://haz-map.com/Diseases/326",
      "confidence": 1.0,
      "uuid": "581e90e3-9d0c-45f0-aa6c-3468c28da129",
      "name": "Solvents, acute toxic effect",
      "category": "diseases"
    },
    {
      "type": "name_match",
      "text": "phenol",
      "confidence": 1.0,
      "uuid": "03141a03-a7df-4f51-9a37-adde1a7c4b31",
      "name": "Phenol",
      "url": "https://haz-map.com/Agents/84",
      "category": "agents"
    },
    {
      "type": "name_match",
      "text": "methylcyclohexanol",
      "confidence": 1.0,
      "uuid": "22f08510-21ee-4de7-afd9-d5b08745568b",
      "name": "Methylcyclohexanol",
      "url": "https://haz-map.com/Agents/558",
      "category": "agents"
    },
    {
      "type": "name_match",
      "text": "cyclohexanol",
      "confidence": 1.0,
      "uuid": "24ac6370-b064-46ca-bf9a-8fb5eada1573",
      "name": "Cyclohexanol",
      "url": "https://haz-map.com/Agents/772",
      "category": "agents"
    },
    {
      "type": "name_match",
      "text": "4-methylcyclohexanol",
      "confidence": 1.0,
      "uuid": "dcbf478c-18b7-4812-9601-cc0e9781ba8e",
      "name": "4-Methylcyclohexanol",
      "url": "https://haz-map.com/Agents/20066",
      "category": "agents"
    }
  ],
  "all_links": [
    {
      "text": "Search PubMed",
      "url": "https://www.ncbi.nlm.nih.gov/pubmed?term=4-Methylcyclohexanol%20AND%20human%5Bmh%5D%20AND%20%28Occupational%20Diseases%20%5Bmh%5D%20OR%20Occupational%20Exposure%20%5Bmh%5D%29%20%20AND%20%28tox%5Bsb%5D%29&cmd=search"
    },
    {
      "text": "Solvents, acute toxic effect",
      "url": "https://haz-map.com/Diseases/326"
    }
  ]
}