{
  "metadata": {
    "scraped_from": "https://haz-map.com/Agents/3299",
    "entity_name": "4-Fluoroaniline",
    "category": "agents",
    "uuid": "dcc02d07-f972-4894-860c-9adaf847f72b",
    "scraped_at": "2025-07-23T19:27:13.024939"
  },
  "parsed_at": "2025-07-24T00:55:12.656064",
  "title": "4-Fluoroaniline",
  "sections": {
    "general": {
      "agent_name": {
        "original_name": "Agent Name",
        "value": "4-Fluoroaniline",
        "links": [],
        "cross_references": [
          {
            "type": "name_match",
            "text": "aniline",
            "confidence": 1.0,
            "uuid": "e4932692-8d9c-4a98-8c5c-81e55b12aedf",
            "name": "Aniline",
            "url": "https://haz-map.com/Agents/296",
            "category": "agents"
          },
          {
            "type": "name_match",
            "text": "4-fluoroaniline",
            "confidence": 1.0,
            "uuid": "dcc02d07-f972-4894-860c-9adaf847f72b",
            "name": "4-Fluoroaniline",
            "url": "https://haz-map.com/Agents/3299",
            "category": "agents"
          }
        ]
      },
      "cas_number": {
        "original_name": "CAS Number",
        "value": "371-40-4",
        "links": [],
        "cross_references": []
      },
      "formula": {
        "original_name": "Formula",
        "value": "C6-H6-F-N",
        "links": [],
        "cross_references": []
      },
      "major_category": {
        "original_name": "Major Category",
        "value": "Nitrogen Compounds",
        "links": [],
        "cross_references": [
          {
            "type": "name_match",
            "text": "nitrogen",
            "confidence": 1.0,
            "uuid": "db5e90a9-06d2-45b9-8b81-f345a89b0bc0",
            "name": "Nitrogen",
            "url": "https://haz-map.com/Agents/1072",
            "category": "agents"
          }
        ]
      },
      "synonyms": {
        "original_name": "Synonyms",
        "value": "1-Amino-4-fluorobenzene; 4-Fluoranilin [Czech]; 4-Fluorobenzenamine; 4-Fluoronaniline; Aniline, 4-fluoro-; Aniline, p-fluoro-; Benzenamine, 4-fluoro-; p-Fluoroaniline; p-Fluorophenylamine; para-Fluoroaniline; [ChemIDplus] UN2941",
        "links": [],
        "cross_references": [
          {
            "type": "name_match",
            "text": "benzene",
            "confidence": 1.0,
            "uuid": "b05124de-5f34-4c14-8f04-ccb20c3780d9",
            "name": "Benzene",
            "url": "https://haz-map.com/Agents/5",
            "category": "agents"
          },
          {
            "type": "name_match",
            "text": "aniline",
            "confidence": 1.0,
            "uuid": "e4932692-8d9c-4a98-8c5c-81e55b12aedf",
            "name": "Aniline",
            "url": "https://haz-map.com/Agents/296",
            "category": "agents"
          },
          {
            "type": "name_match",
            "text": "fluorobenzene",
            "confidence": 1.0,
            "uuid": "c1a78196-9690-457b-a16d-9ca478f8d65b",
            "name": "Fluorobenzene",
            "url": "https://haz-map.com/Agents/13894",
            "category": "agents"
          }
        ]
      },
      "category": {
        "original_name": "Category",
        "value": "Amines, Aromatic",
        "links": [],
        "cross_references": []
      },
      "description": {
        "original_name": "Description",
        "value": "Pale yellow liquid; [HSDB] Light gold colored liquid; [MSDSonline]",
        "links": [],
        "cross_references": [
          {
            "type": "name_match",
            "text": "gold",
            "confidence": 1.0,
            "uuid": "8f37bad1-17df-446f-b0ed-11d2ef239483",
            "name": "Gold",
            "url": "https://haz-map.com/Agents/1186",
            "category": "agents"
          },
          {
            "type": "name_match",
            "text": "ht",
            "confidence": 1.0,
            "uuid": "764df367-8d53-4a11-81a2-31ccfe122a8d",
            "name": "HT",
            "url": "https://haz-map.com/Agents/2168",
            "category": "agents"
          }
        ]
      },
      "sourcesuses": {
        "original_name": "Sources/Uses",
        "value": "Used as an intermediate in the manufacture of herbicides, plant growth regulators, dyes, and para-Fluorophenol; [HSDB]",
        "links": [],
        "cross_references": [
          {
            "type": "name_match",
            "text": "phenol",
            "confidence": 1.0,
            "uuid": "03141a03-a7df-4f51-9a37-adde1a7c4b31",
            "name": "Phenol",
            "url": "https://haz-map.com/Agents/84",
            "category": "agents"
          },
          {
            "type": "name_match",
            "text": "herbicides",
            "confidence": 1.0,
            "uuid": "195f29ae-3f15-47c5-836d-0a9791db3fc1",
            "name": "HERBICIDES",
            "url": "https://haz-map.com/Agents/703",
            "category": "agents"
          }
        ]
      },
      "comments": {
        "original_name": "Comments",
        "value": "A mutagen and severe skin and eye irritant; Causes flaccid paralysis and methemoglobinemia in lethal-dose studies of rats; [RTECS] Emergency treatment: Methemoglobinemia; [HSDB] A corrosive substance that can cause injury to the skin, eyes, and respiratory tract; Inhalation may cause chemical pneumonitis; May induce methemoglobinemia; Effects in high-dose animal studies include methemoglobinemia; [MSDSonline]",
        "links": [],
        "cross_references": [
          {
            "type": "name_match",
            "text": "mica",
            "confidence": 1.0,
            "uuid": "433f26f1-c399-4596-b179-ce3843cfd465",
            "name": "Mica",
            "url": "https://haz-map.com/Agents/621",
            "category": "agents"
          },
          {
            "type": "name_match",
            "text": "methemoglobin",
            "confidence": 1.0,
            "uuid": "afb7ebf5-d2a3-4e60-8d2e-3a19456344ee",
            "name": "Methemoglobin",
            "url": "https://haz-map.com/Agents/15467",
            "category": "agents"
          },
          {
            "type": "fuzzy_match",
            "text": "methemoglobinemia",
            "matched_name": "Methemoglobinemia, acute",
            "confidence": 0.7208333333333333,
            "uuid": "473a44bd-cf11-4710-a769-e8e2b25ba317",
            "category": "diseases",
            "url": "https://haz-map.com/Diseases/210"
          }
        ]
      },
      "biomedical_references": {
        "original_name": "Biomedical References",
        "value": "Search PubMed",
        "links": [
          {
            "text": "Search PubMed",
            "url": "https://www.ncbi.nlm.nih.gov/pubmed?term=4-Fluoroaniline%20AND%20human%5Bmh%5D%20AND%20%28Occupational%20Diseases%20%5Bmh%5D%20OR%20Occupational%20Exposure%20%5Bmh%5D%29%20%20AND%20%28tox%5Bsb%5D%29&cmd=search"
          }
        ],
        "cross_references": []
      }
    },
    "exposure_assessment": {
      "vapor_pressure": {
        "original_name": "Vapor Pressure",
        "value": "1 mm Hg",
        "links": [],
        "cross_references": []
      },
      "explanatory_notes": {
        "original_name": "Explanatory Notes",
        "value": "Flash point = 74 deg C; [CAMEO] The Guide in the Emergency Response Guidebook is for \"Fluoroanilines.\" VP from ChemIDplus;",
        "links": [],
        "cross_references": [
          {
            "type": "name_match",
            "text": "aniline",
            "confidence": 1.0,
            "uuid": "e4932692-8d9c-4a98-8c5c-81e55b12aedf",
            "name": "Aniline",
            "url": "https://haz-map.com/Agents/296",
            "category": "agents"
          },
          {
            "type": "name_match",
            "text": "ash",
            "confidence": 1.0,
            "uuid": "68b360f1-5ad0-4337-bea0-d7adca2961b5",
            "name": "Ash",
            "url": "https://haz-map.com/Agents/965",
            "category": "agents"
          }
        ]
      }
    },
    "adverse_effects": {
      "toxic_pneumonitis": {
        "original_name": "Toxic Pneumonitis",
        "value": "Yes",
        "links": [],
        "cross_references": []
      },
      "methemoglobinemia": {
        "original_name": "Methemoglobinemia",
        "value": "MetHgb is secondary toxic effect",
        "links": [],
        "cross_references": []
      },
      "dermatotoxin": {
        "original_name": "Dermatotoxin",
        "value": "Skin burns",
        "links": [],
        "cross_references": [
          {
            "type": "name_match",
            "text": "burn",
            "confidence": 1.0,
            "uuid": "63665de5-6376-4918-8dbf-4c10c4d63837",
            "name": "burn",
            "url": "https://haz-map.com/Findings/204",
            "category": "findings"
          }
        ]
      }
    },
    "diseases_processes_and_activities_linked_to_this_agent": {
      "other_information": {
        "original_name": "Other Information",
        "value": "No other related information on this agent was found.",
        "links": [],
        "cross_references": []
      }
    }
  },
  "cross_references": [
    {
      "type": "name_match",
      "text": "burn",
      "confidence": 1.0,
      "uuid": "63665de5-6376-4918-8dbf-4c10c4d63837",
      "name": "burn",
      "url": "https://haz-map.com/Findings/204",
      "category": "findings"
    },
    {
      "type": "name_match",
      "text": "benzene",
      "confidence": 1.0,
      "uuid": "b05124de-5f34-4c14-8f04-ccb20c3780d9",
      "name": "Benzene",
      "url": "https://haz-map.com/Agents/5",
      "category": "agents"
    },
    {
      "type": "name_match",
      "text": "phenol",
      "confidence": 1.0,
      "uuid": "03141a03-a7df-4f51-9a37-adde1a7c4b31",
      "name": "Phenol",
      "url": "https://haz-map.com/Agents/84",
      "category": "agents"
    },
    {
      "type": "name_match",
      "text": "aniline",
      "confidence": 1.0,
      "uuid": "e4932692-8d9c-4a98-8c5c-81e55b12aedf",
      "name": "Aniline",
      "url": "https://haz-map.com/Agents/296",
      "category": "agents"
    },
    {
      "type": "name_match",
      "text": "mica",
      "confidence": 1.0,
      "uuid": "433f26f1-c399-4596-b179-ce3843cfd465",
      "name": "Mica",
      "url": "https://haz-map.com/Agents/621",
      "category": "agents"
    },
    {
      "type": "name_match",
      "text": "herbicides",
      "confidence": 1.0,
      "uuid": "195f29ae-3f15-47c5-836d-0a9791db3fc1",
      "name": "HERBICIDES",
      "url": "https://haz-map.com/Agents/703",
      "category": "agents"
    },
    {
      "type": "name_match",
      "text": "ash",
      "confidence": 1.0,
      "uuid": "68b360f1-5ad0-4337-bea0-d7adca2961b5",
      "name": "Ash",
      "url": "https://haz-map.com/Agents/965",
      "category": "agents"
    },
    {
      "type": "name_match",
      "text": "nitrogen",
      "confidence": 1.0,
      "uuid": "db5e90a9-06d2-45b9-8b81-f345a89b0bc0",
      "name": "Nitrogen",
      "url": "https://haz-map.com/Agents/1072",
      "category": "agents"
    },
    {
      "type": "name_match",
      "text": "gold",
      "confidence": 1.0,
      "uuid": "8f37bad1-17df-446f-b0ed-11d2ef239483",
      "name": "Gold",
      "url": "https://haz-map.com/Agents/1186",
      "category": "agents"
    },
    {
      "type": "name_match",
      "text": "ht",
      "confidence": 1.0,
      "uuid": "764df367-8d53-4a11-81a2-31ccfe122a8d",
      "name": "HT",
      "url": "https://haz-map.com/Agents/2168",
      "category": "agents"
    },
    {
      "type": "name_match",
      "text": "4-fluoroaniline",
      "confidence": 1.0,
      "uuid": "dcc02d07-f972-4894-860c-9adaf847f72b",
      "name": "4-Fluoroaniline",
      "url": "https://haz-map.com/Agents/3299",
      "category": "agents"
    },
    {
      "type": "name_match",
      "text": "fluorobenzene",
      "confidence": 1.0,
      "uuid": "c1a78196-9690-457b-a16d-9ca478f8d65b",
      "name": "Fluorobenzene",
      "url": "https://haz-map.com/Agents/13894",
      "category": "agents"
    },
    {
      "type": "name_match",
      "text": "methemoglobin",
      "confidence": 1.0,
      "uuid": "afb7ebf5-d2a3-4e60-8d2e-3a19456344ee",
      "name": "Methemoglobin",
      "url": "https://haz-map.com/Agents/15467",
      "category": "agents"
    },
    {
      "type": "fuzzy_match",
      "text": "methemoglobinemia",
      "matched_name": "Methemoglobinemia, acute",
      "confidence": 0.7208333333333333,
      "uuid": "473a44bd-cf11-4710-a769-e8e2b25ba317",
      "category": "diseases",
      "url": "https://haz-map.com/Diseases/210"
    }
  ],
  "all_links": [
    {
      "text": "Search PubMed",
      "url": "https://www.ncbi.nlm.nih.gov/pubmed?term=4-Fluoroaniline%20AND%20human%5Bmh%5D%20AND%20%28Occupational%20Diseases%20%5Bmh%5D%20OR%20Occupational%20Exposure%20%5Bmh%5D%29%20%20AND%20%28tox%5Bsb%5D%29&cmd=search"
    }
  ]
}