{
  "metadata": {
    "scraped_from": "https://haz-map.com/Agents/19491",
    "entity_name": "2,5-Dimethyl-1,5-hexadiene",
    "category": "agents",
    "uuid": "dd1a116a-30bd-45c0-b7b3-a98fdecd1c25",
    "scraped_at": "2025-07-23T22:07:13.119447"
  },
  "parsed_at": "2025-07-24T00:54:59.326355",
  "title": "2,5-Dimethyl-1,5-hexadiene",
  "sections": {
    "general": {
      "agent_name": {
        "original_name": "Agent Name",
        "value": "2,5-Dimethyl-1,5-hexadiene",
        "links": [],
        "cross_references": [
          {
            "type": "name_match",
            "text": "1,5-hexadiene",
            "confidence": 1.0,
            "uuid": "108b98f6-f169-4a4d-95ef-cbd4f8613eb7",
            "name": "1,5-Hexadiene",
            "url": "https://haz-map.com/Agents/7924",
            "category": "agents"
          },
          {
            "type": "name_match",
            "text": "2,5-dimethyl-1,5-hexadiene",
            "confidence": 1.0,
            "uuid": "dd1a116a-30bd-45c0-b7b3-a98fdecd1c25",
            "name": "2,5-Dimethyl-1,5-hexadiene",
            "url": "https://haz-map.com/Agents/19491",
            "category": "agents"
          }
        ]
      },
      "cas_number": {
        "original_name": "CAS Number",
        "value": "627-58-7",
        "links": [],
        "cross_references": []
      },
      "formula": {
        "original_name": "Formula",
        "value": "C8-H14",
        "links": [],
        "cross_references": []
      },
      "major_category": {
        "original_name": "Major Category",
        "value": "Other Classes",
        "links": [],
        "cross_references": []
      },
      "synonyms": {
        "original_name": "Synonyms",
        "value": "1,5-Hexadiene, 2,5-dimethyl-; Bimethallyl; Dimethallyl; 2,5-Dimethylhexa-1,5-diene; [ChemIDplus]",
        "links": [],
        "cross_references": [
          {
            "type": "name_match",
            "text": "1,5-hexadiene",
            "confidence": 1.0,
            "uuid": "108b98f6-f169-4a4d-95ef-cbd4f8613eb7",
            "name": "1,5-Hexadiene",
            "url": "https://haz-map.com/Agents/7924",
            "category": "agents"
          }
        ]
      },
      "category": {
        "original_name": "Category",
        "value": "Aliphatics, Unsaturated",
        "links": [],
        "cross_references": []
      },
      "description": {
        "original_name": "Description",
        "value": "Clear light yellow liquid; [Sigma-Aldrich MSDS]",
        "links": [],
        "cross_references": [
          {
            "type": "name_match",
            "text": "ht",
            "confidence": 1.0,
            "uuid": "764df367-8d53-4a11-81a2-31ccfe122a8d",
            "name": "HT",
            "url": "https://haz-map.com/Agents/2168",
            "category": "agents"
          }
        ]
      },
      "comments": {
        "original_name": "Comments",
        "value": "A skin and strong eye irritant; An aspiration hazard by ingestion (may cause lung injury); [Sigma-Aldrich MSDS] See \"1,4-Hexadiene.\"",
        "links": [],
        "cross_references": [
          {
            "type": "name_match",
            "text": "1,4-hexadiene",
            "confidence": 1.0,
            "uuid": "27e54e37-45f9-4894-93be-fbd4c02e9bd6",
            "name": "1,4-Hexadiene",
            "url": "https://haz-map.com/Agents/7914",
            "category": "agents"
          },
          {
            "type": "fuzzy_match",
            "text": "4-hexadiene",
            "matched_name": "2,4-Hexadiene",
            "confidence": 0.8321678321678322,
            "uuid": "23468ff8-0423-4fb4-b9eb-67daea26eab9",
            "category": "agents",
            "url": "https://haz-map.com/Agents/9627"
          }
        ]
      },
      "biomedical_references": {
        "original_name": "Biomedical References",
        "value": "Search PubMed",
        "links": [
          {
            "text": "Search PubMed",
            "url": "https://www.ncbi.nlm.nih.gov/pubmed?term=2%2c5-Dimethyl-1%2c5-hexadiene%20AND%20human%5Bmh%5D%20AND%20%28Occupational%20Diseases%20%5Bmh%5D%20OR%20Occupational%20Exposure%20%5Bmh%5D%29%20%20AND%20%28tox%5Bsb%5D%29&cmd=search"
          }
        ],
        "cross_references": []
      }
    },
    "exposure_assessment": {
      "vapor_pressure": {
        "original_name": "Vapor Pressure",
        "value": "37.4 mm Hg",
        "links": [],
        "cross_references": []
      },
      "explanatory_notes": {
        "original_name": "Explanatory Notes",
        "value": "The Guide in the Emergency Response Guidebook is for \"Hydrocarbons, liquid, n.o.s.\"",
        "links": [],
        "cross_references": [
          {
            "type": "name_match",
            "text": "carbon",
            "confidence": 1.0,
            "uuid": "b53f8815-ee80-40ef-b4aa-3b000e17dab5",
            "name": "Carbon",
            "url": "https://haz-map.com/Agents/1891",
            "category": "agents"
          },
          {
            "type": "fuzzy_match",
            "text": "hydrocarbons",
            "matched_name": "Hydrocarbons, C>3",
            "confidence": 0.7100840336134454,
            "uuid": "8eaa37ac-3931-44e4-9242-2734127fd661",
            "category": "agents",
            "url": "https://haz-map.com/Agents/14795"
          }
        ]
      }
    },
    "adverse_effects": {
      "neurotoxin": {
        "original_name": "Neurotoxin",
        "value": "Acute solvent syndrome",
        "links": [],
        "cross_references": []
      }
    },
    "diseases_processes_and_activities_linked_to_this_agent": {
      "diseases": {
        "original_name": "Diseases",
        "value": "Occupational diseases associated with exposure to this agent: Solvents, acute toxic effect",
        "links": [
          {
            "text": "Solvents, acute toxic effect",
            "url": "https://haz-map.com/Diseases/326"
          }
        ],
        "cross_references": [
          {
            "type": "url_match",
            "text": "Solvents, acute toxic effect",
            "url": "https://haz-map.com/Diseases/326",
            "confidence": 1.0,
            "uuid": "581e90e3-9d0c-45f0-aa6c-3468c28da129",
            "name": "Solvents, acute toxic effect",
            "category": "diseases"
          }
        ]
      }
    }
  },
  "cross_references": [
    {
      "type": "url_match",
      "text": "Solvents, acute toxic effect",
      "url": "https://haz-map.com/Diseases/326",
      "confidence": 1.0,
      "uuid": "581e90e3-9d0c-45f0-aa6c-3468c28da129",
      "name": "Solvents, acute toxic effect",
      "category": "diseases"
    },
    {
      "type": "name_match",
      "text": "carbon",
      "confidence": 1.0,
      "uuid": "b53f8815-ee80-40ef-b4aa-3b000e17dab5",
      "name": "Carbon",
      "url": "https://haz-map.com/Agents/1891",
      "category": "agents"
    },
    {
      "type": "name_match",
      "text": "ht",
      "confidence": 1.0,
      "uuid": "764df367-8d53-4a11-81a2-31ccfe122a8d",
      "name": "HT",
      "url": "https://haz-map.com/Agents/2168",
      "category": "agents"
    },
    {
      "type": "name_match",
      "text": "1,4-hexadiene",
      "confidence": 1.0,
      "uuid": "27e54e37-45f9-4894-93be-fbd4c02e9bd6",
      "name": "1,4-Hexadiene",
      "url": "https://haz-map.com/Agents/7914",
      "category": "agents"
    },
    {
      "type": "name_match",
      "text": "1,5-hexadiene",
      "confidence": 1.0,
      "uuid": "108b98f6-f169-4a4d-95ef-cbd4f8613eb7",
      "name": "1,5-Hexadiene",
      "url": "https://haz-map.com/Agents/7924",
      "category": "agents"
    },
    {
      "type": "name_match",
      "text": "2,5-dimethyl-1,5-hexadiene",
      "confidence": 1.0,
      "uuid": "dd1a116a-30bd-45c0-b7b3-a98fdecd1c25",
      "name": "2,5-Dimethyl-1,5-hexadiene",
      "url": "https://haz-map.com/Agents/19491",
      "category": "agents"
    },
    {
      "type": "fuzzy_match",
      "text": "4-hexadiene",
      "matched_name": "2,4-Hexadiene",
      "confidence": 0.8321678321678322,
      "uuid": "23468ff8-0423-4fb4-b9eb-67daea26eab9",
      "category": "agents",
      "url": "https://haz-map.com/Agents/9627"
    },
    {
      "type": "fuzzy_match",
      "text": "hydrocarbons",
      "matched_name": "Hydrocarbons, C>3",
      "confidence": 0.7100840336134454,
      "uuid": "8eaa37ac-3931-44e4-9242-2734127fd661",
      "category": "agents",
      "url": "https://haz-map.com/Agents/14795"
    }
  ],
  "all_links": [
    {
      "text": "Search PubMed",
      "url": "https://www.ncbi.nlm.nih.gov/pubmed?term=2%2c5-Dimethyl-1%2c5-hexadiene%20AND%20human%5Bmh%5D%20AND%20%28Occupational%20Diseases%20%5Bmh%5D%20OR%20Occupational%20Exposure%20%5Bmh%5D%29%20%20AND%20%28tox%5Bsb%5D%29&cmd=search"
    },
    {
      "text": "Solvents, acute toxic effect",
      "url": "https://haz-map.com/Diseases/326"
    }
  ]
}