{
  "metadata": {
    "scraped_from": "https://haz-map.com/Agents/4802",
    "entity_name": "N-Methyl dicyclohexylamine",
    "category": "agents",
    "uuid": "dd1a09ba-9aa2-49ab-b502-1be0e6f99b56",
    "scraped_at": "2025-07-23T19:45:01.941300"
  },
  "parsed_at": "2025-07-24T01:07:32.523757",
  "title": "N-Methyl dicyclohexylamine",
  "sections": {
    "general": {
      "agent_name": {
        "original_name": "Agent Name",
        "value": "N-Methyl dicyclohexylamine",
        "links": [],
        "cross_references": [
          {
            "type": "name_match",
            "text": "cyclohexylamine",
            "confidence": 1.0,
            "uuid": "4b55fc89-050d-4cad-9e6c-8b9e91f2b805",
            "name": "Cyclohexylamine",
            "url": "https://haz-map.com/Agents/226",
            "category": "agents"
          },
          {
            "type": "name_match",
            "text": "dicyclohexylamine",
            "confidence": 1.0,
            "uuid": "5871924a-fb44-489c-8ad8-d571dd129c7b",
            "name": "Dicyclohexylamine",
            "url": "https://haz-map.com/Agents/4801",
            "category": "agents"
          },
          {
            "type": "name_match",
            "text": "n-methyl dicyclohexylamine",
            "confidence": 1.0,
            "uuid": "dd1a09ba-9aa2-49ab-b502-1be0e6f99b56",
            "name": "N-Methyl dicyclohexylamine",
            "url": "https://haz-map.com/Agents/4802",
            "category": "agents"
          },
          {
            "type": "name_match",
            "text": "hexylamine",
            "confidence": 1.0,
            "uuid": "d6024dfe-8865-49e0-9086-0d2662bb2ea8",
            "name": "Hexylamine",
            "url": "https://haz-map.com/Agents/19320",
            "category": "agents"
          }
        ]
      },
      "cas_number": {
        "original_name": "CAS Number",
        "value": "7560-83-0",
        "links": [],
        "cross_references": []
      },
      "formula": {
        "original_name": "Formula",
        "value": "C13-H25-N",
        "links": [],
        "cross_references": []
      },
      "major_category": {
        "original_name": "Major Category",
        "value": "Nitrogen Compounds",
        "links": [],
        "cross_references": [
          {
            "type": "name_match",
            "text": "nitrogen",
            "confidence": 1.0,
            "uuid": "db5e90a9-06d2-45b9-8b81-f345a89b0bc0",
            "name": "Nitrogen",
            "url": "https://haz-map.com/Agents/1072",
            "category": "agents"
          }
        ]
      },
      "synonyms": {
        "original_name": "Synonyms",
        "value": "Cyclohexanamine, N-cyclohexyl-N-methyl-; Dicyclohexylamine, N-methyl-; N,N-Dicyclohexylmethylamine; N-Methyldicyclohexylamine; [ChemIDplus]",
        "links": [],
        "cross_references": [
          {
            "type": "name_match",
            "text": "methylamine",
            "confidence": 1.0,
            "uuid": "7c3781b5-5294-474a-a015-e59574d00b69",
            "name": "Methylamine",
            "url": "https://haz-map.com/Agents/217",
            "category": "agents"
          },
          {
            "type": "name_match",
            "text": "ethylamine",
            "confidence": 1.0,
            "uuid": "41ca4da8-b990-420a-86b2-3d77404fb7f4",
            "name": "Ethylamine",
            "url": "https://haz-map.com/Agents/220",
            "category": "agents"
          },
          {
            "type": "name_match",
            "text": "cyclohexylamine",
            "confidence": 1.0,
            "uuid": "4b55fc89-050d-4cad-9e6c-8b9e91f2b805",
            "name": "Cyclohexylamine",
            "url": "https://haz-map.com/Agents/226",
            "category": "agents"
          },
          {
            "type": "name_match",
            "text": "dicyclohexylamine",
            "confidence": 1.0,
            "uuid": "5871924a-fb44-489c-8ad8-d571dd129c7b",
            "name": "Dicyclohexylamine",
            "url": "https://haz-map.com/Agents/4801",
            "category": "agents"
          },
          {
            "type": "name_match",
            "text": "hexylamine",
            "confidence": 1.0,
            "uuid": "d6024dfe-8865-49e0-9086-0d2662bb2ea8",
            "name": "Hexylamine",
            "url": "https://haz-map.com/Agents/19320",
            "category": "agents"
          }
        ]
      },
      "category": {
        "original_name": "Category",
        "value": "Amines, Aliphatic",
        "links": [],
        "cross_references": []
      },
      "description": {
        "original_name": "Description",
        "value": "Clear slightly yellow liquid or white solid; [MSDSonline]",
        "links": [],
        "cross_references": [
          {
            "type": "name_match",
            "text": "ht",
            "confidence": 1.0,
            "uuid": "764df367-8d53-4a11-81a2-31ccfe122a8d",
            "name": "HT",
            "url": "https://haz-map.com/Agents/2168",
            "category": "agents"
          }
        ]
      },
      "sourcesuses": {
        "original_name": "Sources/Uses",
        "value": "Used as a urethane foam catalyst; [Ullmann]",
        "links": [],
        "cross_references": [
          {
            "type": "name_match",
            "text": "ethane",
            "confidence": 1.0,
            "uuid": "5162cc8c-dfb9-4060-81ac-38a8cec7f9dd",
            "name": "Ethane",
            "url": "https://haz-map.com/Agents/1075",
            "category": "agents"
          },
          {
            "type": "name_match",
            "text": "urethane",
            "confidence": 1.0,
            "uuid": "6405f173-6b8a-4d9b-a282-a1a6bf6901fd",
            "name": "Urethane",
            "url": "https://haz-map.com/Agents/2032",
            "category": "agents"
          }
        ]
      },
      "comments": {
        "original_name": "Comments",
        "value": "Causes somnolence, convulsions, and acute pulmonary edema in lethal-dose feeding studies of rats; [RTECS] A corrosive substance that can cause injury to the skin, eyes, and respiratory tract; Inhalation may result in chemical pneumonitis; [Aldrich MSDS]",
        "links": [],
        "cross_references": [
          {
            "type": "name_match",
            "text": "convulsion",
            "confidence": 1.0,
            "uuid": "af2c36f8-707a-48e3-a62b-1aa07adc9b72",
            "name": "convulsion",
            "url": "https://haz-map.com/Findings/14",
            "category": "findings"
          },
          {
            "type": "name_match",
            "text": "pulmonary edema",
            "confidence": 1.0,
            "uuid": "ee39114e-c922-40fd-9588-a532de404962",
            "name": "pulmonary edema",
            "url": "https://haz-map.com/Findings/186",
            "category": "findings"
          },
          {
            "type": "name_match",
            "text": "mica",
            "confidence": 1.0,
            "uuid": "433f26f1-c399-4596-b179-ce3843cfd465",
            "name": "Mica",
            "url": "https://haz-map.com/Agents/621",
            "category": "agents"
          }
        ]
      },
      "biomedical_references": {
        "original_name": "Biomedical References",
        "value": "Search PubMed",
        "links": [
          {
            "text": "Search PubMed",
            "url": "https://www.ncbi.nlm.nih.gov/pubmed?term=N-Methyl+dicyclohexylamine%20AND%20human%5Bmh%5D%20AND%20%28Occupational%20Diseases%20%5Bmh%5D%20OR%20Occupational%20Exposure%20%5Bmh%5D%29%20%20AND%20%28tox%5Bsb%5D%29&cmd=search"
          }
        ],
        "cross_references": []
      }
    },
    "exposure_assessment": {
      "vapor_pressure": {
        "original_name": "Vapor Pressure",
        "value": "0.018 mm Hg",
        "links": [],
        "cross_references": []
      },
      "explanatory_notes": {
        "original_name": "Explanatory Notes",
        "value": "VP from ChemIDplus;",
        "links": [],
        "cross_references": []
      }
    },
    "adverse_effects": {
      "toxic_pneumonitis": {
        "original_name": "Toxic Pneumonitis",
        "value": "Yes",
        "links": [],
        "cross_references": []
      },
      "dermatotoxin": {
        "original_name": "Dermatotoxin",
        "value": "Skin burns",
        "links": [],
        "cross_references": [
          {
            "type": "name_match",
            "text": "burn",
            "confidence": 1.0,
            "uuid": "63665de5-6376-4918-8dbf-4c10c4d63837",
            "name": "burn",
            "url": "https://haz-map.com/Findings/204",
            "category": "findings"
          }
        ]
      }
    },
    "diseases_processes_and_activities_linked_to_this_agent": {
      "other_information": {
        "original_name": "Other Information",
        "value": "No other related information on this agent was found.",
        "links": [],
        "cross_references": []
      }
    }
  },
  "cross_references": [
    {
      "type": "name_match",
      "text": "convulsion",
      "confidence": 1.0,
      "uuid": "af2c36f8-707a-48e3-a62b-1aa07adc9b72",
      "name": "convulsion",
      "url": "https://haz-map.com/Findings/14",
      "category": "findings"
    },
    {
      "type": "name_match",
      "text": "pulmonary edema",
      "confidence": 1.0,
      "uuid": "ee39114e-c922-40fd-9588-a532de404962",
      "name": "pulmonary edema",
      "url": "https://haz-map.com/Findings/186",
      "category": "findings"
    },
    {
      "type": "name_match",
      "text": "burn",
      "confidence": 1.0,
      "uuid": "63665de5-6376-4918-8dbf-4c10c4d63837",
      "name": "burn",
      "url": "https://haz-map.com/Findings/204",
      "category": "findings"
    },
    {
      "type": "name_match",
      "text": "methylamine",
      "confidence": 1.0,
      "uuid": "7c3781b5-5294-474a-a015-e59574d00b69",
      "name": "Methylamine",
      "url": "https://haz-map.com/Agents/217",
      "category": "agents"
    },
    {
      "type": "name_match",
      "text": "ethylamine",
      "confidence": 1.0,
      "uuid": "41ca4da8-b990-420a-86b2-3d77404fb7f4",
      "name": "Ethylamine",
      "url": "https://haz-map.com/Agents/220",
      "category": "agents"
    },
    {
      "type": "name_match",
      "text": "cyclohexylamine",
      "confidence": 1.0,
      "uuid": "4b55fc89-050d-4cad-9e6c-8b9e91f2b805",
      "name": "Cyclohexylamine",
      "url": "https://haz-map.com/Agents/226",
      "category": "agents"
    },
    {
      "type": "name_match",
      "text": "mica",
      "confidence": 1.0,
      "uuid": "433f26f1-c399-4596-b179-ce3843cfd465",
      "name": "Mica",
      "url": "https://haz-map.com/Agents/621",
      "category": "agents"
    },
    {
      "type": "name_match",
      "text": "nitrogen",
      "confidence": 1.0,
      "uuid": "db5e90a9-06d2-45b9-8b81-f345a89b0bc0",
      "name": "Nitrogen",
      "url": "https://haz-map.com/Agents/1072",
      "category": "agents"
    },
    {
      "type": "name_match",
      "text": "ethane",
      "confidence": 1.0,
      "uuid": "5162cc8c-dfb9-4060-81ac-38a8cec7f9dd",
      "name": "Ethane",
      "url": "https://haz-map.com/Agents/1075",
      "category": "agents"
    },
    {
      "type": "name_match",
      "text": "urethane",
      "confidence": 1.0,
      "uuid": "6405f173-6b8a-4d9b-a282-a1a6bf6901fd",
      "name": "Urethane",
      "url": "https://haz-map.com/Agents/2032",
      "category": "agents"
    },
    {
      "type": "name_match",
      "text": "ht",
      "confidence": 1.0,
      "uuid": "764df367-8d53-4a11-81a2-31ccfe122a8d",
      "name": "HT",
      "url": "https://haz-map.com/Agents/2168",
      "category": "agents"
    },
    {
      "type": "name_match",
      "text": "dicyclohexylamine",
      "confidence": 1.0,
      "uuid": "5871924a-fb44-489c-8ad8-d571dd129c7b",
      "name": "Dicyclohexylamine",
      "url": "https://haz-map.com/Agents/4801",
      "category": "agents"
    },
    {
      "type": "name_match",
      "text": "n-methyl dicyclohexylamine",
      "confidence": 1.0,
      "uuid": "dd1a09ba-9aa2-49ab-b502-1be0e6f99b56",
      "name": "N-Methyl dicyclohexylamine",
      "url": "https://haz-map.com/Agents/4802",
      "category": "agents"
    },
    {
      "type": "name_match",
      "text": "hexylamine",
      "confidence": 1.0,
      "uuid": "d6024dfe-8865-49e0-9086-0d2662bb2ea8",
      "name": "Hexylamine",
      "url": "https://haz-map.com/Agents/19320",
      "category": "agents"
    }
  ],
  "all_links": [
    {
      "text": "Search PubMed",
      "url": "https://www.ncbi.nlm.nih.gov/pubmed?term=N-Methyl+dicyclohexylamine%20AND%20human%5Bmh%5D%20AND%20%28Occupational%20Diseases%20%5Bmh%5D%20OR%20Occupational%20Exposure%20%5Bmh%5D%29%20%20AND%20%28tox%5Bsb%5D%29&cmd=search"
    }
  ]
}