{
  "metadata": {
    "scraped_from": "https://haz-map.com/Agents/2824",
    "entity_name": "1,4-Dinitrosopiperazine",
    "category": "agents",
    "uuid": "dd47220f-7c89-4715-b4b9-72c5396d4951",
    "scraped_at": "2025-07-23T19:19:27.553463"
  },
  "parsed_at": "2025-07-24T00:59:17.040562",
  "title": "1,4-Dinitrosopiperazine",
  "sections": {
    "general": {
      "agent_name": {
        "original_name": "Agent Name",
        "value": "1,4-Dinitrosopiperazine",
        "links": [],
        "cross_references": [
          {
            "type": "name_match",
            "text": "1,4-dinitrosopiperazine",
            "confidence": 1.0,
            "uuid": "dd47220f-7c89-4715-b4b9-72c5396d4951",
            "name": "1,4-Dinitrosopiperazine",
            "url": "https://haz-map.com/Agents/2824",
            "category": "agents"
          }
        ]
      },
      "cas_number": {
        "original_name": "CAS Number",
        "value": "140-79-4",
        "links": [],
        "cross_references": []
      },
      "formula": {
        "original_name": "Formula",
        "value": "C4-H8-N4-O2",
        "links": [],
        "cross_references": []
      },
      "major_category": {
        "original_name": "Major Category",
        "value": "Nitrogen Compounds",
        "links": [],
        "cross_references": [
          {
            "type": "name_match",
            "text": "nitrogen",
            "confidence": 1.0,
            "uuid": "db5e90a9-06d2-45b9-8b81-f345a89b0bc0",
            "name": "Nitrogen",
            "url": "https://haz-map.com/Agents/1072",
            "category": "agents"
          }
        ]
      },
      "synonyms": {
        "original_name": "Synonyms",
        "value": "DNPZ; Dinitrosopiperazin [German]; Dinitrosopiperazine; N,N'-Dinitrosopiperazine; N-Dinitrosopiperazine; Piperazine, 1,4-dinitroso-; [ChemIDplus]",
        "links": [],
        "cross_references": []
      },
      "category": {
        "original_name": "Category",
        "value": "Nitrosamines",
        "links": [],
        "cross_references": [
          {
            "type": "name_match",
            "text": "nitrosamines",
            "confidence": 1.0,
            "uuid": "71647706-f82f-4f7a-a1ad-2500c04c2ac0",
            "name": "NITROSAMINES",
            "url": "https://haz-map.com/Agents/767",
            "category": "agents"
          }
        ]
      },
      "description": {
        "original_name": "Description",
        "value": "Pale yellow solid; [HSDB]",
        "links": [],
        "cross_references": []
      },
      "sourcesuses": {
        "original_name": "Sources/Uses",
        "value": "Used as a research chemical; Not commercially produced in the US; [HSDB]",
        "links": [],
        "cross_references": [
          {
            "type": "name_match",
            "text": "mica",
            "confidence": 1.0,
            "uuid": "433f26f1-c399-4596-b179-ce3843cfd465",
            "name": "Mica",
            "url": "https://haz-map.com/Agents/621",
            "category": "agents"
          }
        ]
      },
      "comments": {
        "original_name": "Comments",
        "value": "Emergency treatment: \"Piperazine\"; Piperazine can cause vomiting, confusion, seizures, and coma at therapeutic levels (75 mg/kg/day) in patients with normal renal function; [HSDB] An irritant; [MP MSDS] See \"Piperazine and salts.\"",
        "links": [],
        "cross_references": [
          {
            "type": "name_match",
            "text": "confusion",
            "confidence": 1.0,
            "uuid": "cc9d5a44-5788-4530-9989-5b190b74590b",
            "name": "confusion",
            "url": "https://haz-map.com/Findings/135",
            "category": "findings"
          },
          {
            "type": "name_match",
            "text": "piperazine and salts",
            "confidence": 1.0,
            "uuid": "8bec178c-99ef-46ea-9498-d143e68ad85b",
            "name": "Piperazine and salts",
            "url": "https://haz-map.com/Agents/2226",
            "category": "agents"
          }
        ]
      },
      "biomedical_references": {
        "original_name": "Biomedical References",
        "value": "Search PubMed",
        "links": [
          {
            "text": "Search PubMed",
            "url": "https://www.ncbi.nlm.nih.gov/pubmed?term=1%2c4-Dinitrosopiperazine%20AND%20human%5Bmh%5D%20AND%20%28Occupational%20Diseases%20%5Bmh%5D%20OR%20Occupational%20Exposure%20%5Bmh%5D%29%20%20AND%20%28tox%5Bsb%5D%29&cmd=search"
          }
        ],
        "cross_references": []
      }
    },
    "exposure_assessment": {
      "vapor_pressure": {
        "original_name": "Vapor Pressure",
        "value": "0.00019 mm Hg",
        "links": [],
        "cross_references": []
      }
    },
    "adverse_effects": {
      "neurotoxin": {
        "original_name": "Neurotoxin",
        "value": "Other CNS neurotoxin",
        "links": [],
        "cross_references": []
      }
    },
    "diseases_processes_and_activities_linked_to_this_agent": {
      "other_information": {
        "original_name": "Other Information",
        "value": "No other related information on this agent was found.",
        "links": [],
        "cross_references": []
      }
    }
  },
  "cross_references": [
    {
      "type": "name_match",
      "text": "confusion",
      "confidence": 1.0,
      "uuid": "cc9d5a44-5788-4530-9989-5b190b74590b",
      "name": "confusion",
      "url": "https://haz-map.com/Findings/135",
      "category": "findings"
    },
    {
      "type": "name_match",
      "text": "mica",
      "confidence": 1.0,
      "uuid": "433f26f1-c399-4596-b179-ce3843cfd465",
      "name": "Mica",
      "url": "https://haz-map.com/Agents/621",
      "category": "agents"
    },
    {
      "type": "name_match",
      "text": "nitrosamines",
      "confidence": 1.0,
      "uuid": "71647706-f82f-4f7a-a1ad-2500c04c2ac0",
      "name": "NITROSAMINES",
      "url": "https://haz-map.com/Agents/767",
      "category": "agents"
    },
    {
      "type": "name_match",
      "text": "nitrogen",
      "confidence": 1.0,
      "uuid": "db5e90a9-06d2-45b9-8b81-f345a89b0bc0",
      "name": "Nitrogen",
      "url": "https://haz-map.com/Agents/1072",
      "category": "agents"
    },
    {
      "type": "name_match",
      "text": "piperazine and salts",
      "confidence": 1.0,
      "uuid": "8bec178c-99ef-46ea-9498-d143e68ad85b",
      "name": "Piperazine and salts",
      "url": "https://haz-map.com/Agents/2226",
      "category": "agents"
    },
    {
      "type": "name_match",
      "text": "1,4-dinitrosopiperazine",
      "confidence": 1.0,
      "uuid": "dd47220f-7c89-4715-b4b9-72c5396d4951",
      "name": "1,4-Dinitrosopiperazine",
      "url": "https://haz-map.com/Agents/2824",
      "category": "agents"
    }
  ],
  "all_links": [
    {
      "text": "Search PubMed",
      "url": "https://www.ncbi.nlm.nih.gov/pubmed?term=1%2c4-Dinitrosopiperazine%20AND%20human%5Bmh%5D%20AND%20%28Occupational%20Diseases%20%5Bmh%5D%20OR%20Occupational%20Exposure%20%5Bmh%5D%29%20%20AND%20%28tox%5Bsb%5D%29&cmd=search"
    }
  ]
}