{
  "metadata": {
    "scraped_from": "https://haz-map.com/Agents/7887",
    "entity_name": "1,2,4,5-Tetramethylbenzene",
    "category": "agents",
    "uuid": "dd764b01-a4ed-44a2-887a-e9aee5580f93",
    "scraped_at": "2025-07-23T20:18:22.154631"
  },
  "parsed_at": "2025-07-24T01:14:39.605492",
  "title": "1,2,4,5-Tetramethylbenzene",
  "sections": {
    "general": {
      "agent_name": {
        "original_name": "Agent Name",
        "value": "1,2,4,5-Tetramethylbenzene",
        "links": [],
        "cross_references": [
          {
            "type": "name_match",
            "text": "benzene",
            "confidence": 1.0,
            "uuid": "b05124de-5f34-4c14-8f04-ccb20c3780d9",
            "name": "Benzene",
            "url": "https://haz-map.com/Agents/5",
            "category": "agents"
          },
          {
            "type": "name_match",
            "text": "2,4,5-t",
            "confidence": 1.0,
            "uuid": "e264617e-1fc4-45f5-acbb-36f4d966512f",
            "name": "2,4,5-T",
            "url": "https://haz-map.com/Agents/687",
            "category": "agents"
          },
          {
            "type": "name_match",
            "text": "1,2,4,5-tetramethylbenzene",
            "confidence": 1.0,
            "uuid": "dd764b01-a4ed-44a2-887a-e9aee5580f93",
            "name": "1,2,4,5-Tetramethylbenzene",
            "url": "https://haz-map.com/Agents/7887",
            "category": "agents"
          },
          {
            "type": "fuzzy_match",
            "text": "5-tetramethylbenzene",
            "matched_name": "1,2,3,5-Tetramethylbenzene",
            "confidence": 0.7669683257918551,
            "uuid": "3b008d00-1336-4dac-a29c-509d0cbabaca",
            "category": "agents",
            "url": "https://haz-map.com/Agents/7881"
          }
        ]
      },
      "alternative_name": {
        "original_name": "Alternative Name",
        "value": "Durene",
        "links": [],
        "cross_references": []
      },
      "cas_number": {
        "original_name": "CAS Number",
        "value": "95-93-2",
        "links": [],
        "cross_references": []
      },
      "formula": {
        "original_name": "Formula",
        "value": "C10-H14",
        "links": [],
        "cross_references": []
      },
      "major_category": {
        "original_name": "Major Category",
        "value": "Other Classes",
        "links": [],
        "cross_references": []
      },
      "synonyms": {
        "original_name": "Synonyms",
        "value": "Durol; Benzene, 1,2,4,5-tetramethyl-; p-Xylene, 2,5-dimethyl- (7CI); Durene; [ChemIDplus]",
        "links": [],
        "cross_references": [
          {
            "type": "name_match",
            "text": "benzene",
            "confidence": 1.0,
            "uuid": "b05124de-5f34-4c14-8f04-ccb20c3780d9",
            "name": "Benzene",
            "url": "https://haz-map.com/Agents/5",
            "category": "agents"
          },
          {
            "type": "name_match",
            "text": "2,4,5-t",
            "confidence": 1.0,
            "uuid": "e264617e-1fc4-45f5-acbb-36f4d966512f",
            "name": "2,4,5-T",
            "url": "https://haz-map.com/Agents/687",
            "category": "agents"
          },
          {
            "type": "name_match",
            "text": "p-xylene",
            "confidence": 1.0,
            "uuid": "10e69ddd-48a3-4d40-83ee-196e9b9dab5a",
            "name": "p-Xylene",
            "url": "https://haz-map.com/Agents/17009",
            "category": "agents"
          }
        ]
      },
      "category": {
        "original_name": "Category",
        "value": "Aromatic Hydrocarbons",
        "links": [],
        "cross_references": [
          {
            "type": "name_match",
            "text": "carbon",
            "confidence": 1.0,
            "uuid": "b53f8815-ee80-40ef-b4aa-3b000e17dab5",
            "name": "Carbon",
            "url": "https://haz-map.com/Agents/1891",
            "category": "agents"
          },
          {
            "type": "fuzzy_match",
            "text": "aromatic hydrocarbons",
            "matched_name": "Aromatic hydrocarbons, C9-C11",
            "confidence": 0.7509578544061303,
            "uuid": "1e86d79b-784d-40c4-8412-39a4432a7a75",
            "category": "agents",
            "url": "https://haz-map.com/Agents/20258"
          },
          {
            "type": "fuzzy_match",
            "text": "hydrocarbons",
            "matched_name": "Hydrocarbons, C>3",
            "confidence": 0.7100840336134454,
            "uuid": "8eaa37ac-3931-44e4-9242-2734127fd661",
            "category": "agents",
            "url": "https://haz-map.com/Agents/14795"
          }
        ]
      },
      "description": {
        "original_name": "Description",
        "value": "Colorless solid; [CAMEO]",
        "links": [],
        "cross_references": []
      },
      "sourcesuses": {
        "original_name": "Sources/Uses",
        "value": "Occurs in coal tar; [Merck Index]",
        "links": [],
        "cross_references": [
          {
            "type": "name_match",
            "text": "coal tar",
            "confidence": 1.0,
            "uuid": "df40f58d-45ab-44c5-8e73-a9916bba6e2c",
            "name": "Coal tar",
            "url": "https://haz-map.com/Agents/1575",
            "category": "agents"
          }
        ]
      },
      "biomedical_references": {
        "original_name": "Biomedical References",
        "value": "Search PubMed",
        "links": [
          {
            "text": "Search PubMed",
            "url": "https://www.ncbi.nlm.nih.gov/pubmed?term=1%2c2%2c4%2c5-Tetramethylbenzene%20AND%20human%5Bmh%5D%20AND%20%28Occupational%20Diseases%20%5Bmh%5D%20OR%20Occupational%20Exposure%20%5Bmh%5D%29%20%20AND%20%28tox%5Bsb%5D%29&cmd=search"
          }
        ],
        "cross_references": []
      }
    },
    "exposure_assessment": {
      "explanatory_notes": {
        "original_name": "Explanatory Notes",
        "value": "Flash point = 74 deg C; [IUCLID] VP = 160 mm Hg at 140 deg C; [MSDSonline]",
        "links": [],
        "cross_references": [
          {
            "type": "name_match",
            "text": "ash",
            "confidence": 1.0,
            "uuid": "68b360f1-5ad0-4337-bea0-d7adca2961b5",
            "name": "Ash",
            "url": "https://haz-map.com/Agents/965",
            "category": "agents"
          }
        ]
      }
    },
    "diseases_processes_and_activities_linked_to_this_agent": {
      "other_information": {
        "original_name": "Other Information",
        "value": "No other related information on this agent was found.",
        "links": [],
        "cross_references": []
      }
    }
  },
  "cross_references": [
    {
      "type": "name_match",
      "text": "benzene",
      "confidence": 1.0,
      "uuid": "b05124de-5f34-4c14-8f04-ccb20c3780d9",
      "name": "Benzene",
      "url": "https://haz-map.com/Agents/5",
      "category": "agents"
    },
    {
      "type": "name_match",
      "text": "2,4,5-t",
      "confidence": 1.0,
      "uuid": "e264617e-1fc4-45f5-acbb-36f4d966512f",
      "name": "2,4,5-T",
      "url": "https://haz-map.com/Agents/687",
      "category": "agents"
    },
    {
      "type": "name_match",
      "text": "ash",
      "confidence": 1.0,
      "uuid": "68b360f1-5ad0-4337-bea0-d7adca2961b5",
      "name": "Ash",
      "url": "https://haz-map.com/Agents/965",
      "category": "agents"
    },
    {
      "type": "name_match",
      "text": "coal tar",
      "confidence": 1.0,
      "uuid": "df40f58d-45ab-44c5-8e73-a9916bba6e2c",
      "name": "Coal tar",
      "url": "https://haz-map.com/Agents/1575",
      "category": "agents"
    },
    {
      "type": "name_match",
      "text": "carbon",
      "confidence": 1.0,
      "uuid": "b53f8815-ee80-40ef-b4aa-3b000e17dab5",
      "name": "Carbon",
      "url": "https://haz-map.com/Agents/1891",
      "category": "agents"
    },
    {
      "type": "name_match",
      "text": "1,2,4,5-tetramethylbenzene",
      "confidence": 1.0,
      "uuid": "dd764b01-a4ed-44a2-887a-e9aee5580f93",
      "name": "1,2,4,5-Tetramethylbenzene",
      "url": "https://haz-map.com/Agents/7887",
      "category": "agents"
    },
    {
      "type": "name_match",
      "text": "p-xylene",
      "confidence": 1.0,
      "uuid": "10e69ddd-48a3-4d40-83ee-196e9b9dab5a",
      "name": "p-Xylene",
      "url": "https://haz-map.com/Agents/17009",
      "category": "agents"
    },
    {
      "type": "fuzzy_match",
      "text": "5-tetramethylbenzene",
      "matched_name": "1,2,3,5-Tetramethylbenzene",
      "confidence": 0.7669683257918551,
      "uuid": "3b008d00-1336-4dac-a29c-509d0cbabaca",
      "category": "agents",
      "url": "https://haz-map.com/Agents/7881"
    },
    {
      "type": "fuzzy_match",
      "text": "aromatic hydrocarbons",
      "matched_name": "Aromatic hydrocarbons, C9-C11",
      "confidence": 0.7509578544061303,
      "uuid": "1e86d79b-784d-40c4-8412-39a4432a7a75",
      "category": "agents",
      "url": "https://haz-map.com/Agents/20258"
    },
    {
      "type": "fuzzy_match",
      "text": "hydrocarbons",
      "matched_name": "Hydrocarbons, C>3",
      "confidence": 0.7100840336134454,
      "uuid": "8eaa37ac-3931-44e4-9242-2734127fd661",
      "category": "agents",
      "url": "https://haz-map.com/Agents/14795"
    }
  ],
  "all_links": [
    {
      "text": "Search PubMed",
      "url": "https://www.ncbi.nlm.nih.gov/pubmed?term=1%2c2%2c4%2c5-Tetramethylbenzene%20AND%20human%5Bmh%5D%20AND%20%28Occupational%20Diseases%20%5Bmh%5D%20OR%20Occupational%20Exposure%20%5Bmh%5D%29%20%20AND%20%28tox%5Bsb%5D%29&cmd=search"
    }
  ]
}