{
  "metadata": {
    "scraped_from": "https://haz-map.com/Agents/3916",
    "entity_name": "Betaine",
    "category": "agents",
    "uuid": "ddbc43a4-9711-4d8b-ae0b-a734b89aca52",
    "scraped_at": "2025-07-23T19:34:38.018653"
  },
  "parsed_at": "2025-07-24T00:56:45.760222",
  "title": "Betaine",
  "sections": {
    "general": {
      "agent_name": {
        "original_name": "Agent Name",
        "value": "Betaine",
        "links": [],
        "cross_references": [
          {
            "type": "name_match",
            "text": "betaine",
            "confidence": 1.0,
            "uuid": "ddbc43a4-9711-4d8b-ae0b-a734b89aca52",
            "name": "Betaine",
            "url": "https://haz-map.com/Agents/3916",
            "category": "agents"
          }
        ]
      },
      "cas_number": {
        "original_name": "CAS Number",
        "value": "107-43-7",
        "links": [],
        "cross_references": []
      },
      "formula": {
        "original_name": "Formula",
        "value": "C5-H11-N-O2",
        "links": [],
        "cross_references": []
      },
      "major_category": {
        "original_name": "Major Category",
        "value": "Nitrogen Compounds",
        "links": [],
        "cross_references": [
          {
            "type": "name_match",
            "text": "nitrogen",
            "confidence": 1.0,
            "uuid": "db5e90a9-06d2-45b9-8b81-f345a89b0bc0",
            "name": "Nitrogen",
            "url": "https://haz-map.com/Agents/1072",
            "category": "agents"
          }
        ]
      },
      "synonyms": {
        "original_name": "Synonyms",
        "value": "1-Carboxy-N,N,N-trimethylmethanaminium hydroxide, inner salt; Methanaminium, 1-carboxy-N,N,N-trimethyl-, hydroxide, inner salt; (Carboxymethyl)trimethylammonium hydroxide, inner salt; 2-(Trimethylammonio)ethanoic acid, hydroxide, inner salt; Abromine; Betaine; Glycine betaine; Glycine, trimethylbetaine; Glycocoll betaine; Glycylbetaine; Glykokollbetain [German]; Jortaine; Loramine AMB 13; Lycine; Oxyneurine; Rubrine C; Trimethylaminoacetic acid; Trimethylglycine; Trimethylglycocoll; alpha-Earleine; [ChemIDplus] Cystadane (anhydrous betaine for oral solution); [HSDB]",
        "links": [],
        "cross_references": [
          {
            "type": "name_match",
            "text": "acetic acid",
            "confidence": 1.0,
            "uuid": "0905c6e4-df84-4895-a92d-658819239bbd",
            "name": "Acetic acid",
            "url": "https://haz-map.com/Agents/207",
            "category": "agents"
          },
          {
            "type": "name_match",
            "text": "bromine",
            "confidence": 1.0,
            "uuid": "9b659123-45fb-4e5c-b681-d3c1cec47df3",
            "name": "Bromine",
            "url": "https://haz-map.com/Agents/315",
            "category": "agents"
          },
          {
            "type": "name_match",
            "text": "ramin",
            "confidence": 1.0,
            "uuid": "f0fbb433-5eef-4a70-a208-66cc45df5768",
            "name": "Ramin",
            "url": "https://haz-map.com/Agents/962",
            "category": "agents"
          },
          {
            "type": "name_match",
            "text": "ammonium hydroxide",
            "confidence": 1.0,
            "uuid": "84e83569-93a7-465a-882a-d62d483984b8",
            "name": "Ammonium hydroxide",
            "url": "https://haz-map.com/Agents/1376",
            "category": "agents"
          },
          {
            "type": "name_match",
            "text": "betaine",
            "confidence": 1.0,
            "uuid": "ddbc43a4-9711-4d8b-ae0b-a734b89aca52",
            "name": "Betaine",
            "url": "https://haz-map.com/Agents/3916",
            "category": "agents"
          },
          {
            "type": "name_match",
            "text": "glycine",
            "confidence": 1.0,
            "uuid": "820f614c-594c-4165-b9ef-dbbd5cd636a8",
            "name": "Glycine",
            "url": "https://haz-map.com/Agents/14439",
            "category": "agents"
          }
        ]
      },
      "category": {
        "original_name": "Category",
        "value": "Quaternary Amines",
        "links": [],
        "cross_references": []
      },
      "description": {
        "original_name": "Description",
        "value": "Deliquescent solid; [Merck Index] Powder; [Alfa Aesar MSDS]",
        "links": [],
        "cross_references": []
      },
      "sourcesuses": {
        "original_name": "Sources/Uses",
        "value": "Occurs naturally in plants and animals; Used in the treatment of homocystinuria; [Merck Index] Used in soldering and resin curing fluxes, in organic synthesis, and in fisheries (promotes fish survival and aids transfer of salmon and trout from freshwater to seawater); [HSDB] \"Trimethylglycine (TMG) is an organic compound that occurs in plants. Trimethylglycine was the first betaine discovered; originally it was simply called betaine because, in the 19th century, it was discovered in sugar beets. Since then, many other betaines have been discovered, and the more specific name glycine betaine distinguishes this one.\" [Wikipedia]",
        "links": [],
        "cross_references": [
          {
            "type": "name_match",
            "text": "soldering",
            "confidence": 1.0,
            "uuid": "e21a4ba6-eeee-4d20-969a-9058507be5c1",
            "name": "Soldering",
            "url": "https://haz-map.com/Processes/93",
            "category": "processes"
          },
          {
            "type": "name_match",
            "text": "salmon",
            "confidence": 1.0,
            "uuid": "35bb620b-2f2a-4404-a8cb-b42c7a4d0c7e",
            "name": "Salmon",
            "url": "https://haz-map.com/Agents/1206",
            "category": "agents"
          },
          {
            "type": "name_match",
            "text": "betaine",
            "confidence": 1.0,
            "uuid": "ddbc43a4-9711-4d8b-ae0b-a734b89aca52",
            "name": "Betaine",
            "url": "https://haz-map.com/Agents/3916",
            "category": "agents"
          },
          {
            "type": "name_match",
            "text": "glycine",
            "confidence": 1.0,
            "uuid": "820f614c-594c-4165-b9ef-dbbd5cd636a8",
            "name": "Glycine",
            "url": "https://haz-map.com/Agents/14439",
            "category": "agents"
          },
          {
            "type": "name_match",
            "text": "water",
            "confidence": 1.0,
            "uuid": "6f2a7557-dfd2-49bc-9b4b-a93cd8e225d4",
            "name": "Water",
            "url": "https://haz-map.com/Agents/18668",
            "category": "agents"
          }
        ]
      },
      "comments": {
        "original_name": "Comments",
        "value": "No evidence of mutagenicity; [HSDB] Does not cross the placenta well in animal experiments; [REPROTOX] Not irritating to skin or eyes of rabbits; Not sensitizing in guinea pig maximization test; No evidence of mutagenicity; [IUCLID] May cause irritation; [Alfa Aesar MSDS]",
        "links": [],
        "cross_references": []
      },
      "biomedical_references": {
        "original_name": "Biomedical References",
        "value": "Search PubMed",
        "links": [
          {
            "text": "Search PubMed",
            "url": "https://www.ncbi.nlm.nih.gov/pubmed?term=Betaine%20AND%20human%5Bmh%5D%20AND%20%28Occupational%20Diseases%20%5Bmh%5D%20OR%20Occupational%20Exposure%20%5Bmh%5D%29%20%20AND%20%28tox%5Bsb%5D%29&cmd=search"
          }
        ],
        "cross_references": []
      }
    },
    "exposure_assessment": {
      "vapor_pressure": {
        "original_name": "Vapor Pressure",
        "value": "5.34E-07 mm Hg",
        "links": [],
        "cross_references": []
      }
    },
    "diseases_processes_and_activities_linked_to_this_agent": {
      "processes": {
        "original_name": "Processes",
        "value": "Industrial Processes with risk of exposure: Soldering",
        "links": [
          {
            "text": "Soldering",
            "url": "https://haz-map.com/Processes/93"
          }
        ],
        "cross_references": [
          {
            "type": "url_match",
            "text": "Soldering",
            "url": "https://haz-map.com/Processes/93",
            "confidence": 1.0,
            "uuid": "e21a4ba6-eeee-4d20-969a-9058507be5c1",
            "name": "Soldering",
            "category": "processes"
          }
        ]
      }
    }
  },
  "cross_references": [
    {
      "type": "url_match",
      "text": "Soldering",
      "url": "https://haz-map.com/Processes/93",
      "confidence": 1.0,
      "uuid": "e21a4ba6-eeee-4d20-969a-9058507be5c1",
      "name": "Soldering",
      "category": "processes"
    },
    {
      "type": "name_match",
      "text": "acetic acid",
      "confidence": 1.0,
      "uuid": "0905c6e4-df84-4895-a92d-658819239bbd",
      "name": "Acetic acid",
      "url": "https://haz-map.com/Agents/207",
      "category": "agents"
    },
    {
      "type": "name_match",
      "text": "bromine",
      "confidence": 1.0,
      "uuid": "9b659123-45fb-4e5c-b681-d3c1cec47df3",
      "name": "Bromine",
      "url": "https://haz-map.com/Agents/315",
      "category": "agents"
    },
    {
      "type": "name_match",
      "text": "ramin",
      "confidence": 1.0,
      "uuid": "f0fbb433-5eef-4a70-a208-66cc45df5768",
      "name": "Ramin",
      "url": "https://haz-map.com/Agents/962",
      "category": "agents"
    },
    {
      "type": "name_match",
      "text": "nitrogen",
      "confidence": 1.0,
      "uuid": "db5e90a9-06d2-45b9-8b81-f345a89b0bc0",
      "name": "Nitrogen",
      "url": "https://haz-map.com/Agents/1072",
      "category": "agents"
    },
    {
      "type": "name_match",
      "text": "salmon",
      "confidence": 1.0,
      "uuid": "35bb620b-2f2a-4404-a8cb-b42c7a4d0c7e",
      "name": "Salmon",
      "url": "https://haz-map.com/Agents/1206",
      "category": "agents"
    },
    {
      "type": "name_match",
      "text": "ammonium hydroxide",
      "confidence": 1.0,
      "uuid": "84e83569-93a7-465a-882a-d62d483984b8",
      "name": "Ammonium hydroxide",
      "url": "https://haz-map.com/Agents/1376",
      "category": "agents"
    },
    {
      "type": "name_match",
      "text": "betaine",
      "confidence": 1.0,
      "uuid": "ddbc43a4-9711-4d8b-ae0b-a734b89aca52",
      "name": "Betaine",
      "url": "https://haz-map.com/Agents/3916",
      "category": "agents"
    },
    {
      "type": "name_match",
      "text": "glycine",
      "confidence": 1.0,
      "uuid": "820f614c-594c-4165-b9ef-dbbd5cd636a8",
      "name": "Glycine",
      "url": "https://haz-map.com/Agents/14439",
      "category": "agents"
    },
    {
      "type": "name_match",
      "text": "water",
      "confidence": 1.0,
      "uuid": "6f2a7557-dfd2-49bc-9b4b-a93cd8e225d4",
      "name": "Water",
      "url": "https://haz-map.com/Agents/18668",
      "category": "agents"
    }
  ],
  "all_links": [
    {
      "text": "Search PubMed",
      "url": "https://www.ncbi.nlm.nih.gov/pubmed?term=Betaine%20AND%20human%5Bmh%5D%20AND%20%28Occupational%20Diseases%20%5Bmh%5D%20OR%20Occupational%20Exposure%20%5Bmh%5D%29%20%20AND%20%28tox%5Bsb%5D%29&cmd=search"
    },
    {
      "text": "Soldering",
      "url": "https://haz-map.com/Processes/93"
    }
  ]
}