{
  "metadata": {
    "scraped_from": "https://haz-map.com/Agents/2464",
    "entity_name": "1,2,3,4-Tetrahydroquinoline",
    "category": "agents",
    "uuid": "ddd4f8e4-7c92-476a-a8d0-f89b08f5bdf6",
    "scraped_at": "2025-07-23T19:13:22.510289"
  },
  "parsed_at": "2025-07-24T00:57:05.392346",
  "title": "1,2,3,4-Tetrahydroquinoline",
  "sections": {
    "general": {
      "agent_name": {
        "original_name": "Agent Name",
        "value": "1,2,3,4-Tetrahydroquinoline",
        "links": [],
        "cross_references": [
          {
            "type": "name_match",
            "text": "1,2,3,4-tetrahydroquinoline",
            "confidence": 1.0,
            "uuid": "ddd4f8e4-7c92-476a-a8d0-f89b08f5bdf6",
            "name": "1,2,3,4-Tetrahydroquinoline",
            "url": "https://haz-map.com/Agents/2464",
            "category": "agents"
          },
          {
            "type": "name_match",
            "text": "quinoline",
            "confidence": 1.0,
            "uuid": "ba9097a5-8299-4dfd-a74a-f179b7d465d1",
            "name": "Quinoline",
            "url": "https://haz-map.com/Agents/6937",
            "category": "agents"
          },
          {
            "type": "name_match",
            "text": "tetrahydroquinoline",
            "confidence": 1.0,
            "uuid": "56363e9e-6909-4c03-89a1-fbb909375c9f",
            "name": "Tetrahydroquinoline",
            "url": "https://haz-map.com/Agents/17440",
            "category": "agents"
          }
        ]
      },
      "cas_number": {
        "original_name": "CAS Number",
        "value": "635-46-1",
        "links": [],
        "cross_references": []
      },
      "formula": {
        "original_name": "Formula",
        "value": "C9-H11-N",
        "links": [],
        "cross_references": []
      },
      "major_category": {
        "original_name": "Major Category",
        "value": "Nitrogen Compounds",
        "links": [],
        "cross_references": [
          {
            "type": "name_match",
            "text": "nitrogen",
            "confidence": 1.0,
            "uuid": "db5e90a9-06d2-45b9-8b81-f345a89b0bc0",
            "name": "Nitrogen",
            "url": "https://haz-map.com/Agents/1072",
            "category": "agents"
          }
        ]
      },
      "synonyms": {
        "original_name": "Synonyms",
        "value": "Kusol; 1,2,3,4-Tetrahydroquinoline; Quinoline, 1,2,3,4-tetrahydro-; [ChemIDplus]",
        "links": [],
        "cross_references": [
          {
            "type": "name_match",
            "text": "1,2,3,4-tetrahydroquinoline",
            "confidence": 1.0,
            "uuid": "ddd4f8e4-7c92-476a-a8d0-f89b08f5bdf6",
            "name": "1,2,3,4-Tetrahydroquinoline",
            "url": "https://haz-map.com/Agents/2464",
            "category": "agents"
          },
          {
            "type": "name_match",
            "text": "quinoline",
            "confidence": 1.0,
            "uuid": "ba9097a5-8299-4dfd-a74a-f179b7d465d1",
            "name": "Quinoline",
            "url": "https://haz-map.com/Agents/6937",
            "category": "agents"
          },
          {
            "type": "name_match",
            "text": "tetrahydroquinoline",
            "confidence": 1.0,
            "uuid": "56363e9e-6909-4c03-89a1-fbb909375c9f",
            "name": "Tetrahydroquinoline",
            "url": "https://haz-map.com/Agents/17440",
            "category": "agents"
          }
        ]
      },
      "category": {
        "original_name": "Category",
        "value": "Quinolines",
        "links": [],
        "cross_references": [
          {
            "type": "name_match",
            "text": "quinoline",
            "confidence": 1.0,
            "uuid": "ba9097a5-8299-4dfd-a74a-f179b7d465d1",
            "name": "Quinoline",
            "url": "https://haz-map.com/Agents/6937",
            "category": "agents"
          }
        ]
      },
      "description": {
        "original_name": "Description",
        "value": "Yellow liquid; [MSDSonline]",
        "links": [],
        "cross_references": []
      },
      "comments": {
        "original_name": "Comments",
        "value": "A skin and respiratory tract irritant; May be absorbed through the skin; [MSDSonline] May be toxic to the CNS, cornea, retina, and optic nerve; May be absorbed by skin contact; Quinoline causes liver injury and liver cancer in animal experiments; See \"Quinoline.\"",
        "links": [],
        "cross_references": [
          {
            "type": "name_match",
            "text": "quinoline",
            "confidence": 1.0,
            "uuid": "ba9097a5-8299-4dfd-a74a-f179b7d465d1",
            "name": "Quinoline",
            "url": "https://haz-map.com/Agents/6937",
            "category": "agents"
          }
        ]
      },
      "biomedical_references": {
        "original_name": "Biomedical References",
        "value": "Search PubMed",
        "links": [
          {
            "text": "Search PubMed",
            "url": "https://www.ncbi.nlm.nih.gov/pubmed?term=1%2c2%2c3%2c4-Tetrahydroquinoline%20AND%20human%5Bmh%5D%20AND%20%28Occupational%20Diseases%20%5Bmh%5D%20OR%20Occupational%20Exposure%20%5Bmh%5D%29%20%20AND%20%28tox%5Bsb%5D%29&cmd=search"
          }
        ],
        "cross_references": []
      }
    },
    "exposure_assessment": {
      "vapor_pressure": {
        "original_name": "Vapor Pressure",
        "value": "0.046 mm Hg",
        "links": [],
        "cross_references": []
      },
      "explanatory_notes": {
        "original_name": "Explanatory Notes",
        "value": "mp = 9 deg C; bp = 113-117 deg C; [MSDSonline] VP from ChemIDplus;",
        "links": [],
        "cross_references": []
      }
    },
    "adverse_effects": {
      "neurotoxin": {
        "original_name": "Neurotoxin",
        "value": "Other CNS neurotoxin",
        "links": [],
        "cross_references": []
      },
      "hepatotoxin": {
        "original_name": "Hepatotoxin",
        "value": "Hepatoxic (a) from occupational exposure (secondary effect) or (b) in animal studies or in humans after ingestion",
        "links": [],
        "cross_references": []
      }
    },
    "diseases_processes_and_activities_linked_to_this_agent": {
      "other_information": {
        "original_name": "Other Information",
        "value": "No other related information on this agent was found.",
        "links": [],
        "cross_references": []
      }
    }
  },
  "cross_references": [
    {
      "type": "name_match",
      "text": "nitrogen",
      "confidence": 1.0,
      "uuid": "db5e90a9-06d2-45b9-8b81-f345a89b0bc0",
      "name": "Nitrogen",
      "url": "https://haz-map.com/Agents/1072",
      "category": "agents"
    },
    {
      "type": "name_match",
      "text": "1,2,3,4-tetrahydroquinoline",
      "confidence": 1.0,
      "uuid": "ddd4f8e4-7c92-476a-a8d0-f89b08f5bdf6",
      "name": "1,2,3,4-Tetrahydroquinoline",
      "url": "https://haz-map.com/Agents/2464",
      "category": "agents"
    },
    {
      "type": "name_match",
      "text": "quinoline",
      "confidence": 1.0,
      "uuid": "ba9097a5-8299-4dfd-a74a-f179b7d465d1",
      "name": "Quinoline",
      "url": "https://haz-map.com/Agents/6937",
      "category": "agents"
    },
    {
      "type": "name_match",
      "text": "tetrahydroquinoline",
      "confidence": 1.0,
      "uuid": "56363e9e-6909-4c03-89a1-fbb909375c9f",
      "name": "Tetrahydroquinoline",
      "url": "https://haz-map.com/Agents/17440",
      "category": "agents"
    }
  ],
  "all_links": [
    {
      "text": "Search PubMed",
      "url": "https://www.ncbi.nlm.nih.gov/pubmed?term=1%2c2%2c3%2c4-Tetrahydroquinoline%20AND%20human%5Bmh%5D%20AND%20%28Occupational%20Diseases%20%5Bmh%5D%20OR%20Occupational%20Exposure%20%5Bmh%5D%29%20%20AND%20%28tox%5Bsb%5D%29&cmd=search"
    }
  ]
}