{
  "metadata": {
    "scraped_from": "https://haz-map.com/Agents/65",
    "entity_name": "Thallium",
    "category": "agents",
    "uuid": "ddeb9a79-c1f4-495f-af32-74192ebefba7",
    "scraped_at": "2025-07-23T18:34:19.616063"
  },
  "parsed_at": "2025-07-24T01:10:48.612548",
  "title": "Thallium",
  "sections": {
    "general": {
      "agent_name": {
        "original_name": "Agent Name",
        "value": "Thallium",
        "links": [],
        "cross_references": [
          {
            "type": "name_match",
            "text": "thallium",
            "confidence": 1.0,
            "uuid": "ddeb9a79-c1f4-495f-af32-74192ebefba7",
            "name": "Thallium",
            "url": "https://haz-map.com/Agents/65",
            "category": "agents"
          }
        ]
      },
      "alternative_name": {
        "original_name": "Alternative Name",
        "value": "Thallium and soluble compounds",
        "links": [],
        "cross_references": [
          {
            "type": "name_match",
            "text": "thallium",
            "confidence": 1.0,
            "uuid": "ddeb9a79-c1f4-495f-af32-74192ebefba7",
            "name": "Thallium",
            "url": "https://haz-map.com/Agents/65",
            "category": "agents"
          }
        ]
      },
      "cas_number": {
        "original_name": "CAS Number",
        "value": "7440-28-0; varies",
        "links": [],
        "cross_references": []
      },
      "formula": {
        "original_name": "Formula",
        "value": "Tl, varies",
        "links": [],
        "cross_references": []
      },
      "major_category": {
        "original_name": "Major Category",
        "value": "Metals",
        "links": [],
        "cross_references": []
      },
      "synonyms": {
        "original_name": "Synonyms",
        "value": "Thallium, elemental; Thallium metal; Thallium compouinds; Thallous oxide; Thallium nitrate; Thallium acetate; Thallium sulfate; Thallium carbonate; [ACGIH] Thallium and soluble compounds;",
        "links": [],
        "cross_references": [
          {
            "type": "name_match",
            "text": "thallium",
            "confidence": 1.0,
            "uuid": "ddeb9a79-c1f4-495f-af32-74192ebefba7",
            "name": "Thallium",
            "url": "https://haz-map.com/Agents/65",
            "category": "agents"
          },
          {
            "type": "name_match",
            "text": "carbon",
            "confidence": 1.0,
            "uuid": "b53f8815-ee80-40ef-b4aa-3b000e17dab5",
            "name": "Carbon",
            "url": "https://haz-map.com/Agents/1891",
            "category": "agents"
          },
          {
            "type": "name_match",
            "text": "thallium carbonate",
            "confidence": 1.0,
            "uuid": "ebec2eca-b5c5-435e-9f06-e230ed4b50c3",
            "name": "Thallium carbonate",
            "url": "https://haz-map.com/Agents/5031",
            "category": "agents"
          },
          {
            "type": "name_match",
            "text": "thallium sulfate",
            "confidence": 1.0,
            "uuid": "b5e912bc-8bc8-4896-936c-1a8425161724",
            "name": "Thallium sulfate",
            "url": "https://haz-map.com/Agents/5032",
            "category": "agents"
          }
        ]
      },
      "category": {
        "original_name": "Category",
        "value": "Metals, Inorganic Compounds",
        "links": [],
        "cross_references": [
          {
            "type": "fuzzy_match",
            "text": "organic compounds",
            "matched_name": "Tin, organic compounds",
            "confidence": 0.8196969696969697,
            "uuid": "e027d413-8869-4308-9eb2-27d768b011ea",
            "category": "agents",
            "url": "https://haz-map.com/Agents/656"
          },
          {
            "type": "fuzzy_match",
            "text": "inorganic compounds",
            "matched_name": "Tin and inorganic compounds",
            "confidence": 0.8161375661375662,
            "uuid": "f9a072ab-0fbc-477a-88a2-1389e762d773",
            "category": "agents",
            "url": "https://haz-map.com/Agents/42"
          },
          {
            "type": "fuzzy_match",
            "text": "inorganic compounds",
            "matched_name": "Mercury, inorganic compounds",
            "confidence": 0.7455357142857143,
            "uuid": "4b03e512-ea73-428b-aa40-cfb4b29e3cd6",
            "category": "agents",
            "url": "https://haz-map.com/Agents/1954"
          }
        ]
      },
      "description": {
        "original_name": "Description",
        "value": "Appearance and odor vary depending upon the specific soluble thallium compound. [NIOSH]",
        "links": [],
        "cross_references": [
          {
            "type": "name_match",
            "text": "thallium",
            "confidence": 1.0,
            "uuid": "ddeb9a79-c1f4-495f-af32-74192ebefba7",
            "name": "Thallium",
            "url": "https://haz-map.com/Agents/65",
            "category": "agents"
          }
        ]
      },
      "sourcesuses": {
        "original_name": "Sources/Uses",
        "value": "Coal-burning and smelting emissions are the major sources of release of thallium into the environment. [ATSDR ToxProfiles] METALLURGY: Alloy production; MANUFACTURING: Rodenticides, Electronic components, Optical lenses, Costume jewelry; USING OR DISPOSING: Grind or machine thallium-containing alloys; Clean fossil fuel furnaces or flues;",
        "links": [],
        "cross_references": [
          {
            "type": "name_match",
            "text": "burn",
            "confidence": 1.0,
            "uuid": "63665de5-6376-4918-8dbf-4c10c4d63837",
            "name": "burn",
            "url": "https://haz-map.com/Findings/204",
            "category": "findings"
          },
          {
            "type": "name_match",
            "text": "thallium",
            "confidence": 1.0,
            "uuid": "ddeb9a79-c1f4-495f-af32-74192ebefba7",
            "name": "Thallium",
            "url": "https://haz-map.com/Agents/65",
            "category": "agents"
          },
          {
            "type": "name_match",
            "text": "iron",
            "confidence": 1.0,
            "uuid": "a6101f16-ec31-4d6c-af41-cbdbda5b1c7c",
            "name": "Iron",
            "url": "https://haz-map.com/Agents/1993",
            "category": "agents"
          },
          {
            "type": "name_match",
            "text": "alloys",
            "confidence": 1.0,
            "uuid": "9666ccee-2fab-426c-b33d-4f9032422585",
            "name": "ALLOYS",
            "url": "https://haz-map.com/Agents/2201",
            "category": "agents"
          }
        ]
      },
      "comments": {
        "original_name": "Comments",
        "value": "Chronic poisoning can cause peripheral neuropathy, liver injury, and hair loss (alopecia). Occupational exposure may occur through alloy production, machining thallium-containing alloys, or manufacturing of rodenticides, electronic components, optical lenses, or costume jewelry. It is used as an alloy with mercury to make switches in the semiconductor industry. \"A urine thallium concentration of 100 ug/L corresponds to a 40-hour/week exposure to 0.1 mg/m3.\" Most reported cases of thallium poisoning follow ingestion. Occupational cases have been reported after skin absorption. [ACGIH] Thallous acetate and thallic chloride are slightly more toxic than the less soluble thallic oxide and thallous iodide. Symptoms are usually delayed for 12-14 hours after ingestion and include gastroenteritis (sometimes hemorrhagic) and shock. Chronic symptoms appear after 2-4 weeks in patients who survive--painful paresthesias and later hair loss. Urinary thallium levels of >20 mcg/L suggests excessive exposure. Thallium is radiopaque and may be detected in plain x-rays. [Olson, p. 433-4] After thallium poisoning by ingestion, patients may develop acute renal failure. [Rosenstock, p. 575] \"The toxicological significance of thallium is mainly restricted to some inorganic and organic salts of Tl+ such as TlCl, Tl2SO4 (used as a rodenticide), and thallium acetate. Intoxications by elemental thallium are comparatively rare.\" [Ullmann] Cases of occupational poisoning from skin contact in workers manufacturing rodenticides were described in the 1950s. Symptoms included vague ill health, paresthesias, and some hair loss. [Nordberg, p. 1236]",
        "links": [],
        "cross_references": [
          {
            "type": "name_match",
            "text": "paresthesia",
            "confidence": 1.0,
            "uuid": "cf0020a9-92ed-4a41-8058-60a543f49836",
            "name": "paresthesia",
            "url": "https://haz-map.com/Findings/26",
            "category": "findings"
          },
          {
            "type": "name_match",
            "text": "shock",
            "confidence": 1.0,
            "uuid": "184088a3-33cc-4d64-b02e-bfb90ba4cbe5",
            "name": "shock",
            "url": "https://haz-map.com/Findings/76",
            "category": "findings"
          },
          {
            "type": "name_match",
            "text": "neuropathy",
            "confidence": 1.0,
            "uuid": "8708368f-f68b-4a51-b1ea-01982070ed28",
            "name": "neuropathy",
            "url": "https://haz-map.com/Findings/85",
            "category": "findings"
          },
          {
            "type": "name_match",
            "text": "mercury",
            "confidence": 1.0,
            "uuid": "1ccd7713-d752-4728-b246-fed6633c4405",
            "name": "Mercury",
            "url": "https://haz-map.com/Agents/6",
            "category": "agents"
          },
          {
            "type": "name_match",
            "text": "thallium",
            "confidence": 1.0,
            "uuid": "ddeb9a79-c1f4-495f-af32-74192ebefba7",
            "name": "Thallium",
            "url": "https://haz-map.com/Agents/65",
            "category": "agents"
          },
          {
            "type": "name_match",
            "text": "ht",
            "confidence": 1.0,
            "uuid": "764df367-8d53-4a11-81a2-31ccfe122a8d",
            "name": "HT",
            "url": "https://haz-map.com/Agents/2168",
            "category": "agents"
          },
          {
            "type": "name_match",
            "text": "alloys",
            "confidence": 1.0,
            "uuid": "9666ccee-2fab-426c-b33d-4f9032422585",
            "name": "ALLOYS",
            "url": "https://haz-map.com/Agents/2201",
            "category": "agents"
          },
          {
            "type": "name_match",
            "text": "thallic oxide",
            "confidence": 1.0,
            "uuid": "a53b7b5e-08ab-4c5b-9893-50d20dceeef0",
            "name": "Thallic oxide",
            "url": "https://haz-map.com/Agents/7384",
            "category": "agents"
          }
        ]
      },
      "restricted": {
        "original_name": "Restricted",
        "value": "Thallium rodenticides were banned in the U.S. in 1972.",
        "links": [],
        "cross_references": [
          {
            "type": "name_match",
            "text": "thallium",
            "confidence": 1.0,
            "uuid": "ddeb9a79-c1f4-495f-af32-74192ebefba7",
            "name": "Thallium",
            "url": "https://haz-map.com/Agents/65",
            "category": "agents"
          }
        ]
      },
      "biomedical_references": {
        "original_name": "Biomedical References",
        "value": "Search PubMed",
        "links": [
          {
            "text": "Search PubMed",
            "url": "https://www.ncbi.nlm.nih.gov/pubmed?term=Thallium%20AND%20human%5Bmh%5D%20AND%20%28Occupational%20Diseases%20%5Bmh%5D%20OR%20Occupational%20Exposure%20%5Bmh%5D%29%20%20AND%20%28tox%5Bsb%5D%29&cmd=search"
          }
        ],
        "cross_references": []
      }
    },
    "exposure_assessment": {
      "skin_designation_acgih": {
        "original_name": "Skin Designation (ACGIH)",
        "value": "Yes",
        "links": [],
        "cross_references": []
      },
      "bioaccumulates": {
        "original_name": "Bioaccumulates",
        "value": "Yes",
        "links": [],
        "cross_references": []
      },
      "tlv_acgih": {
        "original_name": "TLV (ACGIH)",
        "value": "0.02 mg/m3, inhalable fraction, as Tl (Tl and soluble cmpnds)",
        "links": [],
        "cross_references": []
      },
      "pel_osha": {
        "original_name": "PEL (OSHA)",
        "value": "0.1 mg/m3, as Tl (Tl and soluble cmpnds)",
        "links": [],
        "cross_references": []
      },
      "idlh_niosh": {
        "original_name": "IDLH (NIOSH)",
        "value": "15 mg/m3, as Tl (soluble cmpnds)",
        "links": [],
        "cross_references": []
      },
      "excerpts_from_documentation_for_idlhs": {
        "original_name": "Excerpts from Documentation for IDLHs",
        "value": "Human data: Lethal oral doses ranging from 0.9 to 9.4 mg/kg have been reported [Gekkan Yakuji 1980; Tanaka et al. 1978; Venugopal and Luckey 1978; Yakkyoku 1977]. [Note: An oral dose ranging from 0.9 to 9.4 mg/kg is equivalent to a 70-kg worker being exposed to concentrations ranging from about 40 to 450 mg/m3 for 30 minutes, assuming a breathing rate of 50 liters per minute and 100% absorption.]",
        "links": [],
        "cross_references": []
      },
      "explanatory_notes": {
        "original_name": "Explanatory Notes",
        "value": "Melting Point = 577 degrees F;",
        "links": [],
        "cross_references": []
      },
      "half_life": {
        "original_name": "Half Life",
        "value": "Whole body: 22 days; [TDR, p. 1129]",
        "links": [],
        "cross_references": []
      },
      "reference_link_2": {
        "original_name": "Reference Link #2",
        "value": "ATSDR - ToxFAQs - Thallium",
        "links": [
          {
            "text": "ATSDR - ToxFAQs - Thallium",
            "url": "http://www.atsdr.cdc.gov/toxfaqs/tf.asp?id=308&tid=49"
          }
        ],
        "cross_references": [
          {
            "type": "name_match",
            "text": "thallium",
            "confidence": 1.0,
            "uuid": "ddeb9a79-c1f4-495f-af32-74192ebefba7",
            "name": "Thallium",
            "url": "https://haz-map.com/Agents/65",
            "category": "agents"
          }
        ]
      }
    },
    "adverse_effects": {
      "neurotoxin": {
        "original_name": "Neurotoxin",
        "value": "Sensorimotor",
        "links": [],
        "cross_references": []
      },
      "hepatotoxin": {
        "original_name": "Hepatotoxin",
        "value": "Hepatoxic (a) from occupational exposure (secondary effect) or (b) in animal studies or in humans after ingestion",
        "links": [],
        "cross_references": []
      },
      "nephrotoxin": {
        "original_name": "Nephrotoxin",
        "value": "Yes",
        "links": [],
        "cross_references": []
      }
    },
    "diseases_processes_and_activities_linked_to_this_agent": {
      "diseases": {
        "original_name": "Diseases",
        "value": "Occupational diseases associated with exposure to this agent: Neuropathy, toxic",
        "links": [
          {
            "text": "Neuropathy, toxic",
            "url": "https://haz-map.com/Diseases/333"
          }
        ],
        "cross_references": [
          {
            "type": "url_match",
            "text": "Neuropathy, toxic",
            "url": "https://haz-map.com/Diseases/333",
            "confidence": 1.0,
            "uuid": "a0035ee6-c7b6-4237-adc0-da1f1e13431f",
            "name": "Neuropathy, toxic",
            "category": "diseases"
          },
          {
            "type": "name_match",
            "text": "neuropathy",
            "confidence": 1.0,
            "uuid": "8708368f-f68b-4a51-b1ea-01982070ed28",
            "name": "neuropathy",
            "url": "https://haz-map.com/Findings/85",
            "category": "findings"
          }
        ]
      },
      "processes": {
        "original_name": "Processes",
        "value": "Industrial Processes with risk of exposure: Cleaning Furnaces or Flues Metal Extraction and Refining Metal Machining Semiconductor Manufacturing",
        "links": [
          {
            "text": "Cleaning Furnaces or Flues",
            "url": "https://haz-map.com/Processes/227"
          },
          {
            "text": "Metal Extraction and Refining",
            "url": "https://haz-map.com/Processes/261"
          },
          {
            "text": "Metal Machining",
            "url": "https://haz-map.com/Processes/35"
          },
          {
            "text": "Semiconductor Manufacturing",
            "url": "https://haz-map.com/Processes/97"
          }
        ],
        "cross_references": [
          {
            "type": "url_match",
            "text": "Cleaning Furnaces or Flues",
            "url": "https://haz-map.com/Processes/227",
            "confidence": 1.0,
            "uuid": "d09603d0-df6e-4918-b7f0-58b25fa1ba4d",
            "name": "Cleaning Furnaces or Flues",
            "category": "processes"
          },
          {
            "type": "url_match",
            "text": "Metal Machining",
            "url": "https://haz-map.com/Processes/35",
            "confidence": 1.0,
            "uuid": "742028ba-ba09-4d7c-bb80-f70af1454300",
            "name": "Metal Machining",
            "category": "processes"
          },
          {
            "type": "url_match",
            "text": "Semiconductor Manufacturing",
            "url": "https://haz-map.com/Processes/97",
            "confidence": 1.0,
            "uuid": "a1adedb7-a724-4539-9aff-c43b42706b89",
            "name": "Semiconductor Manufacturing",
            "category": "processes"
          }
        ]
      }
    }
  },
  "cross_references": [
    {
      "type": "url_match",
      "text": "Neuropathy, toxic",
      "url": "https://haz-map.com/Diseases/333",
      "confidence": 1.0,
      "uuid": "a0035ee6-c7b6-4237-adc0-da1f1e13431f",
      "name": "Neuropathy, toxic",
      "category": "diseases"
    },
    {
      "type": "url_match",
      "text": "Cleaning Furnaces or Flues",
      "url": "https://haz-map.com/Processes/227",
      "confidence": 1.0,
      "uuid": "d09603d0-df6e-4918-b7f0-58b25fa1ba4d",
      "name": "Cleaning Furnaces or Flues",
      "category": "processes"
    },
    {
      "type": "url_match",
      "text": "Metal Machining",
      "url": "https://haz-map.com/Processes/35",
      "confidence": 1.0,
      "uuid": "742028ba-ba09-4d7c-bb80-f70af1454300",
      "name": "Metal Machining",
      "category": "processes"
    },
    {
      "type": "url_match",
      "text": "Semiconductor Manufacturing",
      "url": "https://haz-map.com/Processes/97",
      "confidence": 1.0,
      "uuid": "a1adedb7-a724-4539-9aff-c43b42706b89",
      "name": "Semiconductor Manufacturing",
      "category": "processes"
    },
    {
      "type": "name_match",
      "text": "paresthesia",
      "confidence": 1.0,
      "uuid": "cf0020a9-92ed-4a41-8058-60a543f49836",
      "name": "paresthesia",
      "url": "https://haz-map.com/Findings/26",
      "category": "findings"
    },
    {
      "type": "name_match",
      "text": "shock",
      "confidence": 1.0,
      "uuid": "184088a3-33cc-4d64-b02e-bfb90ba4cbe5",
      "name": "shock",
      "url": "https://haz-map.com/Findings/76",
      "category": "findings"
    },
    {
      "type": "name_match",
      "text": "neuropathy",
      "confidence": 1.0,
      "uuid": "8708368f-f68b-4a51-b1ea-01982070ed28",
      "name": "neuropathy",
      "url": "https://haz-map.com/Findings/85",
      "category": "findings"
    },
    {
      "type": "name_match",
      "text": "burn",
      "confidence": 1.0,
      "uuid": "63665de5-6376-4918-8dbf-4c10c4d63837",
      "name": "burn",
      "url": "https://haz-map.com/Findings/204",
      "category": "findings"
    },
    {
      "type": "name_match",
      "text": "mercury",
      "confidence": 1.0,
      "uuid": "1ccd7713-d752-4728-b246-fed6633c4405",
      "name": "Mercury",
      "url": "https://haz-map.com/Agents/6",
      "category": "agents"
    },
    {
      "type": "name_match",
      "text": "thallium",
      "confidence": 1.0,
      "uuid": "ddeb9a79-c1f4-495f-af32-74192ebefba7",
      "name": "Thallium",
      "url": "https://haz-map.com/Agents/65",
      "category": "agents"
    },
    {
      "type": "name_match",
      "text": "carbon",
      "confidence": 1.0,
      "uuid": "b53f8815-ee80-40ef-b4aa-3b000e17dab5",
      "name": "Carbon",
      "url": "https://haz-map.com/Agents/1891",
      "category": "agents"
    },
    {
      "type": "name_match",
      "text": "iron",
      "confidence": 1.0,
      "uuid": "a6101f16-ec31-4d6c-af41-cbdbda5b1c7c",
      "name": "Iron",
      "url": "https://haz-map.com/Agents/1993",
      "category": "agents"
    },
    {
      "type": "name_match",
      "text": "ht",
      "confidence": 1.0,
      "uuid": "764df367-8d53-4a11-81a2-31ccfe122a8d",
      "name": "HT",
      "url": "https://haz-map.com/Agents/2168",
      "category": "agents"
    },
    {
      "type": "name_match",
      "text": "alloys",
      "confidence": 1.0,
      "uuid": "9666ccee-2fab-426c-b33d-4f9032422585",
      "name": "ALLOYS",
      "url": "https://haz-map.com/Agents/2201",
      "category": "agents"
    },
    {
      "type": "name_match",
      "text": "thallium carbonate",
      "confidence": 1.0,
      "uuid": "ebec2eca-b5c5-435e-9f06-e230ed4b50c3",
      "name": "Thallium carbonate",
      "url": "https://haz-map.com/Agents/5031",
      "category": "agents"
    },
    {
      "type": "name_match",
      "text": "thallium sulfate",
      "confidence": 1.0,
      "uuid": "b5e912bc-8bc8-4896-936c-1a8425161724",
      "name": "Thallium sulfate",
      "url": "https://haz-map.com/Agents/5032",
      "category": "agents"
    },
    {
      "type": "name_match",
      "text": "thallic oxide",
      "confidence": 1.0,
      "uuid": "a53b7b5e-08ab-4c5b-9893-50d20dceeef0",
      "name": "Thallic oxide",
      "url": "https://haz-map.com/Agents/7384",
      "category": "agents"
    },
    {
      "type": "fuzzy_match",
      "text": "organic compounds",
      "matched_name": "Tin, organic compounds",
      "confidence": 0.8196969696969697,
      "uuid": "e027d413-8869-4308-9eb2-27d768b011ea",
      "category": "agents",
      "url": "https://haz-map.com/Agents/656"
    },
    {
      "type": "fuzzy_match",
      "text": "inorganic compounds",
      "matched_name": "Tin and inorganic compounds",
      "confidence": 0.8161375661375662,
      "uuid": "f9a072ab-0fbc-477a-88a2-1389e762d773",
      "category": "agents",
      "url": "https://haz-map.com/Agents/42"
    },
    {
      "type": "fuzzy_match",
      "text": "inorganic compounds",
      "matched_name": "Mercury, inorganic compounds",
      "confidence": 0.7455357142857143,
      "uuid": "4b03e512-ea73-428b-aa40-cfb4b29e3cd6",
      "category": "agents",
      "url": "https://haz-map.com/Agents/1954"
    }
  ],
  "all_links": [
    {
      "text": "Search PubMed",
      "url": "https://www.ncbi.nlm.nih.gov/pubmed?term=Thallium%20AND%20human%5Bmh%5D%20AND%20%28Occupational%20Diseases%20%5Bmh%5D%20OR%20Occupational%20Exposure%20%5Bmh%5D%29%20%20AND%20%28tox%5Bsb%5D%29&cmd=search"
    },
    {
      "text": "ATSDR - ToxFAQs - Thallium",
      "url": "http://www.atsdr.cdc.gov/toxfaqs/tf.asp?id=308&tid=49"
    },
    {
      "text": "Neuropathy, toxic",
      "url": "https://haz-map.com/Diseases/333"
    },
    {
      "text": "Cleaning Furnaces or Flues",
      "url": "https://haz-map.com/Processes/227"
    },
    {
      "text": "Metal Extraction and Refining",
      "url": "https://haz-map.com/Processes/261"
    },
    {
      "text": "Metal Machining",
      "url": "https://haz-map.com/Processes/35"
    },
    {
      "text": "Semiconductor Manufacturing",
      "url": "https://haz-map.com/Processes/97"
    }
  ]
}