{
  "metadata": {
    "scraped_from": "https://haz-map.com/Agents/3835",
    "entity_name": "(2-Bromoethyl)benzene",
    "category": "agents",
    "uuid": "ddf4c60f-e447-4a39-9b4c-dca1a8c8569a",
    "scraped_at": "2025-07-23T19:33:34.860612"
  },
  "parsed_at": "2025-07-24T01:06:57.893276",
  "title": "(2-Bromoethyl)benzene",
  "sections": {
    "general": {
      "agent_name": {
        "original_name": "Agent Name",
        "value": "(2-Bromoethyl)benzene",
        "links": [],
        "cross_references": [
          {
            "type": "name_match",
            "text": "benzene",
            "confidence": 1.0,
            "uuid": "b05124de-5f34-4c14-8f04-ccb20c3780d9",
            "name": "Benzene",
            "url": "https://haz-map.com/Agents/5",
            "category": "agents"
          },
          {
            "type": "name_match",
            "text": "(2-bromoethyl)benzene",
            "confidence": 1.0,
            "uuid": "ddf4c60f-e447-4a39-9b4c-dca1a8c8569a",
            "name": "(2-Bromoethyl)benzene",
            "url": "https://haz-map.com/Agents/3835",
            "category": "agents"
          }
        ]
      },
      "cas_number": {
        "original_name": "CAS Number",
        "value": "103-63-9",
        "links": [],
        "cross_references": []
      },
      "formula": {
        "original_name": "Formula",
        "value": "C8-H9-Br",
        "links": [],
        "cross_references": []
      },
      "major_category": {
        "original_name": "Major Category",
        "value": "Other Classes",
        "links": [],
        "cross_references": []
      },
      "synonyms": {
        "original_name": "Synonyms",
        "value": "1-Bromo-2-phenylethane; 2-Phenethyl bromide; 2-Phenyl-1-bromoethane; 2-Phenylethyl bromide; Benzene, (2-bromoethyl)-; Phenethyl bromide; Phenylethyl bromide; Phenylethyl bromide (VAN); beta-Bromoethylbenzene; [ChemIDplus]",
        "links": [],
        "cross_references": [
          {
            "type": "name_match",
            "text": "benzene",
            "confidence": 1.0,
            "uuid": "b05124de-5f34-4c14-8f04-ccb20c3780d9",
            "name": "Benzene",
            "url": "https://haz-map.com/Agents/5",
            "category": "agents"
          },
          {
            "type": "name_match",
            "text": "ethyl bromide",
            "confidence": 1.0,
            "uuid": "8557f04a-68af-446b-b2c1-db6c7dca22cc",
            "name": "Ethyl bromide",
            "url": "https://haz-map.com/Agents/483",
            "category": "agents"
          },
          {
            "type": "name_match",
            "text": "ethane",
            "confidence": 1.0,
            "uuid": "5162cc8c-dfb9-4060-81ac-38a8cec7f9dd",
            "name": "Ethane",
            "url": "https://haz-map.com/Agents/1075",
            "category": "agents"
          }
        ]
      },
      "category": {
        "original_name": "Category",
        "value": "Halogenated Monoaromatics",
        "links": [],
        "cross_references": []
      },
      "description": {
        "original_name": "Description",
        "value": "Colorless liquid; [MSDSonline]",
        "links": [],
        "cross_references": []
      },
      "sourcesuses": {
        "original_name": "Sources/Uses",
        "value": "Used as a starting material for the production of various beta-phenethyl derivatives, pharmaceuticals, fragrances, and other chemicals; [HSDB]",
        "links": [],
        "cross_references": [
          {
            "type": "name_match",
            "text": "mica",
            "confidence": 1.0,
            "uuid": "433f26f1-c399-4596-b179-ce3843cfd465",
            "name": "Mica",
            "url": "https://haz-map.com/Agents/621",
            "category": "agents"
          },
          {
            "type": "name_match",
            "text": "pharmaceuticals",
            "confidence": 1.0,
            "uuid": "713c3c30-b67e-4a2f-a90f-b32f8a306332",
            "name": "PHARMACEUTICALS",
            "url": "https://haz-map.com/Agents/1000",
            "category": "agents"
          }
        ]
      },
      "comments": {
        "original_name": "Comments",
        "value": "Causes somnolence in lethal-dose feeding studies of rats; [RTECS] Effects observed in rats that died during seven day feeding study include reddened adrenal glands, hemorrhagic thymus glands, and intestinal abnormalities; [HSDB] An irritant; [MSDSonline] See \"Benzyl bromide.\"",
        "links": [],
        "cross_references": [
          {
            "type": "name_match",
            "text": "benzyl bromide",
            "confidence": 1.0,
            "uuid": "23b5eb4a-392f-4063-b325-5a6b411fcd4e",
            "name": "Benzyl bromide",
            "url": "https://haz-map.com/Agents/2646",
            "category": "agents"
          },
          {
            "type": "name_match",
            "text": "dde",
            "confidence": 1.0,
            "uuid": "88506fb4-e7b1-4bde-a283-917057f67fc2",
            "name": "DDE",
            "url": "https://haz-map.com/Agents/4656",
            "category": "agents"
          }
        ]
      },
      "biomedical_references": {
        "original_name": "Biomedical References",
        "value": "Search PubMed",
        "links": [
          {
            "text": "Search PubMed",
            "url": "https://www.ncbi.nlm.nih.gov/pubmed?term=(2-Bromoethyl)benzene%20AND%20human%5Bmh%5D%20AND%20%28Occupational%20Diseases%20%5Bmh%5D%20OR%20Occupational%20Exposure%20%5Bmh%5D%29%20%20AND%20%28tox%5Bsb%5D%29&cmd=search"
          }
        ],
        "cross_references": []
      }
    },
    "exposure_assessment": {
      "vapor_pressure": {
        "original_name": "Vapor Pressure",
        "value": "0.245 mm Hg",
        "links": [],
        "cross_references": []
      },
      "explanatory_notes": {
        "original_name": "Explanatory Notes",
        "value": "VP from ChemIDplus;",
        "links": [],
        "cross_references": []
      }
    },
    "diseases_processes_and_activities_linked_to_this_agent": {
      "other_information": {
        "original_name": "Other Information",
        "value": "No other related information on this agent was found.",
        "links": [],
        "cross_references": []
      }
    }
  },
  "cross_references": [
    {
      "type": "name_match",
      "text": "benzene",
      "confidence": 1.0,
      "uuid": "b05124de-5f34-4c14-8f04-ccb20c3780d9",
      "name": "Benzene",
      "url": "https://haz-map.com/Agents/5",
      "category": "agents"
    },
    {
      "type": "name_match",
      "text": "ethyl bromide",
      "confidence": 1.0,
      "uuid": "8557f04a-68af-446b-b2c1-db6c7dca22cc",
      "name": "Ethyl bromide",
      "url": "https://haz-map.com/Agents/483",
      "category": "agents"
    },
    {
      "type": "name_match",
      "text": "mica",
      "confidence": 1.0,
      "uuid": "433f26f1-c399-4596-b179-ce3843cfd465",
      "name": "Mica",
      "url": "https://haz-map.com/Agents/621",
      "category": "agents"
    },
    {
      "type": "name_match",
      "text": "pharmaceuticals",
      "confidence": 1.0,
      "uuid": "713c3c30-b67e-4a2f-a90f-b32f8a306332",
      "name": "PHARMACEUTICALS",
      "url": "https://haz-map.com/Agents/1000",
      "category": "agents"
    },
    {
      "type": "name_match",
      "text": "ethane",
      "confidence": 1.0,
      "uuid": "5162cc8c-dfb9-4060-81ac-38a8cec7f9dd",
      "name": "Ethane",
      "url": "https://haz-map.com/Agents/1075",
      "category": "agents"
    },
    {
      "type": "name_match",
      "text": "benzyl bromide",
      "confidence": 1.0,
      "uuid": "23b5eb4a-392f-4063-b325-5a6b411fcd4e",
      "name": "Benzyl bromide",
      "url": "https://haz-map.com/Agents/2646",
      "category": "agents"
    },
    {
      "type": "name_match",
      "text": "(2-bromoethyl)benzene",
      "confidence": 1.0,
      "uuid": "ddf4c60f-e447-4a39-9b4c-dca1a8c8569a",
      "name": "(2-Bromoethyl)benzene",
      "url": "https://haz-map.com/Agents/3835",
      "category": "agents"
    },
    {
      "type": "name_match",
      "text": "dde",
      "confidence": 1.0,
      "uuid": "88506fb4-e7b1-4bde-a283-917057f67fc2",
      "name": "DDE",
      "url": "https://haz-map.com/Agents/4656",
      "category": "agents"
    }
  ],
  "all_links": [
    {
      "text": "Search PubMed",
      "url": "https://www.ncbi.nlm.nih.gov/pubmed?term=(2-Bromoethyl)benzene%20AND%20human%5Bmh%5D%20AND%20%28Occupational%20Diseases%20%5Bmh%5D%20OR%20Occupational%20Exposure%20%5Bmh%5D%29%20%20AND%20%28tox%5Bsb%5D%29&cmd=search"
    }
  ]
}