{
  "metadata": {
    "scraped_from": "https://haz-map.com/Agents/1784",
    "entity_name": "Tricresyl phosphate (mixed isomers)",
    "category": "agents",
    "uuid": "de49b7a7-e1be-4839-a4be-574d9aaf7677",
    "scraped_at": "2025-07-23T19:04:49.780336"
  },
  "parsed_at": "2025-07-24T01:04:06.000116",
  "title": "Tricresyl phosphate (mixed isomers)",
  "sections": {
    "general": {
      "agent_name": {
        "original_name": "Agent Name",
        "value": "Tricresyl phosphate (mixed isomers)",
        "links": [],
        "cross_references": [
          {
            "type": "name_match",
            "text": "tricresyl phosphate (mixed isomers)",
            "confidence": 1.0,
            "uuid": "de49b7a7-e1be-4839-a4be-574d9aaf7677",
            "name": "Tricresyl phosphate (mixed isomers)",
            "url": "https://haz-map.com/Agents/1784",
            "category": "agents"
          }
        ]
      },
      "cas_number": {
        "original_name": "CAS Number",
        "value": "1330-78-5",
        "links": [],
        "cross_references": []
      },
      "formula": {
        "original_name": "Formula",
        "value": "C21-H21-O4-P",
        "links": [],
        "cross_references": []
      },
      "major_category": {
        "original_name": "Major Category",
        "value": "Other Classes",
        "links": [],
        "cross_references": []
      },
      "synonyms": {
        "original_name": "Synonyms",
        "value": "Imol S-140; Phosphoric acid, tris(methylphenyl) ester; TCP; Tricresyl phosphate; Tritolyl phosphate; Celluflex 179C; Cresyl phosphate; Disflamoll TKP; Durad; Flexol Plasticizer TCP; Fyrquel 150; IMOL S 140; Kronitex; Lindol; Phosflex 179A; Phosphate de tricresyle [French]; TCP; Triorthocresyl phosphate; Tricresilfosfati [Italian]; Tricresyl phosphate; Tricresylfosfaten [Dutch]; Trikresylfosfat [Czech]; Trikresylphosphate [German]; Tris(tolyloxy)phosphine oxide; Tritolyl phosphate; Tritolylfosfat [Czech]; UN2574; [ChemIDplus]",
        "links": [],
        "cross_references": [
          {
            "type": "name_match",
            "text": "phosphine",
            "confidence": 1.0,
            "uuid": "b9783685-a2f4-44ef-8b65-6c1ab72fbfde",
            "name": "Phosphine",
            "url": "https://haz-map.com/Agents/74",
            "category": "agents"
          },
          {
            "type": "name_match",
            "text": "phosphoric acid",
            "confidence": 1.0,
            "uuid": "9049e74c-22b3-4fb1-8e7f-53f17c0ec74a",
            "name": "Phosphoric acid",
            "url": "https://haz-map.com/Agents/595",
            "category": "agents"
          },
          {
            "type": "name_match",
            "text": "triorthocresyl phosphate",
            "confidence": 1.0,
            "uuid": "23e4ea47-015f-4ee8-ab13-1631915e2a4e",
            "name": "Triorthocresyl phosphate",
            "url": "https://haz-map.com/Agents/669",
            "category": "agents"
          },
          {
            "type": "name_match",
            "text": "tali",
            "confidence": 1.0,
            "uuid": "8c3a0f99-2143-4122-b539-ec5cc49596b0",
            "name": "Tali",
            "url": "https://haz-map.com/Agents/1128",
            "category": "agents"
          },
          {
            "type": "name_match",
            "text": "phosphine oxide",
            "confidence": 1.0,
            "uuid": "40bd4350-9947-43ef-9dcc-388ee0a52680",
            "name": "Phosphine oxide",
            "url": "https://haz-map.com/Agents/16591",
            "category": "agents"
          }
        ]
      },
      "category": {
        "original_name": "Category",
        "value": "Organophosphates, Other",
        "links": [],
        "cross_references": [
          {
            "type": "name_match",
            "text": "organophosphates",
            "confidence": 1.0,
            "uuid": "8d2d239c-20f9-4f02-9916-5e7667b9990c",
            "name": "ORGANOPHOSPHATES",
            "url": "https://haz-map.com/Agents/702",
            "category": "agents"
          }
        ]
      },
      "description": {
        "original_name": "Description",
        "value": "Clear liquid; [HSDB]",
        "links": [],
        "cross_references": []
      },
      "sourcesuses": {
        "original_name": "Sources/Uses",
        "value": "Used as a plasticizer, flame retardant, solvent for nitrocellulose, and additive to lubricants, hydraulic fluids, and gasoline; [Merck]",
        "links": [],
        "cross_references": [
          {
            "type": "name_match",
            "text": "cellulose",
            "confidence": 1.0,
            "uuid": "b9b1b190-806c-4622-8201-8f09b0a87eca",
            "name": "Cellulose",
            "url": "https://haz-map.com/Agents/347",
            "category": "agents"
          },
          {
            "type": "name_match",
            "text": "gasoline",
            "confidence": 1.0,
            "uuid": "af15c833-3eae-46c5-9af4-2214858d7282",
            "name": "Gasoline",
            "url": "https://haz-map.com/Agents/410",
            "category": "agents"
          }
        ]
      },
      "comments": {
        "original_name": "Comments",
        "value": "\"Vapors may irritate eyes, but only at high temperatures. Ingestion of liquid may cause severe damage to central nervous system and death if significant amounts of the toxic ortho-isomer are present.\" [CAMEO] A metabolite of the ortho isomer (TOCP) caused \"ginger jake paralysis,\" a motor neuropathy. See \"Triorthocresyl phosphate,\" \"Tri-m-cresyl phosphate,\" and \"Tri-p- cresyl phosphate.\"",
        "links": [],
        "cross_references": [
          {
            "type": "name_match",
            "text": "neuropathy",
            "confidence": 1.0,
            "uuid": "8708368f-f68b-4a51-b1ea-01982070ed28",
            "name": "neuropathy",
            "url": "https://haz-map.com/Findings/85",
            "category": "findings"
          },
          {
            "type": "name_match",
            "text": "triorthocresyl phosphate",
            "confidence": 1.0,
            "uuid": "23e4ea47-015f-4ee8-ab13-1631915e2a4e",
            "name": "Triorthocresyl phosphate",
            "url": "https://haz-map.com/Agents/669",
            "category": "agents"
          },
          {
            "type": "name_match",
            "text": "tri-m-cresyl phosphate",
            "confidence": 1.0,
            "uuid": "a4a7e28a-2ec4-43b9-a62f-61c652d25590",
            "name": "Tri-m-cresyl phosphate",
            "url": "https://haz-map.com/Agents/6678",
            "category": "agents"
          }
        ]
      },
      "biomedical_references": {
        "original_name": "Biomedical References",
        "value": "Search PubMed",
        "links": [
          {
            "text": "Search PubMed",
            "url": "https://www.ncbi.nlm.nih.gov/pubmed?term=Tricresyl+phosphate+(mixed+isomers)%20AND%20human%5Bmh%5D%20AND%20%28Occupational%20Diseases%20%5Bmh%5D%20OR%20Occupational%20Exposure%20%5Bmh%5D%29%20%20AND%20%28tox%5Bsb%5D%29&cmd=search"
          }
        ],
        "cross_references": []
      }
    },
    "exposure_assessment": {
      "vapor_pressure": {
        "original_name": "Vapor Pressure",
        "value": "1.7E-06 mm Hg",
        "links": [],
        "cross_references": []
      }
    },
    "diseases_processes_and_activities_linked_to_this_agent": {
      "other_information": {
        "original_name": "Other Information",
        "value": "No other related information on this agent was found.",
        "links": [],
        "cross_references": []
      }
    }
  },
  "cross_references": [
    {
      "type": "name_match",
      "text": "neuropathy",
      "confidence": 1.0,
      "uuid": "8708368f-f68b-4a51-b1ea-01982070ed28",
      "name": "neuropathy",
      "url": "https://haz-map.com/Findings/85",
      "category": "findings"
    },
    {
      "type": "name_match",
      "text": "phosphine",
      "confidence": 1.0,
      "uuid": "b9783685-a2f4-44ef-8b65-6c1ab72fbfde",
      "name": "Phosphine",
      "url": "https://haz-map.com/Agents/74",
      "category": "agents"
    },
    {
      "type": "name_match",
      "text": "cellulose",
      "confidence": 1.0,
      "uuid": "b9b1b190-806c-4622-8201-8f09b0a87eca",
      "name": "Cellulose",
      "url": "https://haz-map.com/Agents/347",
      "category": "agents"
    },
    {
      "type": "name_match",
      "text": "gasoline",
      "confidence": 1.0,
      "uuid": "af15c833-3eae-46c5-9af4-2214858d7282",
      "name": "Gasoline",
      "url": "https://haz-map.com/Agents/410",
      "category": "agents"
    },
    {
      "type": "name_match",
      "text": "phosphoric acid",
      "confidence": 1.0,
      "uuid": "9049e74c-22b3-4fb1-8e7f-53f17c0ec74a",
      "name": "Phosphoric acid",
      "url": "https://haz-map.com/Agents/595",
      "category": "agents"
    },
    {
      "type": "name_match",
      "text": "triorthocresyl phosphate",
      "confidence": 1.0,
      "uuid": "23e4ea47-015f-4ee8-ab13-1631915e2a4e",
      "name": "Triorthocresyl phosphate",
      "url": "https://haz-map.com/Agents/669",
      "category": "agents"
    },
    {
      "type": "name_match",
      "text": "organophosphates",
      "confidence": 1.0,
      "uuid": "8d2d239c-20f9-4f02-9916-5e7667b9990c",
      "name": "ORGANOPHOSPHATES",
      "url": "https://haz-map.com/Agents/702",
      "category": "agents"
    },
    {
      "type": "name_match",
      "text": "tali",
      "confidence": 1.0,
      "uuid": "8c3a0f99-2143-4122-b539-ec5cc49596b0",
      "name": "Tali",
      "url": "https://haz-map.com/Agents/1128",
      "category": "agents"
    },
    {
      "type": "name_match",
      "text": "tricresyl phosphate (mixed isomers)",
      "confidence": 1.0,
      "uuid": "de49b7a7-e1be-4839-a4be-574d9aaf7677",
      "name": "Tricresyl phosphate (mixed isomers)",
      "url": "https://haz-map.com/Agents/1784",
      "category": "agents"
    },
    {
      "type": "name_match",
      "text": "tri-m-cresyl phosphate",
      "confidence": 1.0,
      "uuid": "a4a7e28a-2ec4-43b9-a62f-61c652d25590",
      "name": "Tri-m-cresyl phosphate",
      "url": "https://haz-map.com/Agents/6678",
      "category": "agents"
    },
    {
      "type": "name_match",
      "text": "phosphine oxide",
      "confidence": 1.0,
      "uuid": "40bd4350-9947-43ef-9dcc-388ee0a52680",
      "name": "Phosphine oxide",
      "url": "https://haz-map.com/Agents/16591",
      "category": "agents"
    }
  ],
  "all_links": [
    {
      "text": "Search PubMed",
      "url": "https://www.ncbi.nlm.nih.gov/pubmed?term=Tricresyl+phosphate+(mixed+isomers)%20AND%20human%5Bmh%5D%20AND%20%28Occupational%20Diseases%20%5Bmh%5D%20OR%20Occupational%20Exposure%20%5Bmh%5D%29%20%20AND%20%28tox%5Bsb%5D%29&cmd=search"
    }
  ]
}