{
  "metadata": {
    "scraped_from": "https://haz-map.com/Agents/2913",
    "entity_name": "1-Nonene",
    "category": "agents",
    "uuid": "de905ae4-a223-4a26-be91-7f8c8762644b",
    "scraped_at": "2025-07-23T19:20:53.228066"
  },
  "parsed_at": "2025-07-24T01:01:01.267774",
  "title": "1-Nonene",
  "sections": {
    "general": {
      "agent_name": {
        "original_name": "Agent Name",
        "value": "1-Nonene",
        "links": [],
        "cross_references": [
          {
            "type": "name_match",
            "text": "1-nonene",
            "confidence": 1.0,
            "uuid": "de905ae4-a223-4a26-be91-7f8c8762644b",
            "name": "1-Nonene",
            "url": "https://haz-map.com/Agents/2913",
            "category": "agents"
          },
          {
            "type": "name_match",
            "text": "nonene",
            "confidence": 1.0,
            "uuid": "ec94b45c-de4d-40d3-ba98-4fb614423917",
            "name": "Nonene",
            "url": "https://haz-map.com/Agents/6388",
            "category": "agents"
          }
        ]
      },
      "cas_number": {
        "original_name": "CAS Number",
        "value": "124-11-8",
        "links": [],
        "cross_references": []
      },
      "formula": {
        "original_name": "Formula",
        "value": "C9-H18",
        "links": [],
        "cross_references": []
      },
      "major_category": {
        "original_name": "Major Category",
        "value": "Other Classes",
        "links": [],
        "cross_references": []
      },
      "synonyms": {
        "original_name": "Synonyms",
        "value": "1-N-None; NONYLENE; Propylene trimer; alpha-Nonene; n-Non-1-ene; [ChemIDplus] UN3295",
        "links": [],
        "cross_references": [
          {
            "type": "name_match",
            "text": "propylene",
            "confidence": 1.0,
            "uuid": "78ac73a1-0029-4a50-b283-561134c72041",
            "name": "Propylene",
            "url": "https://haz-map.com/Agents/1078",
            "category": "agents"
          },
          {
            "type": "name_match",
            "text": "nonene",
            "confidence": 1.0,
            "uuid": "ec94b45c-de4d-40d3-ba98-4fb614423917",
            "name": "Nonene",
            "url": "https://haz-map.com/Agents/6388",
            "category": "agents"
          }
        ]
      },
      "category": {
        "original_name": "Category",
        "value": "Aliphatics, Unsaturated",
        "links": [],
        "cross_references": []
      },
      "description": {
        "original_name": "Description",
        "value": "Colorless liquid; [HSDB]",
        "links": [],
        "cross_references": []
      },
      "sourcesuses": {
        "original_name": "Sources/Uses",
        "value": "Used for organic synthesis; as a wetting agent, lube oil additive, and polymer gasoline; in the manufacture of isodecanol, nonylbenzene, and nonylphenol; [HSDB]",
        "links": [],
        "cross_references": [
          {
            "type": "name_match",
            "text": "benzene",
            "confidence": 1.0,
            "uuid": "b05124de-5f34-4c14-8f04-ccb20c3780d9",
            "name": "Benzene",
            "url": "https://haz-map.com/Agents/5",
            "category": "agents"
          },
          {
            "type": "name_match",
            "text": "phenol",
            "confidence": 1.0,
            "uuid": "03141a03-a7df-4f51-9a37-adde1a7c4b31",
            "name": "Phenol",
            "url": "https://haz-map.com/Agents/84",
            "category": "agents"
          },
          {
            "type": "name_match",
            "text": "gasoline",
            "confidence": 1.0,
            "uuid": "af15c833-3eae-46c5-9af4-2214858d7282",
            "name": "Gasoline",
            "url": "https://haz-map.com/Agents/410",
            "category": "agents"
          },
          {
            "type": "name_match",
            "text": "nonylphenol",
            "confidence": 1.0,
            "uuid": "637daa63-eb51-451f-bd7f-f2ed96ad4d0e",
            "name": "Nonylphenol",
            "url": "https://haz-map.com/Agents/1422",
            "category": "agents"
          },
          {
            "type": "name_match",
            "text": "nonylbenzene",
            "confidence": 1.0,
            "uuid": "f1370c1b-85dc-4306-9956-581373164c3f",
            "name": "Nonylbenzene",
            "url": "https://haz-map.com/Agents/21355",
            "category": "agents"
          }
        ]
      },
      "comments": {
        "original_name": "Comments",
        "value": "A skin, eye, nose, and throat irritant; Inhalation may cause dizziness or loss of consciousness; High concentrations can act as anesthetic; [HSDB] An irritant; [MSDSonline]",
        "links": [],
        "cross_references": [
          {
            "type": "name_match",
            "text": "dizziness",
            "confidence": 1.0,
            "uuid": "4b0e6043-b228-49de-996c-b42ec8b3780e",
            "name": "dizziness",
            "url": "https://haz-map.com/Findings/16",
            "category": "findings"
          }
        ]
      },
      "biomedical_references": {
        "original_name": "Biomedical References",
        "value": "Search PubMed",
        "links": [
          {
            "text": "Search PubMed",
            "url": "https://www.ncbi.nlm.nih.gov/pubmed?term=1-Nonene%20AND%20human%5Bmh%5D%20AND%20%28Occupational%20Diseases%20%5Bmh%5D%20OR%20Occupational%20Exposure%20%5Bmh%5D%29%20%20AND%20%28tox%5Bsb%5D%29&cmd=search"
          }
        ],
        "cross_references": []
      }
    },
    "exposure_assessment": {
      "vapor_pressure": {
        "original_name": "Vapor Pressure",
        "value": "5.4 mm Hg",
        "links": [],
        "cross_references": []
      },
      "explanatory_notes": {
        "original_name": "Explanatory Notes",
        "value": "Flash point = 26 deg C; [HSDB] The Guide in the Emergency Response Guidebook is for \"Hydrocarbons, liquid, n.o.s.\" VP from ChemIDplus;",
        "links": [],
        "cross_references": [
          {
            "type": "name_match",
            "text": "ash",
            "confidence": 1.0,
            "uuid": "68b360f1-5ad0-4337-bea0-d7adca2961b5",
            "name": "Ash",
            "url": "https://haz-map.com/Agents/965",
            "category": "agents"
          },
          {
            "type": "name_match",
            "text": "carbon",
            "confidence": 1.0,
            "uuid": "b53f8815-ee80-40ef-b4aa-3b000e17dab5",
            "name": "Carbon",
            "url": "https://haz-map.com/Agents/1891",
            "category": "agents"
          },
          {
            "type": "fuzzy_match",
            "text": "hydrocarbons",
            "matched_name": "Hydrocarbons, C>3",
            "confidence": 0.7100840336134454,
            "uuid": "8eaa37ac-3931-44e4-9242-2734127fd661",
            "category": "agents",
            "url": "https://haz-map.com/Agents/14795"
          }
        ]
      },
      "nfpa": {
        "original_name": "NFPA",
        "value": "may ignite at ambient temp",
        "links": [],
        "cross_references": []
      }
    },
    "adverse_effects": {
      "neurotoxin": {
        "original_name": "Neurotoxin",
        "value": "Acute solvent syndrome",
        "links": [],
        "cross_references": []
      }
    },
    "diseases_processes_and_activities_linked_to_this_agent": {
      "diseases": {
        "original_name": "Diseases",
        "value": "Occupational diseases associated with exposure to this agent: Solvents, acute toxic effect",
        "links": [
          {
            "text": "Solvents, acute toxic effect",
            "url": "https://haz-map.com/Diseases/326"
          }
        ],
        "cross_references": [
          {
            "type": "url_match",
            "text": "Solvents, acute toxic effect",
            "url": "https://haz-map.com/Diseases/326",
            "confidence": 1.0,
            "uuid": "581e90e3-9d0c-45f0-aa6c-3468c28da129",
            "name": "Solvents, acute toxic effect",
            "category": "diseases"
          }
        ]
      }
    }
  },
  "cross_references": [
    {
      "type": "url_match",
      "text": "Solvents, acute toxic effect",
      "url": "https://haz-map.com/Diseases/326",
      "confidence": 1.0,
      "uuid": "581e90e3-9d0c-45f0-aa6c-3468c28da129",
      "name": "Solvents, acute toxic effect",
      "category": "diseases"
    },
    {
      "type": "name_match",
      "text": "dizziness",
      "confidence": 1.0,
      "uuid": "4b0e6043-b228-49de-996c-b42ec8b3780e",
      "name": "dizziness",
      "url": "https://haz-map.com/Findings/16",
      "category": "findings"
    },
    {
      "type": "name_match",
      "text": "benzene",
      "confidence": 1.0,
      "uuid": "b05124de-5f34-4c14-8f04-ccb20c3780d9",
      "name": "Benzene",
      "url": "https://haz-map.com/Agents/5",
      "category": "agents"
    },
    {
      "type": "name_match",
      "text": "phenol",
      "confidence": 1.0,
      "uuid": "03141a03-a7df-4f51-9a37-adde1a7c4b31",
      "name": "Phenol",
      "url": "https://haz-map.com/Agents/84",
      "category": "agents"
    },
    {
      "type": "name_match",
      "text": "gasoline",
      "confidence": 1.0,
      "uuid": "af15c833-3eae-46c5-9af4-2214858d7282",
      "name": "Gasoline",
      "url": "https://haz-map.com/Agents/410",
      "category": "agents"
    },
    {
      "type": "name_match",
      "text": "ash",
      "confidence": 1.0,
      "uuid": "68b360f1-5ad0-4337-bea0-d7adca2961b5",
      "name": "Ash",
      "url": "https://haz-map.com/Agents/965",
      "category": "agents"
    },
    {
      "type": "name_match",
      "text": "propylene",
      "confidence": 1.0,
      "uuid": "78ac73a1-0029-4a50-b283-561134c72041",
      "name": "Propylene",
      "url": "https://haz-map.com/Agents/1078",
      "category": "agents"
    },
    {
      "type": "name_match",
      "text": "nonylphenol",
      "confidence": 1.0,
      "uuid": "637daa63-eb51-451f-bd7f-f2ed96ad4d0e",
      "name": "Nonylphenol",
      "url": "https://haz-map.com/Agents/1422",
      "category": "agents"
    },
    {
      "type": "name_match",
      "text": "carbon",
      "confidence": 1.0,
      "uuid": "b53f8815-ee80-40ef-b4aa-3b000e17dab5",
      "name": "Carbon",
      "url": "https://haz-map.com/Agents/1891",
      "category": "agents"
    },
    {
      "type": "name_match",
      "text": "1-nonene",
      "confidence": 1.0,
      "uuid": "de905ae4-a223-4a26-be91-7f8c8762644b",
      "name": "1-Nonene",
      "url": "https://haz-map.com/Agents/2913",
      "category": "agents"
    },
    {
      "type": "name_match",
      "text": "nonene",
      "confidence": 1.0,
      "uuid": "ec94b45c-de4d-40d3-ba98-4fb614423917",
      "name": "Nonene",
      "url": "https://haz-map.com/Agents/6388",
      "category": "agents"
    },
    {
      "type": "name_match",
      "text": "nonylbenzene",
      "confidence": 1.0,
      "uuid": "f1370c1b-85dc-4306-9956-581373164c3f",
      "name": "Nonylbenzene",
      "url": "https://haz-map.com/Agents/21355",
      "category": "agents"
    },
    {
      "type": "fuzzy_match",
      "text": "hydrocarbons",
      "matched_name": "Hydrocarbons, C>3",
      "confidence": 0.7100840336134454,
      "uuid": "8eaa37ac-3931-44e4-9242-2734127fd661",
      "category": "agents",
      "url": "https://haz-map.com/Agents/14795"
    }
  ],
  "all_links": [
    {
      "text": "Search PubMed",
      "url": "https://www.ncbi.nlm.nih.gov/pubmed?term=1-Nonene%20AND%20human%5Bmh%5D%20AND%20%28Occupational%20Diseases%20%5Bmh%5D%20OR%20Occupational%20Exposure%20%5Bmh%5D%29%20%20AND%20%28tox%5Bsb%5D%29&cmd=search"
    },
    {
      "text": "Solvents, acute toxic effect",
      "url": "https://haz-map.com/Diseases/326"
    }
  ]
}