{
  "metadata": {
    "scraped_from": "https://haz-map.com/Agents/6132",
    "entity_name": "Methyl palmitate",
    "category": "agents",
    "uuid": "de96badf-dd47-448c-ae9c-40384bbfb012",
    "scraped_at": "2025-07-23T19:58:52.833663"
  },
  "parsed_at": "2025-07-24T01:10:59.766402",
  "title": "Methyl palmitate",
  "sections": {
    "general": {
      "agent_name": {
        "original_name": "Agent Name",
        "value": "Methyl palmitate",
        "links": [],
        "cross_references": [
          {
            "type": "name_match",
            "text": "methyl palmitate",
            "confidence": 1.0,
            "uuid": "de96badf-dd47-448c-ae9c-40384bbfb012",
            "name": "Methyl palmitate",
            "url": "https://haz-map.com/Agents/6132",
            "category": "agents"
          }
        ]
      },
      "cas_number": {
        "original_name": "CAS Number",
        "value": "112-39-0",
        "links": [],
        "cross_references": []
      },
      "formula": {
        "original_name": "Formula",
        "value": "C17-H34-O2",
        "links": [],
        "cross_references": []
      },
      "major_category": {
        "original_name": "Major Category",
        "value": "Biological Agents",
        "links": [],
        "cross_references": []
      },
      "synonyms": {
        "original_name": "Synonyms",
        "value": "Hexadecanoic acid, methyl ester; Metholene 2216; Methyl hexadecanoate; Methyl n-hexadecanoate; Palmitic acid, methyl ester; Uniphat A60; n-Hexadecanoic acid methyl ester; [ChemIDplus]",
        "links": [],
        "cross_references": [
          {
            "type": "name_match",
            "text": "palmitic acid",
            "confidence": 1.0,
            "uuid": "9a0987be-5bc6-483b-8daf-6ed89325a82c",
            "name": "Palmitic acid",
            "url": "https://haz-map.com/Agents/6518",
            "category": "agents"
          }
        ]
      },
      "category": {
        "original_name": "Category",
        "value": "Plant Oils and Extracts",
        "links": [],
        "cross_references": []
      },
      "description": {
        "original_name": "Description",
        "value": "Colorless liquid; mp = 29.5 deg C; [Hawley] Clear liquid; mp = 26-29 deg C; [MSDSonline]",
        "links": [],
        "cross_references": []
      },
      "sourcesuses": {
        "original_name": "Sources/Uses",
        "value": "Found in flowers of the Japanese honeysuckle (Lonicera japonica), clove essential oil, cassava, gari, farine, clams, short neck clams, and corbicula; Used to make detergents, emulsifiers, wetting agents, stabilizers, resins, lubricants, plasticizers, and animal feeds, [HSDB]",
        "links": [],
        "cross_references": []
      },
      "comments": {
        "original_name": "Comments",
        "value": "May cause irritation; [MSDSonline]",
        "links": [],
        "cross_references": []
      },
      "biomedical_references": {
        "original_name": "Biomedical References",
        "value": "Search PubMed",
        "links": [
          {
            "text": "Search PubMed",
            "url": "https://www.ncbi.nlm.nih.gov/pubmed?term=Methyl+palmitate%20AND%20human%5Bmh%5D%20AND%20%28Occupational%20Diseases%20%5Bmh%5D%20OR%20Occupational%20Exposure%20%5Bmh%5D%29%20%20AND%20%28tox%5Bsb%5D%29&cmd=search"
          }
        ],
        "cross_references": []
      }
    },
    "exposure_assessment": {
      "vapor_pressure": {
        "original_name": "Vapor Pressure",
        "value": "6.04E-05 mm Hg",
        "links": [],
        "cross_references": []
      }
    },
    "diseases_processes_and_activities_linked_to_this_agent": {
      "processes": {
        "original_name": "Processes",
        "value": "Industrial Processes with risk of exposure: Farming (Feed Additives)",
        "links": [
          {
            "text": "Farming (Feed Additives)",
            "url": "https://haz-map.com/Processes/262"
          }
        ],
        "cross_references": []
      }
    }
  },
  "cross_references": [
    {
      "type": "name_match",
      "text": "methyl palmitate",
      "confidence": 1.0,
      "uuid": "de96badf-dd47-448c-ae9c-40384bbfb012",
      "name": "Methyl palmitate",
      "url": "https://haz-map.com/Agents/6132",
      "category": "agents"
    },
    {
      "type": "name_match",
      "text": "palmitic acid",
      "confidence": 1.0,
      "uuid": "9a0987be-5bc6-483b-8daf-6ed89325a82c",
      "name": "Palmitic acid",
      "url": "https://haz-map.com/Agents/6518",
      "category": "agents"
    }
  ],
  "all_links": [
    {
      "text": "Search PubMed",
      "url": "https://www.ncbi.nlm.nih.gov/pubmed?term=Methyl+palmitate%20AND%20human%5Bmh%5D%20AND%20%28Occupational%20Diseases%20%5Bmh%5D%20OR%20Occupational%20Exposure%20%5Bmh%5D%29%20%20AND%20%28tox%5Bsb%5D%29&cmd=search"
    },
    {
      "text": "Farming (Feed Additives)",
      "url": "https://haz-map.com/Processes/262"
    }
  ]
}