{
  "metadata": {
    "scraped_from": "https://haz-map.com/Agents/2636",
    "entity_name": "Dimercaprol",
    "category": "agents",
    "uuid": "ded3081f-3793-4f51-a674-e530e29e991e",
    "scraped_at": "2025-07-23T19:16:42.490647"
  },
  "parsed_at": "2025-07-24T01:01:54.375934",
  "title": "Dimercaprol",
  "sections": {
    "general": {
      "agent_name": {
        "original_name": "Agent Name",
        "value": "Dimercaprol",
        "links": [],
        "cross_references": [
          {
            "type": "name_match",
            "text": "dimercaprol",
            "confidence": 1.0,
            "uuid": "ded3081f-3793-4f51-a674-e530e29e991e",
            "name": "Dimercaprol",
            "url": "https://haz-map.com/Agents/2636",
            "category": "agents"
          }
        ]
      },
      "cas_number": {
        "original_name": "CAS Number",
        "value": "59-52-9",
        "links": [],
        "cross_references": []
      },
      "formula": {
        "original_name": "Formula",
        "value": "C3-H8-O-S2",
        "links": [],
        "cross_references": []
      },
      "major_category": {
        "original_name": "Major Category",
        "value": "Other Classes",
        "links": [],
        "cross_references": []
      },
      "synonyms": {
        "original_name": "Synonyms",
        "value": "1,2-Dimercapto-3-propanol; 1,2-Dithioglycerol; 1-Propanol, 2,3-dimercapto-; 2,3-Dimercapto-1-propanol; 2,3-Dimercaptol-1-propanol; 2,3-Dimercaptopropanol; 2,3-Dithiopropanol; 3-Hydroxy-1,2-propanedithiol; Antoxol; BAL; BAL in Oil; British antilewisite; DMP; DMP (VAN); Dicaptol; Dimercaprol propanol; Dimercaprolo [DCIT]; Dimercaprolum [INN-Latin]; Dimercaptopropanol; Dimercaptopropanol (VAN); Dimerkaprol [Czech]; Dimersol; Dithioglycerine; Dithioglycerol (VAN); Glycerol, 1,2-dithio-; Panobal; Sulfactin; Sulfactin (VAN); alpha,beta-Dithioglycerol; [ChemIDplus]",
        "links": [],
        "cross_references": [
          {
            "type": "name_match",
            "text": "glycerin",
            "confidence": 1.0,
            "uuid": "28d55633-4d0d-446a-82c8-ed15a611f2bd",
            "name": "Glycerin",
            "url": "https://haz-map.com/Agents/501",
            "category": "agents"
          },
          {
            "type": "name_match",
            "text": "propane",
            "confidence": 1.0,
            "uuid": "563a611b-46ea-4bdc-b77b-17d8f7646283",
            "name": "Propane",
            "url": "https://haz-map.com/Agents/607",
            "category": "agents"
          },
          {
            "type": "name_match",
            "text": "lewisite",
            "confidence": 1.0,
            "uuid": "a8d07e92-7373-4de4-ab0d-14fcf4c3df58",
            "name": "Lewisite",
            "url": "https://haz-map.com/Agents/1451",
            "category": "agents"
          },
          {
            "type": "name_match",
            "text": "dimercaprol",
            "confidence": 1.0,
            "uuid": "ded3081f-3793-4f51-a674-e530e29e991e",
            "name": "Dimercaprol",
            "url": "https://haz-map.com/Agents/2636",
            "category": "agents"
          },
          {
            "type": "name_match",
            "text": "mercaptopropanol",
            "confidence": 1.0,
            "uuid": "2cfd8dc2-216c-454a-a9c9-f8e72cc2b766",
            "name": "Mercaptopropanol",
            "url": "https://haz-map.com/Agents/16948",
            "category": "agents"
          }
        ]
      },
      "category": {
        "original_name": "Category",
        "value": "Sulfur Compounds (Alcohols)",
        "links": [],
        "cross_references": [
          {
            "type": "name_match",
            "text": "sulfur",
            "confidence": 1.0,
            "uuid": "5aabdef6-71c8-44c8-b762-feaabff50696",
            "name": "Sulfur",
            "url": "https://haz-map.com/Agents/1942",
            "category": "agents"
          }
        ]
      },
      "description": {
        "original_name": "Description",
        "value": "Clear to slightly yellow liquid with a pungent odor; [HSDB] Viscous oily liquid; [Merck Index] Strong, offensive odor; [MSDSonline]",
        "links": [],
        "cross_references": [
          {
            "type": "name_match",
            "text": "ht",
            "confidence": 1.0,
            "uuid": "764df367-8d53-4a11-81a2-31ccfe122a8d",
            "name": "HT",
            "url": "https://haz-map.com/Agents/2168",
            "category": "agents"
          }
        ]
      },
      "sourcesuses": {
        "original_name": "Sources/Uses",
        "value": "Used as a chelating agent to treat arsenic, gold, and mercury poisoning; First used as an antidote to the warfare agent Lewisite; [HSDB]",
        "links": [],
        "cross_references": [
          {
            "type": "name_match",
            "text": "mercury",
            "confidence": 1.0,
            "uuid": "1ccd7713-d752-4728-b246-fed6633c4405",
            "name": "Mercury",
            "url": "https://haz-map.com/Agents/6",
            "category": "agents"
          },
          {
            "type": "name_match",
            "text": "arsenic",
            "confidence": 1.0,
            "uuid": "2bf78711-4881-4b55-9b7c-df80529b3991",
            "name": "Arsenic",
            "url": "https://haz-map.com/Agents/1147",
            "category": "agents"
          },
          {
            "type": "name_match",
            "text": "gold",
            "confidence": 1.0,
            "uuid": "8f37bad1-17df-446f-b0ed-11d2ef239483",
            "name": "Gold",
            "url": "https://haz-map.com/Agents/1186",
            "category": "agents"
          },
          {
            "type": "name_match",
            "text": "lewisite",
            "confidence": 1.0,
            "uuid": "a8d07e92-7373-4de4-ab0d-14fcf4c3df58",
            "name": "Lewisite",
            "url": "https://haz-map.com/Agents/1451",
            "category": "agents"
          }
        ]
      },
      "comments": {
        "original_name": "Comments",
        "value": "Contact with eyes can cause severe lacrimation for an hour or two with no permanent damage; [HSDB] A lachrymator; [CAMEO] An irritant; Harmful if swallowed; Reproductive effects in animal experiments; [MSDSonline]",
        "links": [],
        "cross_references": [
          {
            "type": "name_match",
            "text": "lacrimation",
            "confidence": 1.0,
            "uuid": "392ff8e7-90fa-4d6d-8f67-3e49d053ffac",
            "name": "lacrimation",
            "url": "https://haz-map.com/Findings/199",
            "category": "findings"
          }
        ]
      },
      "biomedical_references": {
        "original_name": "Biomedical References",
        "value": "Search PubMed",
        "links": [
          {
            "text": "Search PubMed",
            "url": "https://www.ncbi.nlm.nih.gov/pubmed?term=Dimercaprol%20AND%20human%5Bmh%5D%20AND%20%28Occupational%20Diseases%20%5Bmh%5D%20OR%20Occupational%20Exposure%20%5Bmh%5D%29%20%20AND%20%28tox%5Bsb%5D%29&cmd=search"
          }
        ],
        "cross_references": []
      }
    },
    "exposure_assessment": {
      "vapor_pressure": {
        "original_name": "Vapor Pressure",
        "value": "4.92 mm Hg",
        "links": [],
        "cross_references": []
      },
      "explanatory_notes": {
        "original_name": "Explanatory Notes",
        "value": "Flash Point > 235 deg F; [CAMEO]",
        "links": [],
        "cross_references": [
          {
            "type": "name_match",
            "text": "ash",
            "confidence": 1.0,
            "uuid": "68b360f1-5ad0-4337-bea0-d7adca2961b5",
            "name": "Ash",
            "url": "https://haz-map.com/Agents/965",
            "category": "agents"
          }
        ]
      }
    },
    "adverse_effects": {
      "lachrymator": {
        "original_name": "Lachrymator",
        "value": "Yes",
        "links": [],
        "cross_references": []
      },
      "reproductive_toxin": {
        "original_name": "Reproductive Toxin",
        "value": "Yes",
        "links": [],
        "cross_references": []
      }
    },
    "diseases_processes_and_activities_linked_to_this_agent": {
      "other_information": {
        "original_name": "Other Information",
        "value": "No other related information on this agent was found.",
        "links": [],
        "cross_references": []
      }
    }
  },
  "cross_references": [
    {
      "type": "name_match",
      "text": "lacrimation",
      "confidence": 1.0,
      "uuid": "392ff8e7-90fa-4d6d-8f67-3e49d053ffac",
      "name": "lacrimation",
      "url": "https://haz-map.com/Findings/199",
      "category": "findings"
    },
    {
      "type": "name_match",
      "text": "mercury",
      "confidence": 1.0,
      "uuid": "1ccd7713-d752-4728-b246-fed6633c4405",
      "name": "Mercury",
      "url": "https://haz-map.com/Agents/6",
      "category": "agents"
    },
    {
      "type": "name_match",
      "text": "glycerin",
      "confidence": 1.0,
      "uuid": "28d55633-4d0d-446a-82c8-ed15a611f2bd",
      "name": "Glycerin",
      "url": "https://haz-map.com/Agents/501",
      "category": "agents"
    },
    {
      "type": "name_match",
      "text": "propane",
      "confidence": 1.0,
      "uuid": "563a611b-46ea-4bdc-b77b-17d8f7646283",
      "name": "Propane",
      "url": "https://haz-map.com/Agents/607",
      "category": "agents"
    },
    {
      "type": "name_match",
      "text": "ash",
      "confidence": 1.0,
      "uuid": "68b360f1-5ad0-4337-bea0-d7adca2961b5",
      "name": "Ash",
      "url": "https://haz-map.com/Agents/965",
      "category": "agents"
    },
    {
      "type": "name_match",
      "text": "arsenic",
      "confidence": 1.0,
      "uuid": "2bf78711-4881-4b55-9b7c-df80529b3991",
      "name": "Arsenic",
      "url": "https://haz-map.com/Agents/1147",
      "category": "agents"
    },
    {
      "type": "name_match",
      "text": "gold",
      "confidence": 1.0,
      "uuid": "8f37bad1-17df-446f-b0ed-11d2ef239483",
      "name": "Gold",
      "url": "https://haz-map.com/Agents/1186",
      "category": "agents"
    },
    {
      "type": "name_match",
      "text": "lewisite",
      "confidence": 1.0,
      "uuid": "a8d07e92-7373-4de4-ab0d-14fcf4c3df58",
      "name": "Lewisite",
      "url": "https://haz-map.com/Agents/1451",
      "category": "agents"
    },
    {
      "type": "name_match",
      "text": "sulfur",
      "confidence": 1.0,
      "uuid": "5aabdef6-71c8-44c8-b762-feaabff50696",
      "name": "Sulfur",
      "url": "https://haz-map.com/Agents/1942",
      "category": "agents"
    },
    {
      "type": "name_match",
      "text": "ht",
      "confidence": 1.0,
      "uuid": "764df367-8d53-4a11-81a2-31ccfe122a8d",
      "name": "HT",
      "url": "https://haz-map.com/Agents/2168",
      "category": "agents"
    },
    {
      "type": "name_match",
      "text": "dimercaprol",
      "confidence": 1.0,
      "uuid": "ded3081f-3793-4f51-a674-e530e29e991e",
      "name": "Dimercaprol",
      "url": "https://haz-map.com/Agents/2636",
      "category": "agents"
    },
    {
      "type": "name_match",
      "text": "mercaptopropanol",
      "confidence": 1.0,
      "uuid": "2cfd8dc2-216c-454a-a9c9-f8e72cc2b766",
      "name": "Mercaptopropanol",
      "url": "https://haz-map.com/Agents/16948",
      "category": "agents"
    }
  ],
  "all_links": [
    {
      "text": "Search PubMed",
      "url": "https://www.ncbi.nlm.nih.gov/pubmed?term=Dimercaprol%20AND%20human%5Bmh%5D%20AND%20%28Occupational%20Diseases%20%5Bmh%5D%20OR%20Occupational%20Exposure%20%5Bmh%5D%29%20%20AND%20%28tox%5Bsb%5D%29&cmd=search"
    }
  ]
}