{
  "metadata": {
    "scraped_from": "https://haz-map.com/Agents/2017",
    "entity_name": "Lithium deuteride",
    "category": "agents",
    "uuid": "dee33ce4-fa8a-4ffe-affc-c37e1f0f78fb",
    "scraped_at": "2025-07-23T19:08:34.080751"
  },
  "parsed_at": "2025-07-24T00:54:04.752074",
  "title": "Lithium deuteride",
  "sections": {
    "general": {
      "agent_name": {
        "original_name": "Agent Name",
        "value": "Lithium deuteride",
        "links": [],
        "cross_references": [
          {
            "type": "name_match",
            "text": "lithium",
            "confidence": 1.0,
            "uuid": "7be9883e-6aac-4181-937e-9d3cd3ec0918",
            "name": "Lithium",
            "url": "https://haz-map.com/Agents/1548",
            "category": "agents"
          },
          {
            "type": "name_match",
            "text": "lithium deuteride",
            "confidence": 1.0,
            "uuid": "dee33ce4-fa8a-4ffe-affc-c37e1f0f78fb",
            "name": "Lithium deuteride",
            "url": "https://haz-map.com/Agents/2017",
            "category": "agents"
          }
        ]
      },
      "cas_number": {
        "original_name": "CAS Number",
        "value": "13587-16-1",
        "links": [],
        "cross_references": []
      },
      "formula": {
        "original_name": "Formula",
        "value": "D-Li",
        "links": [],
        "cross_references": []
      },
      "major_category": {
        "original_name": "Major Category",
        "value": "Metals",
        "links": [],
        "cross_references": []
      },
      "synonyms": {
        "original_name": "Synonyms",
        "value": "Lithium (2H)hydride; [ChemIDplus]",
        "links": [],
        "cross_references": [
          {
            "type": "name_match",
            "text": "lithium",
            "confidence": 1.0,
            "uuid": "7be9883e-6aac-4181-937e-9d3cd3ec0918",
            "name": "Lithium",
            "url": "https://haz-map.com/Agents/1548",
            "category": "agents"
          }
        ]
      },
      "category": {
        "original_name": "Category",
        "value": "Metal Hydrides",
        "links": [],
        "cross_references": []
      },
      "description": {
        "original_name": "Description",
        "value": "Gray crystals with melting point of 680 deg C; [Hawley]",
        "links": [],
        "cross_references": []
      },
      "sourcesuses": {
        "original_name": "Sources/Uses",
        "value": "Used in thermonuclear fusion; [Hawley] Used as the explosive in the hydrogen bomb and may be used in the future as the fuel for controlled fusion reactions; [ACGIH]",
        "links": [],
        "cross_references": [
          {
            "type": "name_match",
            "text": "hydrogen",
            "confidence": 1.0,
            "uuid": "e2d9645f-5559-4d88-b820-fc4710c154f2",
            "name": "Hydrogen",
            "url": "https://haz-map.com/Agents/1070",
            "category": "agents"
          }
        ]
      },
      "comments": {
        "original_name": "Comments",
        "value": "See \"Lithium hydride.\"",
        "links": [],
        "cross_references": [
          {
            "type": "name_match",
            "text": "lithium hydride",
            "confidence": 1.0,
            "uuid": "e726b651-8405-40be-b291-9a8907889064",
            "name": "Lithium hydride",
            "url": "https://haz-map.com/Agents/539",
            "category": "agents"
          },
          {
            "type": "name_match",
            "text": "lithium",
            "confidence": 1.0,
            "uuid": "7be9883e-6aac-4181-937e-9d3cd3ec0918",
            "name": "Lithium",
            "url": "https://haz-map.com/Agents/1548",
            "category": "agents"
          }
        ]
      },
      "biomedical_references": {
        "original_name": "Biomedical References",
        "value": "Search PubMed",
        "links": [
          {
            "text": "Search PubMed",
            "url": "https://www.ncbi.nlm.nih.gov/pubmed?term=Lithium+deuteride%20AND%20human%5Bmh%5D%20AND%20%28Occupational%20Diseases%20%5Bmh%5D%20OR%20Occupational%20Exposure%20%5Bmh%5D%29%20%20AND%20%28tox%5Bsb%5D%29&cmd=search"
          }
        ],
        "cross_references": []
      }
    },
    "exposure_assessment": {
      "explanatory_notes": {
        "original_name": "Explanatory Notes",
        "value": "Regulated for transportation as Lithium hydride, UN1414; [MSDSonline]",
        "links": [],
        "cross_references": [
          {
            "type": "name_match",
            "text": "lithium hydride",
            "confidence": 1.0,
            "uuid": "e726b651-8405-40be-b291-9a8907889064",
            "name": "Lithium hydride",
            "url": "https://haz-map.com/Agents/539",
            "category": "agents"
          },
          {
            "type": "name_match",
            "text": "lithium",
            "confidence": 1.0,
            "uuid": "7be9883e-6aac-4181-937e-9d3cd3ec0918",
            "name": "Lithium",
            "url": "https://haz-map.com/Agents/1548",
            "category": "agents"
          }
        ]
      }
    },
    "adverse_effects": {
      "toxic_pneumonitis": {
        "original_name": "Toxic Pneumonitis",
        "value": "Yes",
        "links": [],
        "cross_references": []
      },
      "dermatotoxin": {
        "original_name": "Dermatotoxin",
        "value": "Skin burns",
        "links": [],
        "cross_references": [
          {
            "type": "name_match",
            "text": "burn",
            "confidence": 1.0,
            "uuid": "63665de5-6376-4918-8dbf-4c10c4d63837",
            "name": "burn",
            "url": "https://haz-map.com/Findings/204",
            "category": "findings"
          }
        ]
      }
    },
    "diseases_processes_and_activities_linked_to_this_agent": {
      "diseases": {
        "original_name": "Diseases",
        "value": "Occupational diseases associated with exposure to this agent: Pneumonitis, toxic",
        "links": [
          {
            "text": "Pneumonitis, toxic",
            "url": "https://haz-map.com/Diseases/306"
          }
        ],
        "cross_references": [
          {
            "type": "url_match",
            "text": "Pneumonitis, toxic",
            "url": "https://haz-map.com/Diseases/306",
            "confidence": 1.0,
            "uuid": "cd799281-0284-450d-bb82-ed6b675616ac",
            "name": "Pneumonitis, toxic",
            "category": "diseases"
          }
        ]
      }
    }
  },
  "cross_references": [
    {
      "type": "url_match",
      "text": "Pneumonitis, toxic",
      "url": "https://haz-map.com/Diseases/306",
      "confidence": 1.0,
      "uuid": "cd799281-0284-450d-bb82-ed6b675616ac",
      "name": "Pneumonitis, toxic",
      "category": "diseases"
    },
    {
      "type": "name_match",
      "text": "burn",
      "confidence": 1.0,
      "uuid": "63665de5-6376-4918-8dbf-4c10c4d63837",
      "name": "burn",
      "url": "https://haz-map.com/Findings/204",
      "category": "findings"
    },
    {
      "type": "name_match",
      "text": "lithium hydride",
      "confidence": 1.0,
      "uuid": "e726b651-8405-40be-b291-9a8907889064",
      "name": "Lithium hydride",
      "url": "https://haz-map.com/Agents/539",
      "category": "agents"
    },
    {
      "type": "name_match",
      "text": "hydrogen",
      "confidence": 1.0,
      "uuid": "e2d9645f-5559-4d88-b820-fc4710c154f2",
      "name": "Hydrogen",
      "url": "https://haz-map.com/Agents/1070",
      "category": "agents"
    },
    {
      "type": "name_match",
      "text": "lithium",
      "confidence": 1.0,
      "uuid": "7be9883e-6aac-4181-937e-9d3cd3ec0918",
      "name": "Lithium",
      "url": "https://haz-map.com/Agents/1548",
      "category": "agents"
    },
    {
      "type": "name_match",
      "text": "lithium deuteride",
      "confidence": 1.0,
      "uuid": "dee33ce4-fa8a-4ffe-affc-c37e1f0f78fb",
      "name": "Lithium deuteride",
      "url": "https://haz-map.com/Agents/2017",
      "category": "agents"
    }
  ],
  "all_links": [
    {
      "text": "Search PubMed",
      "url": "https://www.ncbi.nlm.nih.gov/pubmed?term=Lithium+deuteride%20AND%20human%5Bmh%5D%20AND%20%28Occupational%20Diseases%20%5Bmh%5D%20OR%20Occupational%20Exposure%20%5Bmh%5D%29%20%20AND%20%28tox%5Bsb%5D%29&cmd=search"
    },
    {
      "text": "Pneumonitis, toxic",
      "url": "https://haz-map.com/Diseases/306"
    }
  ]
}