{
  "metadata": {
    "scraped_from": "https://haz-map.com/Agents/1243",
    "entity_name": "Tylosin",
    "category": "agents",
    "uuid": "df65b4a0-21e5-48d2-8530-6db84eace6ae",
    "scraped_at": "2025-07-23T18:55:13.554986"
  },
  "parsed_at": "2025-07-24T01:06:02.959233",
  "title": "Tylosin",
  "sections": {
    "general": {
      "agent_name": {
        "original_name": "Agent Name",
        "value": "Tylosin",
        "links": [],
        "cross_references": [
          {
            "type": "name_match",
            "text": "tylosin",
            "confidence": 1.0,
            "uuid": "df65b4a0-21e5-48d2-8530-6db84eace6ae",
            "name": "Tylosin",
            "url": "https://haz-map.com/Agents/1243",
            "category": "agents"
          }
        ]
      },
      "cas_number": {
        "original_name": "CAS Number",
        "value": "1401-69-0",
        "links": [],
        "cross_references": []
      },
      "formula": {
        "original_name": "Formula",
        "value": "C46-H77-N-O17",
        "links": [],
        "cross_references": []
      },
      "major_category": {
        "original_name": "Major Category",
        "value": "Other Uses",
        "links": [],
        "cross_references": []
      },
      "synonyms": {
        "original_name": "Synonyms",
        "value": "(10E,12E)-(3R,4S,5S,6R,8R,14S,15R)-14-((6-deoxy-2,3-di-O-methyl-beta-D-allopyranosyl)oxymethyl)-5-((3,6-dideoxy-4-O-(2,6-dideoxy-3-C-methyl-alpha-L-ribo-hexopyranosyl)-3-dimethylamino-beta-D-glucopyranosyl)oxy)-6-formylmethyl-3-hydroxy-4,8,12-trimethyl-9-oxoheptadeca-10,12-dien-15-olide; (10E,12E)-(3R,4S,5S,6R,8R,14S,15R)-14-((6-deoxy-2,3-di-O-methyl-beta-D-allopyranosyl)oxymethyl)-5-((3,6-dideoxy-4-O-(2,6-dideoxy-3-C-methyl-alpha-l-ribo-hexopyranosyl)-3-dimethylamino-beta-d-glucopyranosyl)oxy)-6-formylmethyl-3-hydroxy-4,8,12-trimet; Fradizine; Tilosina [INN-Spanish]; Tylan; Tylocine; Tylosin A; Tylosin tartrate; Tylosine [INN-French]; Tylosinum [INN-Latin]; Vubityl 200; [ChemIDplus]",
        "links": [],
        "cross_references": [
          {
            "type": "name_match",
            "text": "tylosin",
            "confidence": 1.0,
            "uuid": "df65b4a0-21e5-48d2-8530-6db84eace6ae",
            "name": "Tylosin",
            "url": "https://haz-map.com/Agents/1243",
            "category": "agents"
          }
        ]
      },
      "category": {
        "original_name": "Category",
        "value": "Animal Feed Additives",
        "links": [],
        "cross_references": []
      },
      "description": {
        "original_name": "Description",
        "value": "Solid; [Merck Index] White to buff-colored powder with a mild musty odor; [USP MSDS]",
        "links": [],
        "cross_references": []
      },
      "sourcesuses": {
        "original_name": "Sources/Uses",
        "value": "Tylosin is a veterinary macrolide antibiotic. [Kanerva, p. 1844] A macrolide antibiotic from a Streptomycetes fradiae strain found in the soil in Thailand; [Merck Index]",
        "links": [],
        "cross_references": [
          {
            "type": "name_match",
            "text": "tylosin",
            "confidence": 1.0,
            "uuid": "df65b4a0-21e5-48d2-8530-6db84eace6ae",
            "name": "Tylosin",
            "url": "https://haz-map.com/Agents/1243",
            "category": "agents"
          }
        ]
      },
      "comments": {
        "original_name": "Comments",
        "value": "Occupational asthma has been reported; [Malo] Allergic contact dermatitis reported in farmers, feed mixers, and veterinarians; [Kanerva, p. 1844] An eye irritant; May cause contact dermatitis; May cause allergic reaction by inhalation, ingestion, or skin contact; Chronic exposure may cause hypersensitization; [USP MSDS]",
        "links": [],
        "cross_references": [
          {
            "type": "name_match",
            "text": "dermatitis",
            "confidence": 1.0,
            "uuid": "fe9c05f2-b19f-4ceb-ac7a-ffb7d7a0cae0",
            "name": "dermatitis",
            "url": "https://haz-map.com/Findings/59",
            "category": "findings"
          },
          {
            "type": "name_match",
            "text": "veterinarians",
            "confidence": 1.0,
            "uuid": "736f6352-ae3d-4510-9f8b-53806564f1c2",
            "name": "Veterinarians",
            "url": "https://haz-map.com/Jobs/42",
            "category": "jobs"
          },
          {
            "type": "fuzzy_match",
            "text": "contact dermatitis",
            "matched_name": "Contact dermatitis, allergic",
            "confidence": 0.7214285714285715,
            "uuid": "c9499de0-9aa1-41bf-8753-cd5b28a63e29",
            "category": "diseases",
            "url": "https://haz-map.com/Diseases/18"
          }
        ]
      },
      "reference_link_1": {
        "original_name": "Reference Link #1",
        "value": "Occupational asthma due to tylosin tartrate",
        "links": [
          {
            "text": "Occupational asthma due to tylosin tartrate",
            "url": "http://www.ncbi.nlm.nih.gov/entrez/query.fcgi?cmd=Retrieve&db=PubMed&list_uids=2765423&dopt=Abstract"
          }
        ],
        "cross_references": [
          {
            "type": "name_match",
            "text": "tylosin",
            "confidence": 1.0,
            "uuid": "df65b4a0-21e5-48d2-8530-6db84eace6ae",
            "name": "Tylosin",
            "url": "https://haz-map.com/Agents/1243",
            "category": "agents"
          }
        ]
      },
      "biomedical_references": {
        "original_name": "Biomedical References",
        "value": "Search PubMed",
        "links": [
          {
            "text": "Search PubMed",
            "url": "https://www.ncbi.nlm.nih.gov/pubmed?term=Tylosin%20AND%20human%5Bmh%5D%20AND%20%28Occupational%20Diseases%20%5Bmh%5D%20OR%20Occupational%20Exposure%20%5Bmh%5D%29%20%20AND%20%28tox%5Bsb%5D%29&cmd=search"
          }
        ],
        "cross_references": []
      }
    },
    "exposure_assessment": {
      "vapor_pressure": {
        "original_name": "Vapor Pressure",
        "value": "1.98E-34 mm Hg",
        "links": [],
        "cross_references": []
      },
      "explanatory_notes": {
        "original_name": "Explanatory Notes",
        "value": "VP from HSDB;",
        "links": [],
        "cross_references": []
      },
      "reference_link_2": {
        "original_name": "Reference Link #2",
        "value": "Occupational contact dermatitis from tylosin",
        "links": [
          {
            "text": "Occupational contact dermatitis from tylosin",
            "url": "http://www.ncbi.nlm.nih.gov/entrez/query.fcgi?cmd=Retrieve&db=PubMed&list_uids=8187499&dopt=Abstract"
          }
        ],
        "cross_references": [
          {
            "type": "name_match",
            "text": "dermatitis",
            "confidence": 1.0,
            "uuid": "fe9c05f2-b19f-4ceb-ac7a-ffb7d7a0cae0",
            "name": "dermatitis",
            "url": "https://haz-map.com/Findings/59",
            "category": "findings"
          },
          {
            "type": "name_match",
            "text": "tylosin",
            "confidence": 1.0,
            "uuid": "df65b4a0-21e5-48d2-8530-6db84eace6ae",
            "name": "Tylosin",
            "url": "https://haz-map.com/Agents/1243",
            "category": "agents"
          },
          {
            "type": "fuzzy_match",
            "text": "contact dermatitis",
            "matched_name": "Contact dermatitis, allergic",
            "confidence": 0.7214285714285715,
            "uuid": "c9499de0-9aa1-41bf-8753-cd5b28a63e29",
            "category": "diseases",
            "url": "https://haz-map.com/Diseases/18"
          }
        ]
      }
    },
    "adverse_effects": {
      "skin_sensitizer": {
        "original_name": "Skin Sensitizer",
        "value": "Yes",
        "links": [],
        "cross_references": []
      },
      "asthma": {
        "original_name": "Asthma",
        "value": "Yes",
        "links": [],
        "cross_references": []
      }
    },
    "diseases_processes_and_activities_linked_to_this_agent": {
      "diseases": {
        "original_name": "Diseases",
        "value": "Occupational diseases associated with exposure to this agent: Asthma, occupational Contact dermatitis, allergic",
        "links": [
          {
            "text": "Asthma, occupational",
            "url": "https://haz-map.com/Diseases/23"
          },
          {
            "text": "Contact dermatitis, allergic",
            "url": "https://haz-map.com/Diseases/18"
          }
        ],
        "cross_references": [
          {
            "type": "url_match",
            "text": "Asthma, occupational",
            "url": "https://haz-map.com/Diseases/23",
            "confidence": 1.0,
            "uuid": "29c464cb-36b2-43d8-b6fc-e19a0ea695cb",
            "name": "Asthma, occupational",
            "category": "diseases"
          },
          {
            "type": "url_match",
            "text": "Contact dermatitis, allergic",
            "url": "https://haz-map.com/Diseases/18",
            "confidence": 1.0,
            "uuid": "c9499de0-9aa1-41bf-8753-cd5b28a63e29",
            "name": "Contact dermatitis, allergic",
            "category": "diseases"
          },
          {
            "type": "name_match",
            "text": "dermatitis",
            "confidence": 1.0,
            "uuid": "fe9c05f2-b19f-4ceb-ac7a-ffb7d7a0cae0",
            "name": "dermatitis",
            "url": "https://haz-map.com/Findings/59",
            "category": "findings"
          }
        ]
      },
      "processes": {
        "original_name": "Processes",
        "value": "Industrial Processes with risk of exposure: Farming (Feed Additives)",
        "links": [
          {
            "text": "Farming (Feed Additives)",
            "url": "https://haz-map.com/Processes/262"
          }
        ],
        "cross_references": []
      }
    }
  },
  "cross_references": [
    {
      "type": "url_match",
      "text": "Asthma, occupational",
      "url": "https://haz-map.com/Diseases/23",
      "confidence": 1.0,
      "uuid": "29c464cb-36b2-43d8-b6fc-e19a0ea695cb",
      "name": "Asthma, occupational",
      "category": "diseases"
    },
    {
      "type": "url_match",
      "text": "Contact dermatitis, allergic",
      "url": "https://haz-map.com/Diseases/18",
      "confidence": 1.0,
      "uuid": "c9499de0-9aa1-41bf-8753-cd5b28a63e29",
      "name": "Contact dermatitis, allergic",
      "category": "diseases"
    },
    {
      "type": "name_match",
      "text": "dermatitis",
      "confidence": 1.0,
      "uuid": "fe9c05f2-b19f-4ceb-ac7a-ffb7d7a0cae0",
      "name": "dermatitis",
      "url": "https://haz-map.com/Findings/59",
      "category": "findings"
    },
    {
      "type": "name_match",
      "text": "veterinarians",
      "confidence": 1.0,
      "uuid": "736f6352-ae3d-4510-9f8b-53806564f1c2",
      "name": "Veterinarians",
      "url": "https://haz-map.com/Jobs/42",
      "category": "jobs"
    },
    {
      "type": "name_match",
      "text": "tylosin",
      "confidence": 1.0,
      "uuid": "df65b4a0-21e5-48d2-8530-6db84eace6ae",
      "name": "Tylosin",
      "url": "https://haz-map.com/Agents/1243",
      "category": "agents"
    }
  ],
  "all_links": [
    {
      "text": "Occupational asthma due to tylosin tartrate",
      "url": "http://www.ncbi.nlm.nih.gov/entrez/query.fcgi?cmd=Retrieve&db=PubMed&list_uids=2765423&dopt=Abstract"
    },
    {
      "text": "Search PubMed",
      "url": "https://www.ncbi.nlm.nih.gov/pubmed?term=Tylosin%20AND%20human%5Bmh%5D%20AND%20%28Occupational%20Diseases%20%5Bmh%5D%20OR%20Occupational%20Exposure%20%5Bmh%5D%29%20%20AND%20%28tox%5Bsb%5D%29&cmd=search"
    },
    {
      "text": "Occupational contact dermatitis from tylosin",
      "url": "http://www.ncbi.nlm.nih.gov/entrez/query.fcgi?cmd=Retrieve&db=PubMed&list_uids=8187499&dopt=Abstract"
    },
    {
      "text": "Asthma, occupational",
      "url": "https://haz-map.com/Diseases/23"
    },
    {
      "text": "Contact dermatitis, allergic",
      "url": "https://haz-map.com/Diseases/18"
    },
    {
      "text": "Farming (Feed Additives)",
      "url": "https://haz-map.com/Processes/262"
    }
  ]
}