{
  "metadata": {
    "scraped_from": "https://haz-map.com/Agents/7229",
    "entity_name": "Succinic acid",
    "category": "agents",
    "uuid": "e01347b0-231d-4c97-8f6d-724da7d58bfb",
    "scraped_at": "2025-07-23T20:10:38.125760"
  },
  "parsed_at": "2025-07-24T01:15:22.448339",
  "title": "Succinic acid",
  "sections": {
    "general": {
      "agent_name": {
        "original_name": "Agent Name",
        "value": "Succinic acid",
        "links": [],
        "cross_references": [
          {
            "type": "name_match",
            "text": "succinic acid",
            "confidence": 1.0,
            "uuid": "e01347b0-231d-4c97-8f6d-724da7d58bfb",
            "name": "Succinic acid",
            "url": "https://haz-map.com/Agents/7229",
            "category": "agents"
          }
        ]
      },
      "cas_number": {
        "original_name": "CAS Number",
        "value": "110-15-6",
        "links": [],
        "cross_references": []
      },
      "formula": {
        "original_name": "Formula",
        "value": "C4-H6-O4",
        "links": [],
        "cross_references": []
      },
      "major_category": {
        "original_name": "Major Category",
        "value": "Other Classes",
        "links": [],
        "cross_references": []
      },
      "synonyms": {
        "original_name": "Synonyms",
        "value": "1,2-Ethanedicarboxylic acid; 1,4-Butanedioic acid; Acidum succinicum; Amber acid; Asuccin; Bernsteinsaure [German]; Butandisaeure; Butanedioic acid; Dihydrofumaric acid; Ethylene dicarboxylic acid; Kyselina jantarova [Czech]; SUCCINIC ACID; Wormwood; Wormwood acid; [ChemIDplus]",
        "links": [],
        "cross_references": [
          {
            "type": "name_match",
            "text": "ethane",
            "confidence": 1.0,
            "uuid": "5162cc8c-dfb9-4060-81ac-38a8cec7f9dd",
            "name": "Ethane",
            "url": "https://haz-map.com/Agents/1075",
            "category": "agents"
          },
          {
            "type": "name_match",
            "text": "ethylene",
            "confidence": 1.0,
            "uuid": "958eacc0-5135-4b62-bb93-6df972bf552f",
            "name": "Ethylene",
            "url": "https://haz-map.com/Agents/1076",
            "category": "agents"
          },
          {
            "type": "name_match",
            "text": "succinic acid",
            "confidence": 1.0,
            "uuid": "e01347b0-231d-4c97-8f6d-724da7d58bfb",
            "name": "Succinic acid",
            "url": "https://haz-map.com/Agents/7229",
            "category": "agents"
          },
          {
            "type": "name_match",
            "text": "fumaric acid",
            "confidence": 1.0,
            "uuid": "b635d88c-9570-4e93-8899-d7a2375b1daa",
            "name": "Fumaric acid",
            "url": "https://haz-map.com/Agents/8358",
            "category": "agents"
          }
        ]
      },
      "category": {
        "original_name": "Category",
        "value": "Organic Acids",
        "links": [],
        "cross_references": []
      },
      "description": {
        "original_name": "Description",
        "value": "Colorless odorless solid; [Hawley] White odorless solid; [HSDB] White fine crystals and fragments; [MSDSonline]",
        "links": [],
        "cross_references": []
      },
      "sourcesuses": {
        "original_name": "Sources/Uses",
        "value": "Found in fossils, fungi, and lichens; [Merck Index] Present in nearly all plant and animal tissues; Used to make lacquers, dyes, esters for perfumes, alkyd resins, pharmaceuticals, plasticizers, lubricants, and pesticides; Also used in photography, as a sequestrant in foods, a buffering and neutralizing agent, for radiation dosimetry, and to promote plant growth and increased yields in food crops; [HSDB]",
        "links": [],
        "cross_references": [
          {
            "type": "name_match",
            "text": "pharmaceuticals",
            "confidence": 1.0,
            "uuid": "713c3c30-b67e-4a2f-a90f-b32f8a306332",
            "name": "PHARMACEUTICALS",
            "url": "https://haz-map.com/Agents/1000",
            "category": "agents"
          },
          {
            "type": "name_match",
            "text": "fungi",
            "confidence": 1.0,
            "uuid": "e0d489cb-bfee-4aee-b665-999c017268a2",
            "name": "Fungi",
            "url": "https://haz-map.com/Agents/1988",
            "category": "agents"
          }
        ]
      },
      "comments": {
        "original_name": "Comments",
        "value": "Maximum tolerated dose was 2-2.5% when given in drinking water to rats; Caused severe weight loss in the 10% group, and all the rats died within the first 4 weeks; Has anxiolytic activity when given orally to rats at 3-6 mg/kg; [HSDB] Causes somnolence in lethal-dose feeding studies; [RTECS] A skin, eye, mucous membrane, and upper respiratory tract irritant; [CAMEO] An irritant; [MSDSonline]",
        "links": [],
        "cross_references": [
          {
            "type": "name_match",
            "text": "weight loss",
            "confidence": 1.0,
            "uuid": "9b7baca4-cf1b-4e78-99d2-2377fbac8f8b",
            "name": "weight loss",
            "url": "https://haz-map.com/Findings/3",
            "category": "findings"
          },
          {
            "type": "name_match",
            "text": "ht",
            "confidence": 1.0,
            "uuid": "764df367-8d53-4a11-81a2-31ccfe122a8d",
            "name": "HT",
            "url": "https://haz-map.com/Agents/2168",
            "category": "agents"
          },
          {
            "type": "name_match",
            "text": "water",
            "confidence": 1.0,
            "uuid": "6f2a7557-dfd2-49bc-9b4b-a93cd8e225d4",
            "name": "Water",
            "url": "https://haz-map.com/Agents/18668",
            "category": "agents"
          }
        ]
      },
      "biomedical_references": {
        "original_name": "Biomedical References",
        "value": "Search PubMed",
        "links": [
          {
            "text": "Search PubMed",
            "url": "https://www.ncbi.nlm.nih.gov/pubmed?term=Succinic+acid%20AND%20human%5Bmh%5D%20AND%20%28Occupational%20Diseases%20%5Bmh%5D%20OR%20Occupational%20Exposure%20%5Bmh%5D%29%20%20AND%20%28tox%5Bsb%5D%29&cmd=search"
          }
        ],
        "cross_references": []
      }
    },
    "exposure_assessment": {
      "mak": {
        "original_name": "MAK",
        "value": "2 mg/m3, inhalable fraction",
        "links": [],
        "cross_references": []
      },
      "vapor_pressure": {
        "original_name": "Vapor Pressure",
        "value": "1.9E-07 mm Hg",
        "links": [],
        "cross_references": []
      }
    },
    "adverse_effects": {
      "neurotoxin": {
        "original_name": "Neurotoxin",
        "value": "Other CNS neurotoxin",
        "links": [],
        "cross_references": []
      }
    },
    "diseases_processes_and_activities_linked_to_this_agent": {
      "processes": {
        "original_name": "Processes",
        "value": "Industrial Processes with risk of exposure: Farming (Pesticides) Photographic Processing",
        "links": [
          {
            "text": "Farming (Pesticides)",
            "url": "https://haz-map.com/Processes/218"
          },
          {
            "text": "Photographic Processing",
            "url": "https://haz-map.com/Processes/231"
          }
        ],
        "cross_references": [
          {
            "type": "url_match",
            "text": "Farming (Pesticides)",
            "url": "https://haz-map.com/Processes/218",
            "confidence": 1.0,
            "uuid": "cf1e5815-c9bb-4917-82a5-391848170b7e",
            "name": "Farming (Pesticides)",
            "category": "processes"
          }
        ]
      }
    }
  },
  "cross_references": [
    {
      "type": "url_match",
      "text": "Farming (Pesticides)",
      "url": "https://haz-map.com/Processes/218",
      "confidence": 1.0,
      "uuid": "cf1e5815-c9bb-4917-82a5-391848170b7e",
      "name": "Farming (Pesticides)",
      "category": "processes"
    },
    {
      "type": "name_match",
      "text": "weight loss",
      "confidence": 1.0,
      "uuid": "9b7baca4-cf1b-4e78-99d2-2377fbac8f8b",
      "name": "weight loss",
      "url": "https://haz-map.com/Findings/3",
      "category": "findings"
    },
    {
      "type": "name_match",
      "text": "pharmaceuticals",
      "confidence": 1.0,
      "uuid": "713c3c30-b67e-4a2f-a90f-b32f8a306332",
      "name": "PHARMACEUTICALS",
      "url": "https://haz-map.com/Agents/1000",
      "category": "agents"
    },
    {
      "type": "name_match",
      "text": "ethane",
      "confidence": 1.0,
      "uuid": "5162cc8c-dfb9-4060-81ac-38a8cec7f9dd",
      "name": "Ethane",
      "url": "https://haz-map.com/Agents/1075",
      "category": "agents"
    },
    {
      "type": "name_match",
      "text": "ethylene",
      "confidence": 1.0,
      "uuid": "958eacc0-5135-4b62-bb93-6df972bf552f",
      "name": "Ethylene",
      "url": "https://haz-map.com/Agents/1076",
      "category": "agents"
    },
    {
      "type": "name_match",
      "text": "fungi",
      "confidence": 1.0,
      "uuid": "e0d489cb-bfee-4aee-b665-999c017268a2",
      "name": "Fungi",
      "url": "https://haz-map.com/Agents/1988",
      "category": "agents"
    },
    {
      "type": "name_match",
      "text": "ht",
      "confidence": 1.0,
      "uuid": "764df367-8d53-4a11-81a2-31ccfe122a8d",
      "name": "HT",
      "url": "https://haz-map.com/Agents/2168",
      "category": "agents"
    },
    {
      "type": "name_match",
      "text": "succinic acid",
      "confidence": 1.0,
      "uuid": "e01347b0-231d-4c97-8f6d-724da7d58bfb",
      "name": "Succinic acid",
      "url": "https://haz-map.com/Agents/7229",
      "category": "agents"
    },
    {
      "type": "name_match",
      "text": "fumaric acid",
      "confidence": 1.0,
      "uuid": "b635d88c-9570-4e93-8899-d7a2375b1daa",
      "name": "Fumaric acid",
      "url": "https://haz-map.com/Agents/8358",
      "category": "agents"
    },
    {
      "type": "name_match",
      "text": "water",
      "confidence": 1.0,
      "uuid": "6f2a7557-dfd2-49bc-9b4b-a93cd8e225d4",
      "name": "Water",
      "url": "https://haz-map.com/Agents/18668",
      "category": "agents"
    }
  ],
  "all_links": [
    {
      "text": "Search PubMed",
      "url": "https://www.ncbi.nlm.nih.gov/pubmed?term=Succinic+acid%20AND%20human%5Bmh%5D%20AND%20%28Occupational%20Diseases%20%5Bmh%5D%20OR%20Occupational%20Exposure%20%5Bmh%5D%29%20%20AND%20%28tox%5Bsb%5D%29&cmd=search"
    },
    {
      "text": "Farming (Pesticides)",
      "url": "https://haz-map.com/Processes/218"
    },
    {
      "text": "Photographic Processing",
      "url": "https://haz-map.com/Processes/231"
    }
  ]
}