{
  "metadata": {
    "scraped_from": "https://haz-map.com/Agents/6294",
    "entity_name": "1,8-Naphthalic anhydride",
    "category": "agents",
    "uuid": "e05e433f-50db-457e-8710-07ce98772f04",
    "scraped_at": "2025-07-23T20:00:40.561736"
  },
  "parsed_at": "2025-07-24T01:15:31.071230",
  "title": "1,8-Naphthalic anhydride",
  "sections": {
    "general": {
      "agent_name": {
        "original_name": "Agent Name",
        "value": "1,8-Naphthalic anhydride",
        "links": [],
        "cross_references": [
          {
            "type": "name_match",
            "text": "phthalic anhydride",
            "confidence": 1.0,
            "uuid": "1bda4d65-bf7f-4775-add4-a93906dcc2db",
            "name": "Phthalic anhydride",
            "url": "https://haz-map.com/Agents/599",
            "category": "agents"
          },
          {
            "type": "name_match",
            "text": "ht",
            "confidence": 1.0,
            "uuid": "764df367-8d53-4a11-81a2-31ccfe122a8d",
            "name": "HT",
            "url": "https://haz-map.com/Agents/2168",
            "category": "agents"
          },
          {
            "type": "name_match",
            "text": "1,8-naphthalic anhydride",
            "confidence": 1.0,
            "uuid": "e05e433f-50db-457e-8710-07ce98772f04",
            "name": "1,8-Naphthalic anhydride",
            "url": "https://haz-map.com/Agents/6294",
            "category": "agents"
          }
        ]
      },
      "cas_number": {
        "original_name": "CAS Number",
        "value": "81-84-5",
        "links": [],
        "cross_references": []
      },
      "formula": {
        "original_name": "Formula",
        "value": "C12-H6-O3",
        "links": [],
        "cross_references": []
      },
      "major_category": {
        "original_name": "Major Category",
        "value": "Plastics & Rubber",
        "links": [],
        "cross_references": []
      },
      "synonyms": {
        "original_name": "Synonyms",
        "value": "1,8-Naphthalenedicarboxylic acid anhydride; 1,8-Naphthalic acid anhydride; 1H,3H-Naphtho(1,8-cd)pyran-1,3-dione (9CI); Naphthalene-1,8-dicarboxylic anhydride; Naphthalic acid anhydride; Naphthalic anhydride; Pakarli; Protect; Protect (agrochemical); [ChemIDplus]",
        "links": [],
        "cross_references": [
          {
            "type": "name_match",
            "text": "naphthalene",
            "confidence": 1.0,
            "uuid": "433cf489-5423-4297-a38e-6e755a9d458e",
            "name": "Naphthalene",
            "url": "https://haz-map.com/Agents/46",
            "category": "agents"
          },
          {
            "type": "name_match",
            "text": "phthalic anhydride",
            "confidence": 1.0,
            "uuid": "1bda4d65-bf7f-4775-add4-a93906dcc2db",
            "name": "Phthalic anhydride",
            "url": "https://haz-map.com/Agents/599",
            "category": "agents"
          },
          {
            "type": "name_match",
            "text": "mica",
            "confidence": 1.0,
            "uuid": "433f26f1-c399-4596-b179-ce3843cfd465",
            "name": "Mica",
            "url": "https://haz-map.com/Agents/621",
            "category": "agents"
          },
          {
            "type": "name_match",
            "text": "ht",
            "confidence": 1.0,
            "uuid": "764df367-8d53-4a11-81a2-31ccfe122a8d",
            "name": "HT",
            "url": "https://haz-map.com/Agents/2168",
            "category": "agents"
          },
          {
            "type": "name_match",
            "text": "phthalic acid",
            "confidence": 1.0,
            "uuid": "f19ac6b5-df06-48aa-81e6-825cdcfe8f9c",
            "name": "Phthalic acid",
            "url": "https://haz-map.com/Agents/6702",
            "category": "agents"
          }
        ]
      },
      "category": {
        "original_name": "Category",
        "value": "Acid Anhydrides, Cyclic",
        "links": [],
        "cross_references": [
          {
            "type": "name_match",
            "text": "acid anhydrides",
            "confidence": 1.0,
            "uuid": "541f6a39-e623-4b95-8854-3d5fe27fdeca",
            "name": "ACID ANHYDRIDES",
            "url": "https://haz-map.com/Agents/744",
            "category": "agents"
          }
        ]
      },
      "description": {
        "original_name": "Description",
        "value": "Light tan solid; [HSDB] Tan powder; Decomposed by water; [MSDSonline]",
        "links": [],
        "cross_references": [
          {
            "type": "name_match",
            "text": "ht",
            "confidence": 1.0,
            "uuid": "764df367-8d53-4a11-81a2-31ccfe122a8d",
            "name": "HT",
            "url": "https://haz-map.com/Agents/2168",
            "category": "agents"
          },
          {
            "type": "name_match",
            "text": "water",
            "confidence": 1.0,
            "uuid": "6f2a7557-dfd2-49bc-9b4b-a93cd8e225d4",
            "name": "Water",
            "url": "https://haz-map.com/Agents/18668",
            "category": "agents"
          }
        ]
      },
      "sourcesuses": {
        "original_name": "Sources/Uses",
        "value": "Used as a seed protectant and to make dyestuffs and optical brighteners; [HSDB]",
        "links": [],
        "cross_references": [
          {
            "type": "name_match",
            "text": "ht",
            "confidence": 1.0,
            "uuid": "764df367-8d53-4a11-81a2-31ccfe122a8d",
            "name": "HT",
            "url": "https://haz-map.com/Agents/2168",
            "category": "agents"
          }
        ]
      },
      "comments": {
        "original_name": "Comments",
        "value": "Danger of skin sensitization; [MAK] An irritant; [MSDSonline] See \"ACID ANHYDRIDES.\"",
        "links": [],
        "cross_references": [
          {
            "type": "name_match",
            "text": "acid anhydrides",
            "confidence": 1.0,
            "uuid": "541f6a39-e623-4b95-8854-3d5fe27fdeca",
            "name": "ACID ANHYDRIDES",
            "url": "https://haz-map.com/Agents/744",
            "category": "agents"
          }
        ]
      },
      "biomedical_references": {
        "original_name": "Biomedical References",
        "value": "Search PubMed",
        "links": [
          {
            "text": "Search PubMed",
            "url": "https://www.ncbi.nlm.nih.gov/pubmed?term=1%2c8-Naphthalic+anhydride%20AND%20human%5Bmh%5D%20AND%20%28Occupational%20Diseases%20%5Bmh%5D%20OR%20Occupational%20Exposure%20%5Bmh%5D%29%20%20AND%20%28tox%5Bsb%5D%29&cmd=search"
          }
        ],
        "cross_references": []
      }
    },
    "exposure_assessment": {
      "vapor_pressure": {
        "original_name": "Vapor Pressure",
        "value": "4.12E-07 mm Hg",
        "links": [],
        "cross_references": []
      },
      "explanatory_notes": {
        "original_name": "Explanatory Notes",
        "value": "Flash point = 272 deg C; [HSDB]",
        "links": [],
        "cross_references": [
          {
            "type": "name_match",
            "text": "ash",
            "confidence": 1.0,
            "uuid": "68b360f1-5ad0-4337-bea0-d7adca2961b5",
            "name": "Ash",
            "url": "https://haz-map.com/Agents/965",
            "category": "agents"
          }
        ]
      }
    },
    "adverse_effects": {
      "skin_sensitizer": {
        "original_name": "Skin Sensitizer",
        "value": "Yes",
        "links": [],
        "cross_references": []
      }
    },
    "diseases_processes_and_activities_linked_to_this_agent": {
      "diseases": {
        "original_name": "Diseases",
        "value": "Occupational diseases associated with exposure to this agent: Contact dermatitis, allergic",
        "links": [
          {
            "text": "Contact dermatitis, allergic",
            "url": "https://haz-map.com/Diseases/18"
          }
        ],
        "cross_references": [
          {
            "type": "url_match",
            "text": "Contact dermatitis, allergic",
            "url": "https://haz-map.com/Diseases/18",
            "confidence": 1.0,
            "uuid": "c9499de0-9aa1-41bf-8753-cd5b28a63e29",
            "name": "Contact dermatitis, allergic",
            "category": "diseases"
          },
          {
            "type": "name_match",
            "text": "dermatitis",
            "confidence": 1.0,
            "uuid": "fe9c05f2-b19f-4ceb-ac7a-ffb7d7a0cae0",
            "name": "dermatitis",
            "url": "https://haz-map.com/Findings/59",
            "category": "findings"
          }
        ]
      }
    }
  },
  "cross_references": [
    {
      "type": "url_match",
      "text": "Contact dermatitis, allergic",
      "url": "https://haz-map.com/Diseases/18",
      "confidence": 1.0,
      "uuid": "c9499de0-9aa1-41bf-8753-cd5b28a63e29",
      "name": "Contact dermatitis, allergic",
      "category": "diseases"
    },
    {
      "type": "name_match",
      "text": "dermatitis",
      "confidence": 1.0,
      "uuid": "fe9c05f2-b19f-4ceb-ac7a-ffb7d7a0cae0",
      "name": "dermatitis",
      "url": "https://haz-map.com/Findings/59",
      "category": "findings"
    },
    {
      "type": "name_match",
      "text": "naphthalene",
      "confidence": 1.0,
      "uuid": "433cf489-5423-4297-a38e-6e755a9d458e",
      "name": "Naphthalene",
      "url": "https://haz-map.com/Agents/46",
      "category": "agents"
    },
    {
      "type": "name_match",
      "text": "phthalic anhydride",
      "confidence": 1.0,
      "uuid": "1bda4d65-bf7f-4775-add4-a93906dcc2db",
      "name": "Phthalic anhydride",
      "url": "https://haz-map.com/Agents/599",
      "category": "agents"
    },
    {
      "type": "name_match",
      "text": "mica",
      "confidence": 1.0,
      "uuid": "433f26f1-c399-4596-b179-ce3843cfd465",
      "name": "Mica",
      "url": "https://haz-map.com/Agents/621",
      "category": "agents"
    },
    {
      "type": "name_match",
      "text": "acid anhydrides",
      "confidence": 1.0,
      "uuid": "541f6a39-e623-4b95-8854-3d5fe27fdeca",
      "name": "ACID ANHYDRIDES",
      "url": "https://haz-map.com/Agents/744",
      "category": "agents"
    },
    {
      "type": "name_match",
      "text": "ash",
      "confidence": 1.0,
      "uuid": "68b360f1-5ad0-4337-bea0-d7adca2961b5",
      "name": "Ash",
      "url": "https://haz-map.com/Agents/965",
      "category": "agents"
    },
    {
      "type": "name_match",
      "text": "ht",
      "confidence": 1.0,
      "uuid": "764df367-8d53-4a11-81a2-31ccfe122a8d",
      "name": "HT",
      "url": "https://haz-map.com/Agents/2168",
      "category": "agents"
    },
    {
      "type": "name_match",
      "text": "1,8-naphthalic anhydride",
      "confidence": 1.0,
      "uuid": "e05e433f-50db-457e-8710-07ce98772f04",
      "name": "1,8-Naphthalic anhydride",
      "url": "https://haz-map.com/Agents/6294",
      "category": "agents"
    },
    {
      "type": "name_match",
      "text": "phthalic acid",
      "confidence": 1.0,
      "uuid": "f19ac6b5-df06-48aa-81e6-825cdcfe8f9c",
      "name": "Phthalic acid",
      "url": "https://haz-map.com/Agents/6702",
      "category": "agents"
    },
    {
      "type": "name_match",
      "text": "water",
      "confidence": 1.0,
      "uuid": "6f2a7557-dfd2-49bc-9b4b-a93cd8e225d4",
      "name": "Water",
      "url": "https://haz-map.com/Agents/18668",
      "category": "agents"
    }
  ],
  "all_links": [
    {
      "text": "Search PubMed",
      "url": "https://www.ncbi.nlm.nih.gov/pubmed?term=1%2c8-Naphthalic+anhydride%20AND%20human%5Bmh%5D%20AND%20%28Occupational%20Diseases%20%5Bmh%5D%20OR%20Occupational%20Exposure%20%5Bmh%5D%29%20%20AND%20%28tox%5Bsb%5D%29&cmd=search"
    },
    {
      "text": "Contact dermatitis, allergic",
      "url": "https://haz-map.com/Diseases/18"
    }
  ]
}