{
  "metadata": {
    "scraped_from": "https://haz-map.com/Agents/14291",
    "entity_name": "Fenamic acid",
    "category": "agents",
    "uuid": "e0987108-06e8-4387-be42-72fdaac00906",
    "scraped_at": "2025-07-23T21:21:43.952511"
  },
  "parsed_at": "2025-07-24T01:15:09.831729",
  "title": "Fenamic acid",
  "sections": {
    "general": {
      "agent_name": {
        "original_name": "Agent Name",
        "value": "Fenamic acid",
        "links": [],
        "cross_references": [
          {
            "type": "name_match",
            "text": "fenamic acid",
            "confidence": 1.0,
            "uuid": "e0987108-06e8-4387-be42-72fdaac00906",
            "name": "Fenamic acid",
            "url": "https://haz-map.com/Agents/14291",
            "category": "agents"
          }
        ]
      },
      "alternative_name": {
        "original_name": "Alternative Name",
        "value": "N-Phenylanthranilic acid",
        "links": [],
        "cross_references": [
          {
            "type": "name_match",
            "text": "anthranilic acid",
            "confidence": 1.0,
            "uuid": "8912c66e-c272-4ed8-9b29-b25a22d08647",
            "name": "Anthranilic acid",
            "url": "https://haz-map.com/Agents/3712",
            "category": "agents"
          }
        ]
      },
      "cas_number": {
        "original_name": "CAS Number",
        "value": "91-40-7",
        "links": [],
        "cross_references": []
      },
      "formula": {
        "original_name": "Formula",
        "value": "C13-H11-N-O2",
        "links": [],
        "cross_references": []
      },
      "major_category": {
        "original_name": "Major Category",
        "value": "Nitrogen Compounds",
        "links": [],
        "cross_references": [
          {
            "type": "name_match",
            "text": "nitrogen",
            "confidence": 1.0,
            "uuid": "db5e90a9-06d2-45b9-8b81-f345a89b0bc0",
            "name": "Nitrogen",
            "url": "https://haz-map.com/Agents/1072",
            "category": "agents"
          }
        ]
      },
      "synonyms": {
        "original_name": "Synonyms",
        "value": "2-(Phenylamino)benzoic acid; 2-Anilinobenzoic acid; 2-Carboxydiphenylamine; Diphenylamine-2-carboxylic acid; N-Phenyl-o-aminobenzoic acid; N-Phenylanthranilic acid; Phenylanthranilic acid; o-Anilinobenzoic acid; Anthranilic acid, N-phenyl-; Benzoic acid, 2-(phenylamino)-; [ChemIDplus]",
        "links": [],
        "cross_references": [
          {
            "type": "name_match",
            "text": "diphenylamine",
            "confidence": 1.0,
            "uuid": "3f92d416-f15a-456f-86a5-60c536b4229b",
            "name": "Diphenylamine",
            "url": "https://haz-map.com/Agents/471",
            "category": "agents"
          },
          {
            "type": "name_match",
            "text": "benzoic acid",
            "confidence": 1.0,
            "uuid": "d2c5d3be-d826-4f55-bc32-7b16821aef40",
            "name": "Benzoic acid",
            "url": "https://haz-map.com/Agents/1883",
            "category": "agents"
          },
          {
            "type": "name_match",
            "text": "anthranilic acid",
            "confidence": 1.0,
            "uuid": "8912c66e-c272-4ed8-9b29-b25a22d08647",
            "name": "Anthranilic acid",
            "url": "https://haz-map.com/Agents/3712",
            "category": "agents"
          }
        ]
      },
      "category": {
        "original_name": "Category",
        "value": "Aminobenzoic Acids",
        "links": [],
        "cross_references": [
          {
            "type": "name_match",
            "text": "benzoic acid",
            "confidence": 1.0,
            "uuid": "d2c5d3be-d826-4f55-bc32-7b16821aef40",
            "name": "Benzoic acid",
            "url": "https://haz-map.com/Agents/1883",
            "category": "agents"
          }
        ]
      },
      "description": {
        "original_name": "Description",
        "value": "Solid; [Merck Index] Off-white powder; [Alfa Aesar MSDS]",
        "links": [],
        "cross_references": []
      },
      "sourcesuses": {
        "original_name": "Sources/Uses",
        "value": "Used to detect vanadium in steel; [Merck Index] \"Has chloride and potassium channel-blocking activity.\" [ChemIDplus]",
        "links": [],
        "cross_references": [
          {
            "type": "name_match",
            "text": "potassium",
            "confidence": 1.0,
            "uuid": "41542f50-8311-43c8-9ec6-078665bee9df",
            "name": "Potassium",
            "url": "https://haz-map.com/Agents/1526",
            "category": "agents"
          },
          {
            "type": "name_match",
            "text": "vanadium",
            "confidence": 1.0,
            "uuid": "1362fc87-1aa9-43e6-8e41-e4ffbe9a0511",
            "name": "Vanadium",
            "url": "https://haz-map.com/Agents/1701",
            "category": "agents"
          }
        ]
      },
      "comments": {
        "original_name": "Comments",
        "value": "Causes renal changes (tubules and glomeruli) and proteinuria in 7-day intermittent oral studies of rats; [RTECS] A skin and strong eye irritant; [Alfa Aesar MSDS] See \"Diphenylamine.\" See \"Benzoic acid.\"",
        "links": [],
        "cross_references": [
          {
            "type": "name_match",
            "text": "proteinuria",
            "confidence": 1.0,
            "uuid": "bb0ad01f-a677-491a-bcaa-73b9314b919a",
            "name": "proteinuria",
            "url": "https://haz-map.com/Findings/79",
            "category": "findings"
          },
          {
            "type": "name_match",
            "text": "diphenylamine",
            "confidence": 1.0,
            "uuid": "3f92d416-f15a-456f-86a5-60c536b4229b",
            "name": "Diphenylamine",
            "url": "https://haz-map.com/Agents/471",
            "category": "agents"
          },
          {
            "type": "name_match",
            "text": "benzoic acid",
            "confidence": 1.0,
            "uuid": "d2c5d3be-d826-4f55-bc32-7b16821aef40",
            "name": "Benzoic acid",
            "url": "https://haz-map.com/Agents/1883",
            "category": "agents"
          }
        ]
      },
      "biomedical_references": {
        "original_name": "Biomedical References",
        "value": "Search PubMed",
        "links": [
          {
            "text": "Search PubMed",
            "url": "https://www.ncbi.nlm.nih.gov/pubmed?term=Fenamic+acid%20AND%20human%5Bmh%5D%20AND%20%28Occupational%20Diseases%20%5Bmh%5D%20OR%20Occupational%20Exposure%20%5Bmh%5D%29%20%20AND%20%28tox%5Bsb%5D%29&cmd=search"
          }
        ],
        "cross_references": []
      }
    },
    "exposure_assessment": {
      "vapor_pressure": {
        "original_name": "Vapor Pressure",
        "value": "2.38E-06 mm Hg",
        "links": [],
        "cross_references": []
      }
    },
    "diseases_processes_and_activities_linked_to_this_agent": {
      "processes": {
        "original_name": "Processes",
        "value": "Industrial Processes with risk of exposure: Metal Extraction and Refining",
        "links": [
          {
            "text": "Metal Extraction and Refining",
            "url": "https://haz-map.com/Processes/261"
          }
        ],
        "cross_references": []
      }
    }
  },
  "cross_references": [
    {
      "type": "name_match",
      "text": "proteinuria",
      "confidence": 1.0,
      "uuid": "bb0ad01f-a677-491a-bcaa-73b9314b919a",
      "name": "proteinuria",
      "url": "https://haz-map.com/Findings/79",
      "category": "findings"
    },
    {
      "type": "name_match",
      "text": "diphenylamine",
      "confidence": 1.0,
      "uuid": "3f92d416-f15a-456f-86a5-60c536b4229b",
      "name": "Diphenylamine",
      "url": "https://haz-map.com/Agents/471",
      "category": "agents"
    },
    {
      "type": "name_match",
      "text": "nitrogen",
      "confidence": 1.0,
      "uuid": "db5e90a9-06d2-45b9-8b81-f345a89b0bc0",
      "name": "Nitrogen",
      "url": "https://haz-map.com/Agents/1072",
      "category": "agents"
    },
    {
      "type": "name_match",
      "text": "potassium",
      "confidence": 1.0,
      "uuid": "41542f50-8311-43c8-9ec6-078665bee9df",
      "name": "Potassium",
      "url": "https://haz-map.com/Agents/1526",
      "category": "agents"
    },
    {
      "type": "name_match",
      "text": "vanadium",
      "confidence": 1.0,
      "uuid": "1362fc87-1aa9-43e6-8e41-e4ffbe9a0511",
      "name": "Vanadium",
      "url": "https://haz-map.com/Agents/1701",
      "category": "agents"
    },
    {
      "type": "name_match",
      "text": "benzoic acid",
      "confidence": 1.0,
      "uuid": "d2c5d3be-d826-4f55-bc32-7b16821aef40",
      "name": "Benzoic acid",
      "url": "https://haz-map.com/Agents/1883",
      "category": "agents"
    },
    {
      "type": "name_match",
      "text": "anthranilic acid",
      "confidence": 1.0,
      "uuid": "8912c66e-c272-4ed8-9b29-b25a22d08647",
      "name": "Anthranilic acid",
      "url": "https://haz-map.com/Agents/3712",
      "category": "agents"
    },
    {
      "type": "name_match",
      "text": "fenamic acid",
      "confidence": 1.0,
      "uuid": "e0987108-06e8-4387-be42-72fdaac00906",
      "name": "Fenamic acid",
      "url": "https://haz-map.com/Agents/14291",
      "category": "agents"
    }
  ],
  "all_links": [
    {
      "text": "Search PubMed",
      "url": "https://www.ncbi.nlm.nih.gov/pubmed?term=Fenamic+acid%20AND%20human%5Bmh%5D%20AND%20%28Occupational%20Diseases%20%5Bmh%5D%20OR%20Occupational%20Exposure%20%5Bmh%5D%29%20%20AND%20%28tox%5Bsb%5D%29&cmd=search"
    },
    {
      "text": "Metal Extraction and Refining",
      "url": "https://haz-map.com/Processes/261"
    }
  ]
}