{
  "metadata": {
    "scraped_from": "https://haz-map.com/Agents/1017",
    "entity_name": "Pentaerythritol tetranitrate",
    "category": "agents",
    "uuid": "e1f378cd-b9c7-4dcd-8881-d72278815c4a",
    "scraped_at": "2025-07-23T18:51:40.530362"
  },
  "parsed_at": "2025-07-24T01:19:22.057107",
  "title": "Pentaerythritol tetranitrate",
  "sections": {
    "general": {
      "agent_name": {
        "original_name": "Agent Name",
        "value": "Pentaerythritol tetranitrate",
        "links": [],
        "cross_references": [
          {
            "type": "name_match",
            "text": "pentaerythritol",
            "confidence": 1.0,
            "uuid": "0fe7143c-c4ff-4326-baca-71a7d500b479",
            "name": "Pentaerythritol",
            "url": "https://haz-map.com/Agents/586",
            "category": "agents"
          },
          {
            "type": "name_match",
            "text": "pentaerythritol tetranitrate",
            "confidence": 1.0,
            "uuid": "e1f378cd-b9c7-4dcd-8881-d72278815c4a",
            "name": "Pentaerythritol tetranitrate",
            "url": "https://haz-map.com/Agents/1017",
            "category": "agents"
          },
          {
            "type": "name_match",
            "text": "erythritol",
            "confidence": 1.0,
            "uuid": "ca232438-a65d-428a-93d7-e0e84dfe2fc1",
            "name": "Erythritol",
            "url": "https://haz-map.com/Agents/14150",
            "category": "agents"
          }
        ]
      },
      "cas_number": {
        "original_name": "CAS Number",
        "value": "78-11-5",
        "links": [],
        "cross_references": []
      },
      "formula": {
        "original_name": "Formula",
        "value": "C5-H8-N4-O12",
        "links": [],
        "cross_references": []
      },
      "major_category": {
        "original_name": "Major Category",
        "value": "Other Uses",
        "links": [],
        "cross_references": []
      },
      "synonyms": {
        "original_name": "Synonyms",
        "value": "1,3-Dinitrato-2,2-bis(nitratomethyl)propane; 1,3-Propanediol, 2,2-bis((nitrooxy)methyl)-, dinitrate (ester); 2,2-Bis((nitrooxy)methyl)-1,3-propanediol dinitrate (ester); 2,2-Bis(hydroxymethyl)-1,3-propanediol tetranitrate; 2,2-Bisdihydroxymethyl-1,3-propanediol tetranitrate; Angicap; Angitet; Antora; Arcotrate; Baritrate; C 2; C 2 (explosive); CHOT; CHot; Cardiacap; Corpent; Deltrate 20; Deltrate-20; Dilcoran 80; Dilcoran-80; Dipentrate; Duotrate; El PETN; Erinit; Erynitum; Extex; Hasethrol; Kaytrate; LX 02-1; LX 08-0; LX 13; LX 16 (explosive); Lentrat; Lowetrate; Martrate 45; Martrate-45; Metranil; Mikardol; Mycardol; Myotrate \"10\"; Myotrate 10; Neo-corovas; Neopentanetetrayl nitrate; Niperyt; Niperyth; Nitrin; Nitrinal; Nitrine; Nitrinol; Nitro-Riletten; Nitrolong; Nitropent; Nitropenta; Nitropenta 7W; Nitropentaerythrite; Nitropentaerythritol; Nitropenton; Nitrotalans; PBXN 301; PENT; PETN; Pen-Tetra; Pencard; Penta; Pentaerithrityli tetranitras [INN-Latin]; Pentaeritrile tetranitrato [DCIT]; Pentaerythrite tetranitrate; Pentaerythritol nitrate; Pentaerythritol tetranitrate, diluted; Pentaerythrityl tetranitrate; Pentaerythritylium tetranitricum; Pentafin; Pentanitrine; Pentanitrol; Pentanitrolum; Pentarit; Pentestan-80; Pentetrate unicelles; Penthrit; Penthrite; Pentitrate; Pentral 80; Pentrate; Pentriol; Pentrite; Pentritol; Pentritol Tempules; Pentryate; Pentryate 80; Pergitral; Peridex; Peridex-LA; Peritrate; Perityl; Prevangor; Quintrate; Rythritol; SDM No. 23; SDM No. 35; Subicard; TEN [Vasodilator]; Tanipent; Tentrate-20; Terpate; Tetranitrate de pentaerithrityle [INN-French]; Tetranitrato de pentaeritritilo [INN-Spanish]; Tetranitropentaerythrite; Tetrasule; Tranite D-lay; Vasitol; Vaso-80; Vaso-80 unicelies; Vasodiatol; Vasolat; XTX 8003; [ChemIDplus] UN0411 (Explosive 1.1D); UN3344",
        "links": [],
        "cross_references": [
          {
            "type": "name_match",
            "text": "pentaerythritol",
            "confidence": 1.0,
            "uuid": "0fe7143c-c4ff-4326-baca-71a7d500b479",
            "name": "Pentaerythritol",
            "url": "https://haz-map.com/Agents/586",
            "category": "agents"
          },
          {
            "type": "name_match",
            "text": "propane",
            "confidence": 1.0,
            "uuid": "563a611b-46ea-4bdc-b77b-17d8f7646283",
            "name": "Propane",
            "url": "https://haz-map.com/Agents/607",
            "category": "agents"
          },
          {
            "type": "name_match",
            "text": "pentaerythritol tetranitrate",
            "confidence": 1.0,
            "uuid": "e1f378cd-b9c7-4dcd-8881-d72278815c4a",
            "name": "Pentaerythritol tetranitrate",
            "url": "https://haz-map.com/Agents/1017",
            "category": "agents"
          },
          {
            "type": "name_match",
            "text": "neopentane",
            "confidence": 1.0,
            "uuid": "6031b173-f7e6-438c-8a89-2fb3976b1358",
            "name": "Neopentane",
            "url": "https://haz-map.com/Agents/1507",
            "category": "agents"
          },
          {
            "type": "name_match",
            "text": "1,3-propanediol",
            "confidence": 1.0,
            "uuid": "363c509c-abea-46ca-9e07-a05fe05d1854",
            "name": "1,3-Propanediol",
            "url": "https://haz-map.com/Agents/9616",
            "category": "agents"
          },
          {
            "type": "name_match",
            "text": "erythritol",
            "confidence": 1.0,
            "uuid": "ca232438-a65d-428a-93d7-e0e84dfe2fc1",
            "name": "Erythritol",
            "url": "https://haz-map.com/Agents/14150",
            "category": "agents"
          }
        ]
      },
      "category": {
        "original_name": "Category",
        "value": "Explosives",
        "links": [],
        "cross_references": []
      },
      "description": {
        "original_name": "Description",
        "value": "Colorless to white solid; [ICSC]",
        "links": [],
        "cross_references": []
      },
      "sourcesuses": {
        "original_name": "Sources/Uses",
        "value": "Used to manufacture detonating fuses (Primacord), blasting caps, and pharmaceuticals (vasodilators) [HSDB]",
        "links": [],
        "cross_references": [
          {
            "type": "name_match",
            "text": "pharmaceuticals",
            "confidence": 1.0,
            "uuid": "713c3c30-b67e-4a2f-a90f-b32f8a306332",
            "name": "PHARMACEUTICALS",
            "url": "https://haz-map.com/Agents/1000",
            "category": "agents"
          }
        ]
      },
      "comments": {
        "original_name": "Comments",
        "value": "Ingestion of large amounts may induce methemoglobinemia. [HSDB] May explode on heating, shock, friction, or concussion; May cause lowering of blood pressure; [ICSC] A high explosive and strong oxidizing agent; [CAMEO]",
        "links": [],
        "cross_references": [
          {
            "type": "name_match",
            "text": "shock",
            "confidence": 1.0,
            "uuid": "184088a3-33cc-4d64-b02e-bfb90ba4cbe5",
            "name": "shock",
            "url": "https://haz-map.com/Findings/76",
            "category": "findings"
          },
          {
            "type": "name_match",
            "text": "methemoglobin",
            "confidence": 1.0,
            "uuid": "afb7ebf5-d2a3-4e60-8d2e-3a19456344ee",
            "name": "Methemoglobin",
            "url": "https://haz-map.com/Agents/15467",
            "category": "agents"
          },
          {
            "type": "fuzzy_match",
            "text": "methemoglobinemia",
            "matched_name": "Methemoglobinemia, acute",
            "confidence": 0.7208333333333333,
            "uuid": "473a44bd-cf11-4710-a769-e8e2b25ba317",
            "category": "diseases",
            "url": "https://haz-map.com/Diseases/210"
          }
        ]
      },
      "biomedical_references": {
        "original_name": "Biomedical References",
        "value": "Search PubMed",
        "links": [
          {
            "text": "Search PubMed",
            "url": "https://www.ncbi.nlm.nih.gov/pubmed?term=Pentaerythritol+tetranitrate%20AND%20human%5Bmh%5D%20AND%20%28Occupational%20Diseases%20%5Bmh%5D%20OR%20Occupational%20Exposure%20%5Bmh%5D%29%20%20AND%20%28tox%5Bsb%5D%29&cmd=search"
          }
        ],
        "cross_references": []
      }
    },
    "exposure_assessment": {
      "vapor_pressure": {
        "original_name": "Vapor Pressure",
        "value": "1.36E-07 mm Hg",
        "links": [],
        "cross_references": []
      },
      "explanatory_notes": {
        "original_name": "Explanatory Notes",
        "value": "The Guide in the Emergency Response Guidebook is for \"Pentaerythritol tetranitrate, desensitized, solid, n.o.s., with more than 10% but not more than 20% PETN.\" VP from HSDB;",
        "links": [],
        "cross_references": [
          {
            "type": "name_match",
            "text": "pentaerythritol",
            "confidence": 1.0,
            "uuid": "0fe7143c-c4ff-4326-baca-71a7d500b479",
            "name": "Pentaerythritol",
            "url": "https://haz-map.com/Agents/586",
            "category": "agents"
          },
          {
            "type": "name_match",
            "text": "pentaerythritol tetranitrate",
            "confidence": 1.0,
            "uuid": "e1f378cd-b9c7-4dcd-8881-d72278815c4a",
            "name": "Pentaerythritol tetranitrate",
            "url": "https://haz-map.com/Agents/1017",
            "category": "agents"
          },
          {
            "type": "name_match",
            "text": "erythritol",
            "confidence": 1.0,
            "uuid": "ca232438-a65d-428a-93d7-e0e84dfe2fc1",
            "name": "Erythritol",
            "url": "https://haz-map.com/Agents/14150",
            "category": "agents"
          }
        ]
      }
    },
    "adverse_effects": {
      "methemoglobinemia": {
        "original_name": "Methemoglobinemia",
        "value": "MetHgb is secondary toxic effect",
        "links": [],
        "cross_references": []
      }
    },
    "diseases_processes_and_activities_linked_to_this_agent": {
      "other_information": {
        "original_name": "Other Information",
        "value": "No other related information on this agent was found.",
        "links": [],
        "cross_references": []
      }
    }
  },
  "cross_references": [
    {
      "type": "name_match",
      "text": "shock",
      "confidence": 1.0,
      "uuid": "184088a3-33cc-4d64-b02e-bfb90ba4cbe5",
      "name": "shock",
      "url": "https://haz-map.com/Findings/76",
      "category": "findings"
    },
    {
      "type": "name_match",
      "text": "pentaerythritol",
      "confidence": 1.0,
      "uuid": "0fe7143c-c4ff-4326-baca-71a7d500b479",
      "name": "Pentaerythritol",
      "url": "https://haz-map.com/Agents/586",
      "category": "agents"
    },
    {
      "type": "name_match",
      "text": "propane",
      "confidence": 1.0,
      "uuid": "563a611b-46ea-4bdc-b77b-17d8f7646283",
      "name": "Propane",
      "url": "https://haz-map.com/Agents/607",
      "category": "agents"
    },
    {
      "type": "name_match",
      "text": "pharmaceuticals",
      "confidence": 1.0,
      "uuid": "713c3c30-b67e-4a2f-a90f-b32f8a306332",
      "name": "PHARMACEUTICALS",
      "url": "https://haz-map.com/Agents/1000",
      "category": "agents"
    },
    {
      "type": "name_match",
      "text": "pentaerythritol tetranitrate",
      "confidence": 1.0,
      "uuid": "e1f378cd-b9c7-4dcd-8881-d72278815c4a",
      "name": "Pentaerythritol tetranitrate",
      "url": "https://haz-map.com/Agents/1017",
      "category": "agents"
    },
    {
      "type": "name_match",
      "text": "neopentane",
      "confidence": 1.0,
      "uuid": "6031b173-f7e6-438c-8a89-2fb3976b1358",
      "name": "Neopentane",
      "url": "https://haz-map.com/Agents/1507",
      "category": "agents"
    },
    {
      "type": "name_match",
      "text": "1,3-propanediol",
      "confidence": 1.0,
      "uuid": "363c509c-abea-46ca-9e07-a05fe05d1854",
      "name": "1,3-Propanediol",
      "url": "https://haz-map.com/Agents/9616",
      "category": "agents"
    },
    {
      "type": "name_match",
      "text": "erythritol",
      "confidence": 1.0,
      "uuid": "ca232438-a65d-428a-93d7-e0e84dfe2fc1",
      "name": "Erythritol",
      "url": "https://haz-map.com/Agents/14150",
      "category": "agents"
    },
    {
      "type": "name_match",
      "text": "methemoglobin",
      "confidence": 1.0,
      "uuid": "afb7ebf5-d2a3-4e60-8d2e-3a19456344ee",
      "name": "Methemoglobin",
      "url": "https://haz-map.com/Agents/15467",
      "category": "agents"
    },
    {
      "type": "fuzzy_match",
      "text": "methemoglobinemia",
      "matched_name": "Methemoglobinemia, acute",
      "confidence": 0.7208333333333333,
      "uuid": "473a44bd-cf11-4710-a769-e8e2b25ba317",
      "category": "diseases",
      "url": "https://haz-map.com/Diseases/210"
    }
  ],
  "all_links": [
    {
      "text": "Search PubMed",
      "url": "https://www.ncbi.nlm.nih.gov/pubmed?term=Pentaerythritol+tetranitrate%20AND%20human%5Bmh%5D%20AND%20%28Occupational%20Diseases%20%5Bmh%5D%20OR%20Occupational%20Exposure%20%5Bmh%5D%29%20%20AND%20%28tox%5Bsb%5D%29&cmd=search"
    }
  ]
}