{
  "metadata": {
    "scraped_from": "https://haz-map.com/Agents/16961",
    "entity_name": "Propionamide",
    "category": "agents",
    "uuid": "e205ba73-04d3-41a7-bf32-745af97a8481",
    "scraped_at": "2025-07-23T21:42:20.548930"
  },
  "parsed_at": "2025-07-24T00:55:21.828693",
  "title": "Propionamide",
  "sections": {
    "general": {
      "agent_name": {
        "original_name": "Agent Name",
        "value": "Propionamide",
        "links": [],
        "cross_references": [
          {
            "type": "name_match",
            "text": "propionamide",
            "confidence": 1.0,
            "uuid": "e205ba73-04d3-41a7-bf32-745af97a8481",
            "name": "Propionamide",
            "url": "https://haz-map.com/Agents/16961",
            "category": "agents"
          }
        ]
      },
      "cas_number": {
        "original_name": "CAS Number",
        "value": "79-05-0",
        "links": [],
        "cross_references": []
      },
      "formula": {
        "original_name": "Formula",
        "value": "C3-H7-N-O",
        "links": [],
        "cross_references": []
      },
      "major_category": {
        "original_name": "Major Category",
        "value": "Solvents",
        "links": [],
        "cross_references": []
      },
      "synonyms": {
        "original_name": "Synonyms",
        "value": "Amid kyseliny propionove [Czech]; Propanamide; Propanimidic acid; Propionic acid amide; Propionic amide; Propionimidic acid; Propionimidic acid (VAN); Propylamide; [ChemIDplus]",
        "links": [],
        "cross_references": [
          {
            "type": "name_match",
            "text": "propionic acid",
            "confidence": 1.0,
            "uuid": "519c4d0a-ac6f-4f79-a08f-47ebc278e0b4",
            "name": "Propionic acid",
            "url": "https://haz-map.com/Agents/609",
            "category": "agents"
          }
        ]
      },
      "category": {
        "original_name": "Category",
        "value": "Amides (<C10)",
        "links": [],
        "cross_references": []
      },
      "description": {
        "original_name": "Description",
        "value": "Solid; [Merck Index] Off-white crystalline flakes; [Alfa Aesar MSDS]",
        "links": [],
        "cross_references": [
          {
            "type": "fuzzy_match",
            "text": "crystalline",
            "matched_name": "Silica, crystalline",
            "confidence": 0.7061403508771931,
            "uuid": "f920e8a2-46df-41b7-af8d-0368a777251e",
            "category": "agents",
            "url": "https://haz-map.com/Agents/427"
          }
        ]
      },
      "comments": {
        "original_name": "Comments",
        "value": "May cause irritation; [Alfa Aesar MSDS] See \"Dimethyl acetamide.\"",
        "links": [],
        "cross_references": [
          {
            "type": "name_match",
            "text": "dimethyl acetamide",
            "confidence": 1.0,
            "uuid": "b97bd803-79d4-462f-99d9-d8c2e2a6de05",
            "name": "Dimethyl acetamide",
            "url": "https://haz-map.com/Agents/460",
            "category": "agents"
          },
          {
            "type": "name_match",
            "text": "acetamide",
            "confidence": 1.0,
            "uuid": "dd8ffc77-2f5f-4c87-8995-3206d6c9affc",
            "name": "Acetamide",
            "url": "https://haz-map.com/Agents/3385",
            "category": "agents"
          }
        ]
      },
      "biomedical_references": {
        "original_name": "Biomedical References",
        "value": "Search PubMed",
        "links": [
          {
            "text": "Search PubMed",
            "url": "https://www.ncbi.nlm.nih.gov/pubmed?term=Propionamide%20AND%20human%5Bmh%5D%20AND%20%28Occupational%20Diseases%20%5Bmh%5D%20OR%20Occupational%20Exposure%20%5Bmh%5D%29%20%20AND%20%28tox%5Bsb%5D%29&cmd=search"
          }
        ],
        "cross_references": []
      }
    },
    "exposure_assessment": {
      "vapor_pressure": {
        "original_name": "Vapor Pressure",
        "value": "0.0378 mm Hg",
        "links": [],
        "cross_references": []
      },
      "lethal_concentration": {
        "original_name": "Lethal Concentration",
        "value": "LCLo (rat) = 8,000 ppm",
        "links": [],
        "cross_references": []
      }
    },
    "adverse_effects": {
      "neurotoxin": {
        "original_name": "Neurotoxin",
        "value": "Acute solvent syndrome",
        "links": [],
        "cross_references": []
      }
    },
    "diseases_processes_and_activities_linked_to_this_agent": {
      "diseases": {
        "original_name": "Diseases",
        "value": "Occupational diseases associated with exposure to this agent: Solvents, acute toxic effect",
        "links": [
          {
            "text": "Solvents, acute toxic effect",
            "url": "https://haz-map.com/Diseases/326"
          }
        ],
        "cross_references": [
          {
            "type": "url_match",
            "text": "Solvents, acute toxic effect",
            "url": "https://haz-map.com/Diseases/326",
            "confidence": 1.0,
            "uuid": "581e90e3-9d0c-45f0-aa6c-3468c28da129",
            "name": "Solvents, acute toxic effect",
            "category": "diseases"
          }
        ]
      }
    }
  },
  "cross_references": [
    {
      "type": "url_match",
      "text": "Solvents, acute toxic effect",
      "url": "https://haz-map.com/Diseases/326",
      "confidence": 1.0,
      "uuid": "581e90e3-9d0c-45f0-aa6c-3468c28da129",
      "name": "Solvents, acute toxic effect",
      "category": "diseases"
    },
    {
      "type": "name_match",
      "text": "dimethyl acetamide",
      "confidence": 1.0,
      "uuid": "b97bd803-79d4-462f-99d9-d8c2e2a6de05",
      "name": "Dimethyl acetamide",
      "url": "https://haz-map.com/Agents/460",
      "category": "agents"
    },
    {
      "type": "name_match",
      "text": "propionic acid",
      "confidence": 1.0,
      "uuid": "519c4d0a-ac6f-4f79-a08f-47ebc278e0b4",
      "name": "Propionic acid",
      "url": "https://haz-map.com/Agents/609",
      "category": "agents"
    },
    {
      "type": "name_match",
      "text": "acetamide",
      "confidence": 1.0,
      "uuid": "dd8ffc77-2f5f-4c87-8995-3206d6c9affc",
      "name": "Acetamide",
      "url": "https://haz-map.com/Agents/3385",
      "category": "agents"
    },
    {
      "type": "name_match",
      "text": "propionamide",
      "confidence": 1.0,
      "uuid": "e205ba73-04d3-41a7-bf32-745af97a8481",
      "name": "Propionamide",
      "url": "https://haz-map.com/Agents/16961",
      "category": "agents"
    },
    {
      "type": "fuzzy_match",
      "text": "crystalline",
      "matched_name": "Silica, crystalline",
      "confidence": 0.7061403508771931,
      "uuid": "f920e8a2-46df-41b7-af8d-0368a777251e",
      "category": "agents",
      "url": "https://haz-map.com/Agents/427"
    }
  ],
  "all_links": [
    {
      "text": "Search PubMed",
      "url": "https://www.ncbi.nlm.nih.gov/pubmed?term=Propionamide%20AND%20human%5Bmh%5D%20AND%20%28Occupational%20Diseases%20%5Bmh%5D%20OR%20Occupational%20Exposure%20%5Bmh%5D%29%20%20AND%20%28tox%5Bsb%5D%29&cmd=search"
    },
    {
      "text": "Solvents, acute toxic effect",
      "url": "https://haz-map.com/Diseases/326"
    }
  ]
}