{
  "metadata": {
    "scraped_from": "https://haz-map.com/Agents/21158",
    "entity_name": "Methylguanidine",
    "category": "agents",
    "uuid": "e284041f-f4ca-4d7b-a3c0-e3ff1c8930a4",
    "scraped_at": "2025-07-23T22:38:36.518917"
  },
  "parsed_at": "2025-07-24T01:16:15.084396",
  "title": "Methylguanidine",
  "sections": {
    "general": {
      "agent_name": {
        "original_name": "Agent Name",
        "value": "Methylguanidine",
        "links": [],
        "cross_references": [
          {
            "type": "name_match",
            "text": "guanidine",
            "confidence": 1.0,
            "uuid": "0569bc2f-9177-43a3-a8fc-30683a513f3d",
            "name": "Guanidine",
            "url": "https://haz-map.com/Agents/14472",
            "category": "agents"
          },
          {
            "type": "name_match",
            "text": "methylguanidine",
            "confidence": 1.0,
            "uuid": "e284041f-f4ca-4d7b-a3c0-e3ff1c8930a4",
            "name": "Methylguanidine",
            "url": "https://haz-map.com/Agents/21158",
            "category": "agents"
          }
        ]
      },
      "cas_number": {
        "original_name": "CAS Number",
        "value": "471-29-4",
        "links": [],
        "cross_references": []
      },
      "formula": {
        "original_name": "Formula",
        "value": "C2-H7-N3",
        "links": [],
        "cross_references": []
      },
      "major_category": {
        "original_name": "Major Category",
        "value": "Nitrogen Compounds",
        "links": [],
        "cross_references": [
          {
            "type": "name_match",
            "text": "nitrogen",
            "confidence": 1.0,
            "uuid": "db5e90a9-06d2-45b9-8b81-f345a89b0bc0",
            "name": "Nitrogen",
            "url": "https://haz-map.com/Agents/1072",
            "category": "agents"
          }
        ]
      },
      "synonyms": {
        "original_name": "Synonyms",
        "value": "Methylguanidin [German]; Monomethyl guanidin [German]; Monomethylguanidine; N-Methylguanidine; Guanidine, methyl-; [ChemIDplus]",
        "links": [],
        "cross_references": [
          {
            "type": "name_match",
            "text": "guanidine",
            "confidence": 1.0,
            "uuid": "0569bc2f-9177-43a3-a8fc-30683a513f3d",
            "name": "Guanidine",
            "url": "https://haz-map.com/Agents/14472",
            "category": "agents"
          },
          {
            "type": "name_match",
            "text": "methylguanidine",
            "confidence": 1.0,
            "uuid": "e284041f-f4ca-4d7b-a3c0-e3ff1c8930a4",
            "name": "Methylguanidine",
            "url": "https://haz-map.com/Agents/21158",
            "category": "agents"
          }
        ]
      },
      "category": {
        "original_name": "Category",
        "value": "Other Nitrogen Compounds",
        "links": [],
        "cross_references": [
          {
            "type": "name_match",
            "text": "nitrogen",
            "confidence": 1.0,
            "uuid": "db5e90a9-06d2-45b9-8b81-f345a89b0bc0",
            "name": "Nitrogen",
            "url": "https://haz-map.com/Agents/1072",
            "category": "agents"
          }
        ]
      },
      "description": {
        "original_name": "Description",
        "value": "Colorless deliquescent solid; [Merck Index]",
        "links": [],
        "cross_references": []
      },
      "sourcesuses": {
        "original_name": "Sources/Uses",
        "value": "Produced during putrefaction; [Merck Index]",
        "links": [],
        "cross_references": []
      },
      "comments": {
        "original_name": "Comments",
        "value": "Causes other liver changes, multiple enzyme effects, and effects on inflammation in acute intraperitoneal studies of rats; [RTECS] See \"Guanidine.\"",
        "links": [],
        "cross_references": [
          {
            "type": "name_match",
            "text": "guanidine",
            "confidence": 1.0,
            "uuid": "0569bc2f-9177-43a3-a8fc-30683a513f3d",
            "name": "Guanidine",
            "url": "https://haz-map.com/Agents/14472",
            "category": "agents"
          }
        ]
      },
      "biomedical_references": {
        "original_name": "Biomedical References",
        "value": "Search PubMed",
        "links": [
          {
            "text": "Search PubMed",
            "url": "https://www.ncbi.nlm.nih.gov/pubmed?term=Methylguanidine%20AND%20human%5Bmh%5D%20AND%20%28Occupational%20Diseases%20%5Bmh%5D%20OR%20Occupational%20Exposure%20%5Bmh%5D%29%20%20AND%20%28tox%5Bsb%5D%29&cmd=search"
          }
        ],
        "cross_references": []
      }
    },
    "exposure_assessment": {
      "vapor_pressure": {
        "original_name": "Vapor Pressure",
        "value": "3.28 mm Hg",
        "links": [],
        "cross_references": []
      }
    },
    "diseases_processes_and_activities_linked_to_this_agent": {
      "other_information": {
        "original_name": "Other Information",
        "value": "No other related information on this agent was found.",
        "links": [],
        "cross_references": []
      }
    }
  },
  "cross_references": [
    {
      "type": "name_match",
      "text": "nitrogen",
      "confidence": 1.0,
      "uuid": "db5e90a9-06d2-45b9-8b81-f345a89b0bc0",
      "name": "Nitrogen",
      "url": "https://haz-map.com/Agents/1072",
      "category": "agents"
    },
    {
      "type": "name_match",
      "text": "guanidine",
      "confidence": 1.0,
      "uuid": "0569bc2f-9177-43a3-a8fc-30683a513f3d",
      "name": "Guanidine",
      "url": "https://haz-map.com/Agents/14472",
      "category": "agents"
    },
    {
      "type": "name_match",
      "text": "methylguanidine",
      "confidence": 1.0,
      "uuid": "e284041f-f4ca-4d7b-a3c0-e3ff1c8930a4",
      "name": "Methylguanidine",
      "url": "https://haz-map.com/Agents/21158",
      "category": "agents"
    }
  ],
  "all_links": [
    {
      "text": "Search PubMed",
      "url": "https://www.ncbi.nlm.nih.gov/pubmed?term=Methylguanidine%20AND%20human%5Bmh%5D%20AND%20%28Occupational%20Diseases%20%5Bmh%5D%20OR%20Occupational%20Exposure%20%5Bmh%5D%29%20%20AND%20%28tox%5Bsb%5D%29&cmd=search"
    }
  ]
}