{
  "metadata": {
    "scraped_from": "https://haz-map.com/Agents/20384",
    "entity_name": "Butyrophenone",
    "category": "agents",
    "uuid": "e2a228f8-3560-4648-b2d2-76d89e6b12cf",
    "scraped_at": "2025-07-23T22:24:21.321152"
  },
  "parsed_at": "2025-07-24T00:53:56.771061",
  "title": "Butyrophenone",
  "sections": {
    "general": {
      "agent_name": {
        "original_name": "Agent Name",
        "value": "Butyrophenone",
        "links": [],
        "cross_references": [
          {
            "type": "name_match",
            "text": "butyrophenone",
            "confidence": 1.0,
            "uuid": "e2a228f8-3560-4648-b2d2-76d89e6b12cf",
            "name": "Butyrophenone",
            "url": "https://haz-map.com/Agents/20384",
            "category": "agents"
          }
        ]
      },
      "cas_number": {
        "original_name": "CAS Number",
        "value": "495-40-9",
        "links": [],
        "cross_references": []
      },
      "formula": {
        "original_name": "Formula",
        "value": "C10-H12-O",
        "links": [],
        "cross_references": []
      },
      "major_category": {
        "original_name": "Major Category",
        "value": "Other Classes",
        "links": [],
        "cross_references": []
      },
      "synonyms": {
        "original_name": "Synonyms",
        "value": "1-Phenyl-1-butanone; n-Butyrophenone; Phenyl propyl ketone; Propyl phenyl ketone; 1-Butanone, 1-phenyl-; [ChemIDplus] 1-Phenylbutan-1-one; [EFSA]",
        "links": [],
        "cross_references": [
          {
            "type": "name_match",
            "text": "butyrophenone",
            "confidence": 1.0,
            "uuid": "e2a228f8-3560-4648-b2d2-76d89e6b12cf",
            "name": "Butyrophenone",
            "url": "https://haz-map.com/Agents/20384",
            "category": "agents"
          }
        ]
      },
      "category": {
        "original_name": "Category",
        "value": "Aromatic Ketones",
        "links": [],
        "cross_references": []
      },
      "description": {
        "original_name": "Description",
        "value": "Colorless liquid; [Alfa Aesar MSDS]",
        "links": [],
        "cross_references": []
      },
      "comments": {
        "original_name": "Comments",
        "value": "Safe when used as a flavoring agent in food; [EFSA] May cause irritation; [Alfa Aesar MSDS]",
        "links": [],
        "cross_references": []
      },
      "biomedical_references": {
        "original_name": "Biomedical References",
        "value": "Search PubMed",
        "links": [
          {
            "text": "Search PubMed",
            "url": "https://www.ncbi.nlm.nih.gov/pubmed?term=Butyrophenone%20AND%20human%5Bmh%5D%20AND%20%28Occupational%20Diseases%20%5Bmh%5D%20OR%20Occupational%20Exposure%20%5Bmh%5D%29%20%20AND%20%28tox%5Bsb%5D%29&cmd=search"
          }
        ],
        "cross_references": []
      }
    },
    "exposure_assessment": {
      "vapor_pressure": {
        "original_name": "Vapor Pressure",
        "value": "0.084 mm Hg",
        "links": [],
        "cross_references": []
      }
    },
    "diseases_processes_and_activities_linked_to_this_agent": {
      "other_information": {
        "original_name": "Other Information",
        "value": "No other related information on this agent was found.",
        "links": [],
        "cross_references": []
      }
    }
  },
  "cross_references": [
    {
      "type": "name_match",
      "text": "butyrophenone",
      "confidence": 1.0,
      "uuid": "e2a228f8-3560-4648-b2d2-76d89e6b12cf",
      "name": "Butyrophenone",
      "url": "https://haz-map.com/Agents/20384",
      "category": "agents"
    }
  ],
  "all_links": [
    {
      "text": "Search PubMed",
      "url": "https://www.ncbi.nlm.nih.gov/pubmed?term=Butyrophenone%20AND%20human%5Bmh%5D%20AND%20%28Occupational%20Diseases%20%5Bmh%5D%20OR%20Occupational%20Exposure%20%5Bmh%5D%29%20%20AND%20%28tox%5Bsb%5D%29&cmd=search"
    }
  ]
}