{
  "metadata": {
    "scraped_from": "https://haz-map.com/Agents/19664",
    "entity_name": "2-Nitroresorcinol",
    "category": "agents",
    "uuid": "e2ca893c-5320-4eb7-b243-a9677d6d00cc",
    "scraped_at": "2025-07-23T22:10:32.149322"
  },
  "parsed_at": "2025-07-24T01:02:43.859656",
  "title": "2-Nitroresorcinol",
  "sections": {
    "general": {
      "agent_name": {
        "original_name": "Agent Name",
        "value": "2-Nitroresorcinol",
        "links": [],
        "cross_references": [
          {
            "type": "name_match",
            "text": "resorcinol",
            "confidence": 1.0,
            "uuid": "ae206fe4-b82a-4fe5-80a6-c479c171146e",
            "name": "Resorcinol",
            "url": "https://haz-map.com/Agents/617",
            "category": "agents"
          },
          {
            "type": "name_match",
            "text": "orcinol",
            "confidence": 1.0,
            "uuid": "ec7be405-d3a6-4ffe-a998-44bdf8777b2a",
            "name": "Orcinol",
            "url": "https://haz-map.com/Agents/16285",
            "category": "agents"
          },
          {
            "type": "name_match",
            "text": "2-nitroresorcinol",
            "confidence": 1.0,
            "uuid": "e2ca893c-5320-4eb7-b243-a9677d6d00cc",
            "name": "2-Nitroresorcinol",
            "url": "https://haz-map.com/Agents/19664",
            "category": "agents"
          }
        ]
      },
      "cas_number": {
        "original_name": "CAS Number",
        "value": "601-89-8",
        "links": [],
        "cross_references": []
      },
      "formula": {
        "original_name": "Formula",
        "value": "C6-H5-N-O4",
        "links": [],
        "cross_references": []
      },
      "major_category": {
        "original_name": "Major Category",
        "value": "Nitrogen Compounds",
        "links": [],
        "cross_references": [
          {
            "type": "name_match",
            "text": "nitrogen",
            "confidence": 1.0,
            "uuid": "db5e90a9-06d2-45b9-8b81-f345a89b0bc0",
            "name": "Nitrogen",
            "url": "https://haz-map.com/Agents/1072",
            "category": "agents"
          }
        ]
      },
      "synonyms": {
        "original_name": "Synonyms",
        "value": "1,3-Dihydroxy-2-nitrobenzene; Resorcinol, 2-nitro-; 1,3-Benzenediol, 2-nitro-; [ChemIDplus]",
        "links": [],
        "cross_references": [
          {
            "type": "name_match",
            "text": "benzene",
            "confidence": 1.0,
            "uuid": "b05124de-5f34-4c14-8f04-ccb20c3780d9",
            "name": "Benzene",
            "url": "https://haz-map.com/Agents/5",
            "category": "agents"
          },
          {
            "type": "name_match",
            "text": "nitrobenzene",
            "confidence": 1.0,
            "uuid": "4488262c-4790-4774-a462-bf0cc71ff40c",
            "name": "Nitrobenzene",
            "url": "https://haz-map.com/Agents/569",
            "category": "agents"
          },
          {
            "type": "name_match",
            "text": "resorcinol",
            "confidence": 1.0,
            "uuid": "ae206fe4-b82a-4fe5-80a6-c479c171146e",
            "name": "Resorcinol",
            "url": "https://haz-map.com/Agents/617",
            "category": "agents"
          },
          {
            "type": "name_match",
            "text": "orcinol",
            "confidence": 1.0,
            "uuid": "ec7be405-d3a6-4ffe-a998-44bdf8777b2a",
            "name": "Orcinol",
            "url": "https://haz-map.com/Agents/16285",
            "category": "agents"
          }
        ]
      },
      "category": {
        "original_name": "Category",
        "value": "Nitros, Aromatic",
        "links": [],
        "cross_references": []
      },
      "description": {
        "original_name": "Description",
        "value": "Orange crystalline powder; [Acros Organics MSDS]",
        "links": [],
        "cross_references": [
          {
            "type": "fuzzy_match",
            "text": "crystalline",
            "matched_name": "Silica, crystalline",
            "confidence": 0.7061403508771931,
            "uuid": "f920e8a2-46df-41b7-af8d-0368a777251e",
            "category": "agents",
            "url": "https://haz-map.com/Agents/427"
          }
        ]
      },
      "comments": {
        "original_name": "Comments",
        "value": "An irritant; [Acros Organics MSDS] See \"2,4-Dinitroresorcinol.\"",
        "links": [],
        "cross_references": [
          {
            "type": "name_match",
            "text": "2,4-d",
            "confidence": 1.0,
            "uuid": "bed35f54-2d93-4ffd-a3ee-723ab365faf1",
            "name": "2,4-D",
            "url": "https://haz-map.com/Agents/389",
            "category": "agents"
          },
          {
            "type": "name_match",
            "text": "resorcinol",
            "confidence": 1.0,
            "uuid": "ae206fe4-b82a-4fe5-80a6-c479c171146e",
            "name": "Resorcinol",
            "url": "https://haz-map.com/Agents/617",
            "category": "agents"
          },
          {
            "type": "name_match",
            "text": "orcinol",
            "confidence": 1.0,
            "uuid": "ec7be405-d3a6-4ffe-a998-44bdf8777b2a",
            "name": "Orcinol",
            "url": "https://haz-map.com/Agents/16285",
            "category": "agents"
          },
          {
            "type": "name_match",
            "text": "2,4-dinitroresorcinol",
            "confidence": 1.0,
            "uuid": "47606bb1-258c-4cac-a87d-2c5e9ebd07d4",
            "name": "2,4-Dinitroresorcinol",
            "url": "https://haz-map.com/Agents/19475",
            "category": "agents"
          }
        ]
      },
      "biomedical_references": {
        "original_name": "Biomedical References",
        "value": "Search PubMed",
        "links": [
          {
            "text": "Search PubMed",
            "url": "https://www.ncbi.nlm.nih.gov/pubmed?term=2-Nitroresorcinol%20AND%20human%5Bmh%5D%20AND%20%28Occupational%20Diseases%20%5Bmh%5D%20OR%20Occupational%20Exposure%20%5Bmh%5D%29%20%20AND%20%28tox%5Bsb%5D%29&cmd=search"
          }
        ],
        "cross_references": []
      }
    },
    "exposure_assessment": {
      "vapor_pressure": {
        "original_name": "Vapor Pressure",
        "value": "2.27E-05 mm Hg",
        "links": [],
        "cross_references": []
      }
    },
    "diseases_processes_and_activities_linked_to_this_agent": {
      "other_information": {
        "original_name": "Other Information",
        "value": "No other related information on this agent was found.",
        "links": [],
        "cross_references": []
      }
    }
  },
  "cross_references": [
    {
      "type": "name_match",
      "text": "benzene",
      "confidence": 1.0,
      "uuid": "b05124de-5f34-4c14-8f04-ccb20c3780d9",
      "name": "Benzene",
      "url": "https://haz-map.com/Agents/5",
      "category": "agents"
    },
    {
      "type": "name_match",
      "text": "2,4-d",
      "confidence": 1.0,
      "uuid": "bed35f54-2d93-4ffd-a3ee-723ab365faf1",
      "name": "2,4-D",
      "url": "https://haz-map.com/Agents/389",
      "category": "agents"
    },
    {
      "type": "name_match",
      "text": "nitrobenzene",
      "confidence": 1.0,
      "uuid": "4488262c-4790-4774-a462-bf0cc71ff40c",
      "name": "Nitrobenzene",
      "url": "https://haz-map.com/Agents/569",
      "category": "agents"
    },
    {
      "type": "name_match",
      "text": "resorcinol",
      "confidence": 1.0,
      "uuid": "ae206fe4-b82a-4fe5-80a6-c479c171146e",
      "name": "Resorcinol",
      "url": "https://haz-map.com/Agents/617",
      "category": "agents"
    },
    {
      "type": "name_match",
      "text": "nitrogen",
      "confidence": 1.0,
      "uuid": "db5e90a9-06d2-45b9-8b81-f345a89b0bc0",
      "name": "Nitrogen",
      "url": "https://haz-map.com/Agents/1072",
      "category": "agents"
    },
    {
      "type": "name_match",
      "text": "orcinol",
      "confidence": 1.0,
      "uuid": "ec7be405-d3a6-4ffe-a998-44bdf8777b2a",
      "name": "Orcinol",
      "url": "https://haz-map.com/Agents/16285",
      "category": "agents"
    },
    {
      "type": "name_match",
      "text": "2,4-dinitroresorcinol",
      "confidence": 1.0,
      "uuid": "47606bb1-258c-4cac-a87d-2c5e9ebd07d4",
      "name": "2,4-Dinitroresorcinol",
      "url": "https://haz-map.com/Agents/19475",
      "category": "agents"
    },
    {
      "type": "name_match",
      "text": "2-nitroresorcinol",
      "confidence": 1.0,
      "uuid": "e2ca893c-5320-4eb7-b243-a9677d6d00cc",
      "name": "2-Nitroresorcinol",
      "url": "https://haz-map.com/Agents/19664",
      "category": "agents"
    },
    {
      "type": "fuzzy_match",
      "text": "crystalline",
      "matched_name": "Silica, crystalline",
      "confidence": 0.7061403508771931,
      "uuid": "f920e8a2-46df-41b7-af8d-0368a777251e",
      "category": "agents",
      "url": "https://haz-map.com/Agents/427"
    }
  ],
  "all_links": [
    {
      "text": "Search PubMed",
      "url": "https://www.ncbi.nlm.nih.gov/pubmed?term=2-Nitroresorcinol%20AND%20human%5Bmh%5D%20AND%20%28Occupational%20Diseases%20%5Bmh%5D%20OR%20Occupational%20Exposure%20%5Bmh%5D%29%20%20AND%20%28tox%5Bsb%5D%29&cmd=search"
    }
  ]
}