{
  "metadata": {
    "scraped_from": "https://haz-map.com/Agents/1939",
    "entity_name": "Octogen",
    "category": "agents",
    "uuid": "e3371b20-4e97-4bc5-a2da-26416e104f50",
    "scraped_at": "2025-07-23T19:07:08.134032"
  },
  "parsed_at": "2025-07-24T01:05:47.145100",
  "title": "Octogen",
  "sections": {
    "general": {
      "agent_name": {
        "original_name": "Agent Name",
        "value": "Octogen",
        "links": [],
        "cross_references": [
          {
            "type": "name_match",
            "text": "octogen",
            "confidence": 1.0,
            "uuid": "e3371b20-4e97-4bc5-a2da-26416e104f50",
            "name": "Octogen",
            "url": "https://haz-map.com/Agents/1939",
            "category": "agents"
          }
        ]
      },
      "alternative_name": {
        "original_name": "Alternative Name",
        "value": "HMX",
        "links": [],
        "cross_references": []
      },
      "cas_number": {
        "original_name": "CAS Number",
        "value": "2691-41-0",
        "links": [],
        "cross_references": []
      },
      "formula": {
        "original_name": "Formula",
        "value": "C4-H8-N8-O8",
        "links": [],
        "cross_references": []
      },
      "major_category": {
        "original_name": "Major Category",
        "value": "Other Uses",
        "links": [],
        "cross_references": []
      },
      "synonyms": {
        "original_name": "Synonyms",
        "value": "HMX; 1,3,5,7-Tetranitro-1,3,5,7-tetraazacyclooctane; 1,3,5,7-Tetrazocine, octahydro-1,3,5,7-tetranitro-; Cyclotetramethylenetetranitramine; HMX; HW 4; LX 14-0; Octogen; Oktogen; Tetramethylenetetranitramine; beta-Hmy; Cyclotetramethylenetetranitramine, wetted or HMX, wetted or octogen, wetted with not <15% water, by mass; Octolite or octol, dry or wetted with < 15% water, by mass; UN0226; UN0484; [ChemIDplus]",
        "links": [],
        "cross_references": [
          {
            "type": "name_match",
            "text": "octane",
            "confidence": 1.0,
            "uuid": "feb2932c-69c5-4142-b6b6-bde017998940",
            "name": "Octane",
            "url": "https://haz-map.com/Agents/106",
            "category": "agents"
          },
          {
            "type": "name_match",
            "text": "ramin",
            "confidence": 1.0,
            "uuid": "f0fbb433-5eef-4a70-a208-66cc45df5768",
            "name": "Ramin",
            "url": "https://haz-map.com/Agents/962",
            "category": "agents"
          },
          {
            "type": "name_match",
            "text": "ethylene",
            "confidence": 1.0,
            "uuid": "958eacc0-5135-4b62-bb93-6df972bf552f",
            "name": "Ethylene",
            "url": "https://haz-map.com/Agents/1076",
            "category": "agents"
          },
          {
            "type": "name_match",
            "text": "octogen",
            "confidence": 1.0,
            "uuid": "e3371b20-4e97-4bc5-a2da-26416e104f50",
            "name": "Octogen",
            "url": "https://haz-map.com/Agents/1939",
            "category": "agents"
          },
          {
            "type": "name_match",
            "text": "cyclooctane",
            "confidence": 1.0,
            "uuid": "5182724b-2ba7-4a86-ba3f-f0637a8df12a",
            "name": "Cyclooctane",
            "url": "https://haz-map.com/Agents/13476",
            "category": "agents"
          },
          {
            "type": "name_match",
            "text": "water",
            "confidence": 1.0,
            "uuid": "6f2a7557-dfd2-49bc-9b4b-a93cd8e225d4",
            "name": "Water",
            "url": "https://haz-map.com/Agents/18668",
            "category": "agents"
          }
        ]
      },
      "category": {
        "original_name": "Category",
        "value": "Explosives",
        "links": [],
        "cross_references": []
      },
      "description": {
        "original_name": "Description",
        "value": "White crystals; [CAMEO]",
        "links": [],
        "cross_references": []
      },
      "sourcesuses": {
        "original_name": "Sources/Uses",
        "value": "Used in propellants and explosives; [CAMEO]",
        "links": [],
        "cross_references": []
      },
      "comments": {
        "original_name": "Comments",
        "value": "Studies of munition plant workers have been negative for adverse effects. In high-dose animal studies, injury to the kidneys, liver, and CNS is observed. Rats survive exposures up to 4,000 mg/kg/day for 13 weeks. [HSDB] Emits nitrogen oxides when heated to decomposition; Explodes at 279 degrees C; Toxic by ingestion; [Sax] \"Highly explosive!\" [Merck Index, 6758]",
        "links": [],
        "cross_references": [
          {
            "type": "name_match",
            "text": "nitrogen",
            "confidence": 1.0,
            "uuid": "db5e90a9-06d2-45b9-8b81-f345a89b0bc0",
            "name": "Nitrogen",
            "url": "https://haz-map.com/Agents/1072",
            "category": "agents"
          }
        ]
      },
      "restricted": {
        "original_name": "Restricted",
        "value": "Transport of HMX (dry or unphlegmatized) is forbidden. Transport of HMX, desensitized, or HMX wetted with not <15% water is forbidden by cargo aircraft or passenger aircraft/rail. [HMT]",
        "links": [],
        "cross_references": [
          {
            "type": "name_match",
            "text": "dde",
            "confidence": 1.0,
            "uuid": "88506fb4-e7b1-4bde-a283-917057f67fc2",
            "name": "DDE",
            "url": "https://haz-map.com/Agents/4656",
            "category": "agents"
          },
          {
            "type": "name_match",
            "text": "water",
            "confidence": 1.0,
            "uuid": "6f2a7557-dfd2-49bc-9b4b-a93cd8e225d4",
            "name": "Water",
            "url": "https://haz-map.com/Agents/18668",
            "category": "agents"
          }
        ]
      },
      "reference_link_1": {
        "original_name": "Reference Link #1",
        "value": "ATSDR - Toxicological Profile: HMX (Octogen)",
        "links": [
          {
            "text": "ATSDR - Toxicological Profile: HMX (Octogen)",
            "url": "http://www.atsdr.cdc.gov/toxprofiles/tp.asp?id=877&tid=171"
          }
        ],
        "cross_references": [
          {
            "type": "name_match",
            "text": "octogen",
            "confidence": 1.0,
            "uuid": "e3371b20-4e97-4bc5-a2da-26416e104f50",
            "name": "Octogen",
            "url": "https://haz-map.com/Agents/1939",
            "category": "agents"
          }
        ]
      },
      "biomedical_references": {
        "original_name": "Biomedical References",
        "value": "Search PubMed",
        "links": [
          {
            "text": "Search PubMed",
            "url": "https://www.ncbi.nlm.nih.gov/pubmed?term=Octogen%20AND%20human%5Bmh%5D%20AND%20%28Occupational%20Diseases%20%5Bmh%5D%20OR%20Occupational%20Exposure%20%5Bmh%5D%29%20%20AND%20%28tox%5Bsb%5D%29&cmd=search"
          }
        ],
        "cross_references": []
      }
    },
    "exposure_assessment": {
      "vapor_pressure": {
        "original_name": "Vapor Pressure",
        "value": "2.41E-08 mm Hg",
        "links": [],
        "cross_references": []
      },
      "explanatory_notes": {
        "original_name": "Explanatory Notes",
        "value": "Melting point equals 281 degrees C. [CAMEO]",
        "links": [],
        "cross_references": []
      }
    },
    "diseases_processes_and_activities_linked_to_this_agent": {
      "other_information": {
        "original_name": "Other Information",
        "value": "No other related information on this agent was found.",
        "links": [],
        "cross_references": []
      }
    }
  },
  "cross_references": [
    {
      "type": "name_match",
      "text": "octane",
      "confidence": 1.0,
      "uuid": "feb2932c-69c5-4142-b6b6-bde017998940",
      "name": "Octane",
      "url": "https://haz-map.com/Agents/106",
      "category": "agents"
    },
    {
      "type": "name_match",
      "text": "ramin",
      "confidence": 1.0,
      "uuid": "f0fbb433-5eef-4a70-a208-66cc45df5768",
      "name": "Ramin",
      "url": "https://haz-map.com/Agents/962",
      "category": "agents"
    },
    {
      "type": "name_match",
      "text": "nitrogen",
      "confidence": 1.0,
      "uuid": "db5e90a9-06d2-45b9-8b81-f345a89b0bc0",
      "name": "Nitrogen",
      "url": "https://haz-map.com/Agents/1072",
      "category": "agents"
    },
    {
      "type": "name_match",
      "text": "ethylene",
      "confidence": 1.0,
      "uuid": "958eacc0-5135-4b62-bb93-6df972bf552f",
      "name": "Ethylene",
      "url": "https://haz-map.com/Agents/1076",
      "category": "agents"
    },
    {
      "type": "name_match",
      "text": "octogen",
      "confidence": 1.0,
      "uuid": "e3371b20-4e97-4bc5-a2da-26416e104f50",
      "name": "Octogen",
      "url": "https://haz-map.com/Agents/1939",
      "category": "agents"
    },
    {
      "type": "name_match",
      "text": "dde",
      "confidence": 1.0,
      "uuid": "88506fb4-e7b1-4bde-a283-917057f67fc2",
      "name": "DDE",
      "url": "https://haz-map.com/Agents/4656",
      "category": "agents"
    },
    {
      "type": "name_match",
      "text": "cyclooctane",
      "confidence": 1.0,
      "uuid": "5182724b-2ba7-4a86-ba3f-f0637a8df12a",
      "name": "Cyclooctane",
      "url": "https://haz-map.com/Agents/13476",
      "category": "agents"
    },
    {
      "type": "name_match",
      "text": "water",
      "confidence": 1.0,
      "uuid": "6f2a7557-dfd2-49bc-9b4b-a93cd8e225d4",
      "name": "Water",
      "url": "https://haz-map.com/Agents/18668",
      "category": "agents"
    }
  ],
  "all_links": [
    {
      "text": "ATSDR - Toxicological Profile: HMX (Octogen)",
      "url": "http://www.atsdr.cdc.gov/toxprofiles/tp.asp?id=877&tid=171"
    },
    {
      "text": "Search PubMed",
      "url": "https://www.ncbi.nlm.nih.gov/pubmed?term=Octogen%20AND%20human%5Bmh%5D%20AND%20%28Occupational%20Diseases%20%5Bmh%5D%20OR%20Occupational%20Exposure%20%5Bmh%5D%29%20%20AND%20%28tox%5Bsb%5D%29&cmd=search"
    }
  ]
}