{
  "metadata": {
    "scraped_from": "https://haz-map.com/Agents/2715",
    "entity_name": "1,1-Diphenylhydrazine",
    "category": "agents",
    "uuid": "e33901ec-6c72-43ad-834e-6906104f7e46",
    "scraped_at": "2025-07-23T19:17:56.788756"
  },
  "parsed_at": "2025-07-24T00:53:22.288065",
  "title": "1,1-Diphenylhydrazine",
  "sections": {
    "general": {
      "agent_name": {
        "original_name": "Agent Name",
        "value": "1,1-Diphenylhydrazine",
        "links": [],
        "cross_references": [
          {
            "type": "name_match",
            "text": "hydrazine",
            "confidence": 1.0,
            "uuid": "72217956-0601-43f2-9d74-0d90d38fd09d",
            "name": "Hydrazine",
            "url": "https://haz-map.com/Agents/55",
            "category": "agents"
          },
          {
            "type": "name_match",
            "text": "phenylhydrazine",
            "confidence": 1.0,
            "uuid": "a9358f5a-6111-4142-a55c-101310e67591",
            "name": "Phenylhydrazine",
            "url": "https://haz-map.com/Agents/137",
            "category": "agents"
          },
          {
            "type": "name_match",
            "text": "1,1-diphenylhydrazine",
            "confidence": 1.0,
            "uuid": "e33901ec-6c72-43ad-834e-6906104f7e46",
            "name": "1,1-Diphenylhydrazine",
            "url": "https://haz-map.com/Agents/2715",
            "category": "agents"
          }
        ]
      },
      "cas_number": {
        "original_name": "CAS Number",
        "value": "530-50-7",
        "links": [],
        "cross_references": []
      },
      "formula": {
        "original_name": "Formula",
        "value": "C12-H12-N2",
        "links": [],
        "cross_references": []
      },
      "major_category": {
        "original_name": "Major Category",
        "value": "Nitrogen Compounds",
        "links": [],
        "cross_references": [
          {
            "type": "name_match",
            "text": "nitrogen",
            "confidence": 1.0,
            "uuid": "db5e90a9-06d2-45b9-8b81-f345a89b0bc0",
            "name": "Nitrogen",
            "url": "https://haz-map.com/Agents/1072",
            "category": "agents"
          }
        ]
      },
      "synonyms": {
        "original_name": "Synonyms",
        "value": "Hydrazine, 1,1-diphenyl; Hydrozobenzene; N,N-Diphenylhydrazine; alpha,alpha-Diphenylhydrazine; [ChemIDplus]",
        "links": [],
        "cross_references": [
          {
            "type": "name_match",
            "text": "benzene",
            "confidence": 1.0,
            "uuid": "b05124de-5f34-4c14-8f04-ccb20c3780d9",
            "name": "Benzene",
            "url": "https://haz-map.com/Agents/5",
            "category": "agents"
          },
          {
            "type": "name_match",
            "text": "hydrazine",
            "confidence": 1.0,
            "uuid": "72217956-0601-43f2-9d74-0d90d38fd09d",
            "name": "Hydrazine",
            "url": "https://haz-map.com/Agents/55",
            "category": "agents"
          },
          {
            "type": "name_match",
            "text": "phenylhydrazine",
            "confidence": 1.0,
            "uuid": "a9358f5a-6111-4142-a55c-101310e67591",
            "name": "Phenylhydrazine",
            "url": "https://haz-map.com/Agents/137",
            "category": "agents"
          }
        ]
      },
      "category": {
        "original_name": "Category",
        "value": "Hydrazines",
        "links": [],
        "cross_references": [
          {
            "type": "name_match",
            "text": "hydrazine",
            "confidence": 1.0,
            "uuid": "72217956-0601-43f2-9d74-0d90d38fd09d",
            "name": "Hydrazine",
            "url": "https://haz-map.com/Agents/55",
            "category": "agents"
          }
        ]
      },
      "description": {
        "original_name": "Description",
        "value": "Yellow solid; [Merck Index] Liquid; [MSDSonline]",
        "links": [],
        "cross_references": []
      },
      "sourcesuses": {
        "original_name": "Sources/Uses",
        "value": "Not produced commercially in the US; [HSDB] The hydrochloride compound used as a reagent to detect arabinose and lactose; [Merck Index]",
        "links": [],
        "cross_references": [
          {
            "type": "name_match",
            "text": "lactose",
            "confidence": 1.0,
            "uuid": "a9f8c81c-bfa0-43e4-a9eb-6e39fa70ab2c",
            "name": "Lactose",
            "url": "https://haz-map.com/Agents/15057",
            "category": "agents"
          }
        ]
      },
      "comments": {
        "original_name": "Comments",
        "value": "Emergency treatment: \"Hydrazines\"; Hydrazines can cause severe eye damage. They can cause seizures, liver injury, hemolysis, and delayed pulmonary edema. [HSDB] May cause irritation; [MSDSonline] See \"Hydrazine.\" See \"1,1-Diphenylhydrazine hydrochloride.\"",
        "links": [],
        "cross_references": [
          {
            "type": "name_match",
            "text": "pulmonary edema",
            "confidence": 1.0,
            "uuid": "ee39114e-c922-40fd-9588-a532de404962",
            "name": "pulmonary edema",
            "url": "https://haz-map.com/Findings/186",
            "category": "findings"
          },
          {
            "type": "name_match",
            "text": "hydrazine",
            "confidence": 1.0,
            "uuid": "72217956-0601-43f2-9d74-0d90d38fd09d",
            "name": "Hydrazine",
            "url": "https://haz-map.com/Agents/55",
            "category": "agents"
          },
          {
            "type": "name_match",
            "text": "phenylhydrazine",
            "confidence": 1.0,
            "uuid": "a9358f5a-6111-4142-a55c-101310e67591",
            "name": "Phenylhydrazine",
            "url": "https://haz-map.com/Agents/137",
            "category": "agents"
          },
          {
            "type": "name_match",
            "text": "1,1-diphenylhydrazine",
            "confidence": 1.0,
            "uuid": "e33901ec-6c72-43ad-834e-6906104f7e46",
            "name": "1,1-Diphenylhydrazine",
            "url": "https://haz-map.com/Agents/2715",
            "category": "agents"
          },
          {
            "type": "name_match",
            "text": "1,1-diphenylhydrazine hydrochloride",
            "confidence": 1.0,
            "uuid": "e6e6d420-1465-4525-9eca-05dc135ec48b",
            "name": "1,1-Diphenylhydrazine hydrochloride",
            "url": "https://haz-map.com/Agents/15798",
            "category": "agents"
          },
          {
            "type": "name_match",
            "text": "phenylhydrazine hydrochloride",
            "confidence": 1.0,
            "uuid": "5809b910-0c72-4ae0-ad04-d9cb842706db",
            "name": "Phenylhydrazine hydrochloride",
            "url": "https://haz-map.com/Agents/16570",
            "category": "agents"
          }
        ]
      },
      "biomedical_references": {
        "original_name": "Biomedical References",
        "value": "Search PubMed",
        "links": [
          {
            "text": "Search PubMed",
            "url": "https://www.ncbi.nlm.nih.gov/pubmed?term=1%2c1-Diphenylhydrazine%20AND%20human%5Bmh%5D%20AND%20%28Occupational%20Diseases%20%5Bmh%5D%20OR%20Occupational%20Exposure%20%5Bmh%5D%29%20%20AND%20%28tox%5Bsb%5D%29&cmd=search"
          }
        ],
        "cross_references": []
      }
    },
    "exposure_assessment": {
      "vapor_pressure": {
        "original_name": "Vapor Pressure",
        "value": "0.00049 mm Hg",
        "links": [],
        "cross_references": []
      }
    },
    "adverse_effects": {
      "neurotoxin": {
        "original_name": "Neurotoxin",
        "value": "Other CNS neurotoxin",
        "links": [],
        "cross_references": []
      },
      "hepatotoxin": {
        "original_name": "Hepatotoxin",
        "value": "Hepatoxic (a) from occupational exposure (secondary effect) or (b) in animal studies or in humans after ingestion",
        "links": [],
        "cross_references": []
      }
    },
    "diseases_processes_and_activities_linked_to_this_agent": {
      "other_information": {
        "original_name": "Other Information",
        "value": "No other related information on this agent was found.",
        "links": [],
        "cross_references": []
      }
    }
  },
  "cross_references": [
    {
      "type": "name_match",
      "text": "pulmonary edema",
      "confidence": 1.0,
      "uuid": "ee39114e-c922-40fd-9588-a532de404962",
      "name": "pulmonary edema",
      "url": "https://haz-map.com/Findings/186",
      "category": "findings"
    },
    {
      "type": "name_match",
      "text": "benzene",
      "confidence": 1.0,
      "uuid": "b05124de-5f34-4c14-8f04-ccb20c3780d9",
      "name": "Benzene",
      "url": "https://haz-map.com/Agents/5",
      "category": "agents"
    },
    {
      "type": "name_match",
      "text": "hydrazine",
      "confidence": 1.0,
      "uuid": "72217956-0601-43f2-9d74-0d90d38fd09d",
      "name": "Hydrazine",
      "url": "https://haz-map.com/Agents/55",
      "category": "agents"
    },
    {
      "type": "name_match",
      "text": "phenylhydrazine",
      "confidence": 1.0,
      "uuid": "a9358f5a-6111-4142-a55c-101310e67591",
      "name": "Phenylhydrazine",
      "url": "https://haz-map.com/Agents/137",
      "category": "agents"
    },
    {
      "type": "name_match",
      "text": "nitrogen",
      "confidence": 1.0,
      "uuid": "db5e90a9-06d2-45b9-8b81-f345a89b0bc0",
      "name": "Nitrogen",
      "url": "https://haz-map.com/Agents/1072",
      "category": "agents"
    },
    {
      "type": "name_match",
      "text": "1,1-diphenylhydrazine",
      "confidence": 1.0,
      "uuid": "e33901ec-6c72-43ad-834e-6906104f7e46",
      "name": "1,1-Diphenylhydrazine",
      "url": "https://haz-map.com/Agents/2715",
      "category": "agents"
    },
    {
      "type": "name_match",
      "text": "lactose",
      "confidence": 1.0,
      "uuid": "a9f8c81c-bfa0-43e4-a9eb-6e39fa70ab2c",
      "name": "Lactose",
      "url": "https://haz-map.com/Agents/15057",
      "category": "agents"
    },
    {
      "type": "name_match",
      "text": "1,1-diphenylhydrazine hydrochloride",
      "confidence": 1.0,
      "uuid": "e6e6d420-1465-4525-9eca-05dc135ec48b",
      "name": "1,1-Diphenylhydrazine hydrochloride",
      "url": "https://haz-map.com/Agents/15798",
      "category": "agents"
    },
    {
      "type": "name_match",
      "text": "phenylhydrazine hydrochloride",
      "confidence": 1.0,
      "uuid": "5809b910-0c72-4ae0-ad04-d9cb842706db",
      "name": "Phenylhydrazine hydrochloride",
      "url": "https://haz-map.com/Agents/16570",
      "category": "agents"
    }
  ],
  "all_links": [
    {
      "text": "Search PubMed",
      "url": "https://www.ncbi.nlm.nih.gov/pubmed?term=1%2c1-Diphenylhydrazine%20AND%20human%5Bmh%5D%20AND%20%28Occupational%20Diseases%20%5Bmh%5D%20OR%20Occupational%20Exposure%20%5Bmh%5D%29%20%20AND%20%28tox%5Bsb%5D%29&cmd=search"
    }
  ]
}