{
  "metadata": {
    "scraped_from": "https://haz-map.com/Agents/7409",
    "entity_name": "Thiodiglycol",
    "category": "agents",
    "uuid": "e33cde82-431d-46a1-89ca-46dedf2f5935",
    "scraped_at": "2025-07-23T20:12:29.601811"
  },
  "parsed_at": "2025-07-24T01:03:04.180280",
  "title": "Thiodiglycol",
  "sections": {
    "general": {
      "agent_name": {
        "original_name": "Agent Name",
        "value": "Thiodiglycol",
        "links": [],
        "cross_references": [
          {
            "type": "name_match",
            "text": "thiodiglycol",
            "confidence": 1.0,
            "uuid": "e33cde82-431d-46a1-89ca-46dedf2f5935",
            "name": "Thiodiglycol",
            "url": "https://haz-map.com/Agents/7409",
            "category": "agents"
          }
        ]
      },
      "cas_number": {
        "original_name": "CAS Number",
        "value": "111-48-8",
        "links": [],
        "cross_references": []
      },
      "formula": {
        "original_name": "Formula",
        "value": "C4-H10-O2-S",
        "links": [],
        "cross_references": []
      },
      "major_category": {
        "original_name": "Major Category",
        "value": "Other Classes",
        "links": [],
        "cross_references": []
      },
      "synonyms": {
        "original_name": "Synonyms",
        "value": "2,2'-Thiobisethanol; 2,2'-Thiodiethanol; 2,2'-Thiodiglycol; Bis(2-hydroxyethyl) sulfide; Bis(2-hydroxyethyl) thioether; Bis(2-hydroxyethyl)sulfide; Bis(beta-hydroxyethyl) sulfide; Bis(beta-hydroxyethyl)sulfide; Di(2-hydroxyethyl) sulfide; Glyecine A; Kromfax solvent; Sulfide, bis(2-hydroxyethyl); Tedegyl; Thiodiethanol; Thiodiethylene glycol; Thiodiglycolum [INN-Latin]; Tiodiglicol [INN-Spanish]; Tiodiglicolo; Tiodiglicolo [DCIT]; beta,beta'-Dihydroxydiethyl sulfide; beta,beta'-Dihydroxyethyl sulfide; beta-Hydroxyethyl sulfide; Ethanol, 2,2'-thiobis-; Ethanol, 2,2'-thiodi-; [ChemIDplus]",
        "links": [],
        "cross_references": [
          {
            "type": "name_match",
            "text": "ethylene glycol",
            "confidence": 1.0,
            "uuid": "99589035-d71c-415a-914c-81c7a166be11",
            "name": "Ethylene glycol",
            "url": "https://haz-map.com/Agents/488",
            "category": "agents"
          },
          {
            "type": "name_match",
            "text": "ethylene",
            "confidence": 1.0,
            "uuid": "958eacc0-5135-4b62-bb93-6df972bf552f",
            "name": "Ethylene",
            "url": "https://haz-map.com/Agents/1076",
            "category": "agents"
          },
          {
            "type": "name_match",
            "text": "diethyl sulfide",
            "confidence": 1.0,
            "uuid": "a1d2a348-b8ea-45e6-8aa4-9d6ab50f7f7f",
            "name": "Diethyl sulfide",
            "url": "https://haz-map.com/Agents/2701",
            "category": "agents"
          },
          {
            "type": "name_match",
            "text": "diethylene glycol",
            "confidence": 1.0,
            "uuid": "6a4c1b24-9807-4ecf-8a5d-d23b7df4b859",
            "name": "Diethylene glycol",
            "url": "https://haz-map.com/Agents/4829",
            "category": "agents"
          },
          {
            "type": "name_match",
            "text": "thiodiglycol",
            "confidence": 1.0,
            "uuid": "e33cde82-431d-46a1-89ca-46dedf2f5935",
            "name": "Thiodiglycol",
            "url": "https://haz-map.com/Agents/7409",
            "category": "agents"
          }
        ]
      },
      "category": {
        "original_name": "Category",
        "value": "Sulfur Compounds (Alcohols)",
        "links": [],
        "cross_references": [
          {
            "type": "name_match",
            "text": "sulfur",
            "confidence": 1.0,
            "uuid": "5aabdef6-71c8-44c8-b762-feaabff50696",
            "name": "Sulfur",
            "url": "https://haz-map.com/Agents/1942",
            "category": "agents"
          }
        ]
      },
      "description": {
        "original_name": "Description",
        "value": "Colorless viscous liquid; [ICSC] Colorless to yellowish liquid with an unpleasant odor; [Reference #1] Colorless or pale yellow liquid with a stench; [Alfa Aesar MSDS]",
        "links": [],
        "cross_references": []
      },
      "sourcesuses": {
        "original_name": "Sources/Uses",
        "value": "A hydrolysis product of sulfur mustard (chemical weapon); Used as an intermediate for elastomers and antioxidants, a solvent for dyes in textile printing, to make ink for ball-point pens, and a precursor to mustard gas; Also used in the paint, lacquer, and varnish industry; in the polymers industry; and as a fixing agent, process regulator, and stabilizer; [HSDB] Used to make pulp, paper products, furniture, paints, pigments, dyestuffs, varnishes, coatings, and inks; Also used as a solvent for coloring paper, a softener for special rubbers, and possibly as an antioxidant in cosmetics; [OECD SIDS: Thiodiglycol - 2004]",
        "links": [],
        "cross_references": [
          {
            "type": "name_match",
            "text": "mica",
            "confidence": 1.0,
            "uuid": "433f26f1-c399-4596-b179-ce3843cfd465",
            "name": "Mica",
            "url": "https://haz-map.com/Agents/621",
            "category": "agents"
          },
          {
            "type": "name_match",
            "text": "sulfur",
            "confidence": 1.0,
            "uuid": "5aabdef6-71c8-44c8-b762-feaabff50696",
            "name": "Sulfur",
            "url": "https://haz-map.com/Agents/1942",
            "category": "agents"
          },
          {
            "type": "name_match",
            "text": "thiodiglycol",
            "confidence": 1.0,
            "uuid": "e33cde82-431d-46a1-89ca-46dedf2f5935",
            "name": "Thiodiglycol",
            "url": "https://haz-map.com/Agents/7409",
            "category": "agents"
          }
        ]
      },
      "comments": {
        "original_name": "Comments",
        "value": "A mild eye and respiratory tract irritant; [ICSC] Causes mild skin irritation and moderate eye irritation in experimental animals; Not sensitizing in guinea pig maximization test; No evidence of mutagenicity; Emergency treatment: \"Glycols\"; [HSDB] An eye irritant; [eChemPortal: ESIS] A mild skin and moderate eye irritant; Causes diffuse hepatitis and other GI and endocrine changes in subcutaneous lethal-dose study of mice; [RTECS] An eye irritant; [Alfa Aesar MSDS]",
        "links": [],
        "cross_references": [
          {
            "type": "name_match",
            "text": "hepatitis a",
            "confidence": 1.0,
            "uuid": "09b2d371-e32a-4123-81c0-51e314e04e32",
            "name": "Hepatitis A",
            "url": "https://haz-map.com/Diseases/184",
            "category": "diseases"
          }
        ]
      },
      "restricted": {
        "original_name": "Restricted",
        "value": "Manufacture and export strictly controlled under the International Chemical Weapons Convention (can be used to make sulfur mustard); [OECD SIDS: Thiodiglycol - 2004]",
        "links": [],
        "cross_references": [
          {
            "type": "name_match",
            "text": "mica",
            "confidence": 1.0,
            "uuid": "433f26f1-c399-4596-b179-ce3843cfd465",
            "name": "Mica",
            "url": "https://haz-map.com/Agents/621",
            "category": "agents"
          },
          {
            "type": "name_match",
            "text": "sulfur",
            "confidence": 1.0,
            "uuid": "5aabdef6-71c8-44c8-b762-feaabff50696",
            "name": "Sulfur",
            "url": "https://haz-map.com/Agents/1942",
            "category": "agents"
          },
          {
            "type": "name_match",
            "text": "thiodiglycol",
            "confidence": 1.0,
            "uuid": "e33cde82-431d-46a1-89ca-46dedf2f5935",
            "name": "Thiodiglycol",
            "url": "https://haz-map.com/Agents/7409",
            "category": "agents"
          }
        ]
      },
      "biomedical_references": {
        "original_name": "Biomedical References",
        "value": "Search PubMed",
        "links": [
          {
            "text": "Search PubMed",
            "url": "https://www.ncbi.nlm.nih.gov/pubmed?term=Thiodiglycol%20AND%20human%5Bmh%5D%20AND%20%28Occupational%20Diseases%20%5Bmh%5D%20OR%20Occupational%20Exposure%20%5Bmh%5D%29%20%20AND%20%28tox%5Bsb%5D%29&cmd=search"
          }
        ],
        "cross_references": []
      }
    },
    "exposure_assessment": {
      "vapor_pressure": {
        "original_name": "Vapor Pressure",
        "value": "0.00323 mm Hg",
        "links": [],
        "cross_references": []
      },
      "explanatory_notes": {
        "original_name": "Explanatory Notes",
        "value": "VP from ChemIDplus;",
        "links": [],
        "cross_references": []
      },
      "nfpa": {
        "original_name": "NFPA",
        "value": "must be preheated",
        "links": [],
        "cross_references": []
      }
    },
    "adverse_effects": {
      "hepatotoxin": {
        "original_name": "Hepatotoxin",
        "value": "Hepatoxic (a) from occupational exposure (secondary effect) or (b) in animal studies or in humans after ingestion",
        "links": [],
        "cross_references": []
      }
    },
    "diseases_processes_and_activities_linked_to_this_agent": {
      "processes": {
        "original_name": "Processes",
        "value": "Industrial Processes with risk of exposure: Painting (Pigments, Binders, and Biocides) Pulp and Paper Processing Textiles (Printing, Dyeing, or Finishing)",
        "links": [
          {
            "text": "Painting (Pigments, Binders, and Biocides)",
            "url": "https://haz-map.com/Processes/145"
          },
          {
            "text": "Pulp and Paper Processing",
            "url": "https://haz-map.com/Processes/132"
          },
          {
            "text": "Textiles (Printing, Dyeing, or Finishing)",
            "url": "https://haz-map.com/Processes/235"
          }
        ],
        "cross_references": [
          {
            "type": "url_match",
            "text": "Painting (Pigments, Binders, and Biocides)",
            "url": "https://haz-map.com/Processes/145",
            "confidence": 1.0,
            "uuid": "25867878-e178-4c21-906f-d392d86b76de",
            "name": "Painting (Pigments, Binders, and Biocides)",
            "category": "processes"
          },
          {
            "type": "url_match",
            "text": "Pulp and Paper Processing",
            "url": "https://haz-map.com/Processes/132",
            "confidence": 1.0,
            "uuid": "30075079-d057-47e2-a7d8-e89bfc59d8df",
            "name": "Pulp and Paper Processing",
            "category": "processes"
          },
          {
            "type": "name_match",
            "text": "painting",
            "confidence": 1.0,
            "uuid": "19816ce9-9edf-4a86-8e64-b0cbf7dcf520",
            "name": "Painting",
            "url": "https://haz-map.com/Activities/9",
            "category": "activities"
          }
        ]
      }
    }
  },
  "cross_references": [
    {
      "type": "url_match",
      "text": "Painting (Pigments, Binders, and Biocides)",
      "url": "https://haz-map.com/Processes/145",
      "confidence": 1.0,
      "uuid": "25867878-e178-4c21-906f-d392d86b76de",
      "name": "Painting (Pigments, Binders, and Biocides)",
      "category": "processes"
    },
    {
      "type": "url_match",
      "text": "Pulp and Paper Processing",
      "url": "https://haz-map.com/Processes/132",
      "confidence": 1.0,
      "uuid": "30075079-d057-47e2-a7d8-e89bfc59d8df",
      "name": "Pulp and Paper Processing",
      "category": "processes"
    },
    {
      "type": "name_match",
      "text": "painting",
      "confidence": 1.0,
      "uuid": "19816ce9-9edf-4a86-8e64-b0cbf7dcf520",
      "name": "Painting",
      "url": "https://haz-map.com/Activities/9",
      "category": "activities"
    },
    {
      "type": "name_match",
      "text": "hepatitis a",
      "confidence": 1.0,
      "uuid": "09b2d371-e32a-4123-81c0-51e314e04e32",
      "name": "Hepatitis A",
      "url": "https://haz-map.com/Diseases/184",
      "category": "diseases"
    },
    {
      "type": "name_match",
      "text": "ethylene glycol",
      "confidence": 1.0,
      "uuid": "99589035-d71c-415a-914c-81c7a166be11",
      "name": "Ethylene glycol",
      "url": "https://haz-map.com/Agents/488",
      "category": "agents"
    },
    {
      "type": "name_match",
      "text": "mica",
      "confidence": 1.0,
      "uuid": "433f26f1-c399-4596-b179-ce3843cfd465",
      "name": "Mica",
      "url": "https://haz-map.com/Agents/621",
      "category": "agents"
    },
    {
      "type": "name_match",
      "text": "ethylene",
      "confidence": 1.0,
      "uuid": "958eacc0-5135-4b62-bb93-6df972bf552f",
      "name": "Ethylene",
      "url": "https://haz-map.com/Agents/1076",
      "category": "agents"
    },
    {
      "type": "name_match",
      "text": "sulfur",
      "confidence": 1.0,
      "uuid": "5aabdef6-71c8-44c8-b762-feaabff50696",
      "name": "Sulfur",
      "url": "https://haz-map.com/Agents/1942",
      "category": "agents"
    },
    {
      "type": "name_match",
      "text": "diethyl sulfide",
      "confidence": 1.0,
      "uuid": "a1d2a348-b8ea-45e6-8aa4-9d6ab50f7f7f",
      "name": "Diethyl sulfide",
      "url": "https://haz-map.com/Agents/2701",
      "category": "agents"
    },
    {
      "type": "name_match",
      "text": "diethylene glycol",
      "confidence": 1.0,
      "uuid": "6a4c1b24-9807-4ecf-8a5d-d23b7df4b859",
      "name": "Diethylene glycol",
      "url": "https://haz-map.com/Agents/4829",
      "category": "agents"
    },
    {
      "type": "name_match",
      "text": "thiodiglycol",
      "confidence": 1.0,
      "uuid": "e33cde82-431d-46a1-89ca-46dedf2f5935",
      "name": "Thiodiglycol",
      "url": "https://haz-map.com/Agents/7409",
      "category": "agents"
    }
  ],
  "all_links": [
    {
      "text": "Search PubMed",
      "url": "https://www.ncbi.nlm.nih.gov/pubmed?term=Thiodiglycol%20AND%20human%5Bmh%5D%20AND%20%28Occupational%20Diseases%20%5Bmh%5D%20OR%20Occupational%20Exposure%20%5Bmh%5D%29%20%20AND%20%28tox%5Bsb%5D%29&cmd=search"
    },
    {
      "text": "Painting (Pigments, Binders, and Biocides)",
      "url": "https://haz-map.com/Processes/145"
    },
    {
      "text": "Pulp and Paper Processing",
      "url": "https://haz-map.com/Processes/132"
    },
    {
      "text": "Textiles (Printing, Dyeing, or Finishing)",
      "url": "https://haz-map.com/Processes/235"
    }
  ]
}