{
  "metadata": {
    "scraped_from": "https://haz-map.com/Agents/117",
    "entity_name": "Isophorone diisocyanate",
    "category": "agents",
    "uuid": "e3717bb0-cdc4-4402-a0f8-f825052606e3",
    "scraped_at": "2025-07-23T18:35:21.236057"
  },
  "parsed_at": "2025-07-24T01:10:02.212056",
  "title": "Isophorone diisocyanate",
  "sections": {
    "general": {
      "agent_name": {
        "original_name": "Agent Name",
        "value": "Isophorone diisocyanate",
        "links": [],
        "cross_references": [
          {
            "type": "name_match",
            "text": "isophorone diisocyanate",
            "confidence": 1.0,
            "uuid": "e3717bb0-cdc4-4402-a0f8-f825052606e3",
            "name": "Isophorone diisocyanate",
            "url": "https://haz-map.com/Agents/117",
            "category": "agents"
          },
          {
            "type": "name_match",
            "text": "isophorone",
            "confidence": 1.0,
            "uuid": "1a2155ea-24c0-47fa-80f4-9b4dd95f9892",
            "name": "Isophorone",
            "url": "https://haz-map.com/Agents/142",
            "category": "agents"
          },
          {
            "type": "name_match",
            "text": "phorone",
            "confidence": 1.0,
            "uuid": "6837b4a0-f73c-43aa-baad-d360d59492e2",
            "name": "Phorone",
            "url": "https://haz-map.com/Agents/21478",
            "category": "agents"
          }
        ]
      },
      "cas_number": {
        "original_name": "CAS Number",
        "value": "4098-71-9",
        "links": [],
        "cross_references": []
      },
      "formula": {
        "original_name": "Formula",
        "value": "C12-H18-N2-O2",
        "links": [],
        "cross_references": []
      },
      "major_category": {
        "original_name": "Major Category",
        "value": "Plastics & Rubber",
        "links": [],
        "cross_references": []
      },
      "synonyms": {
        "original_name": "Synonyms",
        "value": "IPDI; 3-Isocyanatomethyl-3,5,5-trimethylcyclohexyl-isocyanate; Isophorone diamine diisocyanate; [NIOSH]",
        "links": [],
        "cross_references": [
          {
            "type": "name_match",
            "text": "isophorone",
            "confidence": 1.0,
            "uuid": "1a2155ea-24c0-47fa-80f4-9b4dd95f9892",
            "name": "Isophorone",
            "url": "https://haz-map.com/Agents/142",
            "category": "agents"
          },
          {
            "type": "name_match",
            "text": "isophorone diamine",
            "confidence": 1.0,
            "uuid": "a4c3c9b5-9bf1-43b0-a4af-2188f131a5b0",
            "name": "Isophorone diamine",
            "url": "https://haz-map.com/Agents/801",
            "category": "agents"
          },
          {
            "type": "name_match",
            "text": "phorone",
            "confidence": 1.0,
            "uuid": "6837b4a0-f73c-43aa-baad-d360d59492e2",
            "name": "Phorone",
            "url": "https://haz-map.com/Agents/21478",
            "category": "agents"
          }
        ]
      },
      "category": {
        "original_name": "Category",
        "value": "Diisocyanates",
        "links": [],
        "cross_references": [
          {
            "type": "name_match",
            "text": "diisocyanates",
            "confidence": 1.0,
            "uuid": "fde0d1a6-d8f4-4783-bc88-99bedc9488d2",
            "name": "DIISOCYANATES",
            "url": "https://haz-map.com/Agents/49",
            "category": "agents"
          }
        ]
      },
      "description": {
        "original_name": "Description",
        "value": "Colorless to slightly yellow liquid with a pungent odor; [NIOSH]",
        "links": [],
        "cross_references": [
          {
            "type": "name_match",
            "text": "ht",
            "confidence": 1.0,
            "uuid": "764df367-8d53-4a11-81a2-31ccfe122a8d",
            "name": "HT",
            "url": "https://haz-map.com/Agents/2168",
            "category": "agents"
          }
        ]
      },
      "sourcesuses": {
        "original_name": "Sources/Uses",
        "value": "Used in polyurethane paints, varnishes, and elastomers; [HSDB] Occupational asthma reported in spray painter; [Malo]",
        "links": [],
        "cross_references": [
          {
            "type": "name_match",
            "text": "ethane",
            "confidence": 1.0,
            "uuid": "5162cc8c-dfb9-4060-81ac-38a8cec7f9dd",
            "name": "Ethane",
            "url": "https://haz-map.com/Agents/1075",
            "category": "agents"
          },
          {
            "type": "name_match",
            "text": "urethane",
            "confidence": 1.0,
            "uuid": "6405f173-6b8a-4d9b-a282-a1a6bf6901fd",
            "name": "Urethane",
            "url": "https://haz-map.com/Agents/2032",
            "category": "agents"
          }
        ]
      },
      "comments": {
        "original_name": "Comments",
        "value": "May cause skin sensitization; [ICSC] Danger of sensitization of the airways and skin; [MAK] See \"DIISOCYANATES.\"",
        "links": [],
        "cross_references": [
          {
            "type": "name_match",
            "text": "diisocyanates",
            "confidence": 1.0,
            "uuid": "fde0d1a6-d8f4-4783-bc88-99bedc9488d2",
            "name": "DIISOCYANATES",
            "url": "https://haz-map.com/Agents/49",
            "category": "agents"
          }
        ]
      },
      "reference_link_1": {
        "original_name": "Reference Link #1",
        "value": "Isophorone diisocyanate induced respiratory disease (IPDI).",
        "links": [
          {
            "text": "Isophorone diisocyanate induced respiratory disease (IPDI).",
            "url": "http://www.ncbi.nlm.nih.gov/entrez/query.fcgi?db=PubMed&cmd=Retrieve&list_uids=6945844&dopt=Abstract"
          }
        ],
        "cross_references": [
          {
            "type": "name_match",
            "text": "isophorone diisocyanate",
            "confidence": 1.0,
            "uuid": "e3717bb0-cdc4-4402-a0f8-f825052606e3",
            "name": "Isophorone diisocyanate",
            "url": "https://haz-map.com/Agents/117",
            "category": "agents"
          },
          {
            "type": "name_match",
            "text": "isophorone",
            "confidence": 1.0,
            "uuid": "1a2155ea-24c0-47fa-80f4-9b4dd95f9892",
            "name": "Isophorone",
            "url": "https://haz-map.com/Agents/142",
            "category": "agents"
          },
          {
            "type": "name_match",
            "text": "phorone",
            "confidence": 1.0,
            "uuid": "6837b4a0-f73c-43aa-baad-d360d59492e2",
            "name": "Phorone",
            "url": "https://haz-map.com/Agents/21478",
            "category": "agents"
          }
        ]
      },
      "biomedical_references": {
        "original_name": "Biomedical References",
        "value": "Search PubMed",
        "links": [
          {
            "text": "Search PubMed",
            "url": "https://www.ncbi.nlm.nih.gov/pubmed?term=Isophorone+diisocyanate%20AND%20human%5Bmh%5D%20AND%20%28Occupational%20Diseases%20%5Bmh%5D%20OR%20Occupational%20Exposure%20%5Bmh%5D%29%20%20AND%20%28tox%5Bsb%5D%29&cmd=search"
          }
        ],
        "cross_references": []
      }
    },
    "exposure_assessment": {
      "skin_designation_acgih": {
        "original_name": "Skin Designation (ACGIH)",
        "value": "Insufficient data",
        "links": [],
        "cross_references": []
      },
      "tlv_acgih": {
        "original_name": "TLV (ACGIH)",
        "value": "0.005 ppm",
        "links": [],
        "cross_references": []
      },
      "mak": {
        "original_name": "MAK",
        "value": "0.005 ppm, Ceiling = 0.01 ppm",
        "links": [],
        "cross_references": []
      },
      "vapor_pressure": {
        "original_name": "Vapor Pressure",
        "value": "0.0003 mm Hg",
        "links": [],
        "cross_references": []
      },
      "explanatory_notes": {
        "original_name": "Explanatory Notes",
        "value": "VP from HSDB;",
        "links": [],
        "cross_references": []
      },
      "reference_link_2": {
        "original_name": "Reference Link #2",
        "value": "ICSC: Isophorone diisocyanate",
        "links": [
          {
            "text": "ICSC: Isophorone diisocyanate",
            "url": "https://www.ilo.org/dyn/icsc/showcard.home"
          }
        ],
        "cross_references": [
          {
            "type": "name_match",
            "text": "isophorone diisocyanate",
            "confidence": 1.0,
            "uuid": "e3717bb0-cdc4-4402-a0f8-f825052606e3",
            "name": "Isophorone diisocyanate",
            "url": "https://haz-map.com/Agents/117",
            "category": "agents"
          },
          {
            "type": "name_match",
            "text": "isophorone",
            "confidence": 1.0,
            "uuid": "1a2155ea-24c0-47fa-80f4-9b4dd95f9892",
            "name": "Isophorone",
            "url": "https://haz-map.com/Agents/142",
            "category": "agents"
          },
          {
            "type": "name_match",
            "text": "phorone",
            "confidence": 1.0,
            "uuid": "6837b4a0-f73c-43aa-baad-d360d59492e2",
            "name": "Phorone",
            "url": "https://haz-map.com/Agents/21478",
            "category": "agents"
          }
        ]
      }
    },
    "adverse_effects": {
      "skin_sensitizer": {
        "original_name": "Skin Sensitizer",
        "value": "Yes",
        "links": [],
        "cross_references": []
      },
      "asthma": {
        "original_name": "Asthma",
        "value": "Yes",
        "links": [],
        "cross_references": []
      }
    },
    "diseases_processes_and_activities_linked_to_this_agent": {
      "diseases": {
        "original_name": "Diseases",
        "value": "Occupational diseases associated with exposure to this agent: Asthma, occupational Contact dermatitis, allergic",
        "links": [
          {
            "text": "Asthma, occupational",
            "url": "https://haz-map.com/Diseases/23"
          },
          {
            "text": "Contact dermatitis, allergic",
            "url": "https://haz-map.com/Diseases/18"
          }
        ],
        "cross_references": [
          {
            "type": "url_match",
            "text": "Asthma, occupational",
            "url": "https://haz-map.com/Diseases/23",
            "confidence": 1.0,
            "uuid": "29c464cb-36b2-43d8-b6fc-e19a0ea695cb",
            "name": "Asthma, occupational",
            "category": "diseases"
          },
          {
            "type": "url_match",
            "text": "Contact dermatitis, allergic",
            "url": "https://haz-map.com/Diseases/18",
            "confidence": 1.0,
            "uuid": "c9499de0-9aa1-41bf-8753-cd5b28a63e29",
            "name": "Contact dermatitis, allergic",
            "category": "diseases"
          },
          {
            "type": "name_match",
            "text": "dermatitis",
            "confidence": 1.0,
            "uuid": "fe9c05f2-b19f-4ceb-ac7a-ffb7d7a0cae0",
            "name": "dermatitis",
            "url": "https://haz-map.com/Findings/59",
            "category": "findings"
          }
        ]
      },
      "processes": {
        "original_name": "Processes",
        "value": "Industrial Processes with risk of exposure: Painting (Pigments, Binders, and Biocides) Plastic Composites Manufacturing",
        "links": [
          {
            "text": "Painting (Pigments, Binders, and Biocides)",
            "url": "https://haz-map.com/Processes/145"
          },
          {
            "text": "Plastic Composites Manufacturing",
            "url": "https://haz-map.com/Processes/222"
          }
        ],
        "cross_references": [
          {
            "type": "url_match",
            "text": "Painting (Pigments, Binders, and Biocides)",
            "url": "https://haz-map.com/Processes/145",
            "confidence": 1.0,
            "uuid": "25867878-e178-4c21-906f-d392d86b76de",
            "name": "Painting (Pigments, Binders, and Biocides)",
            "category": "processes"
          },
          {
            "type": "url_match",
            "text": "Plastic Composites Manufacturing",
            "url": "https://haz-map.com/Processes/222",
            "confidence": 1.0,
            "uuid": "d4461b82-dc77-4172-8e3d-0a5e3b213911",
            "name": "Plastic Composites Manufacturing",
            "category": "processes"
          },
          {
            "type": "name_match",
            "text": "painting",
            "confidence": 1.0,
            "uuid": "19816ce9-9edf-4a86-8e64-b0cbf7dcf520",
            "name": "Painting",
            "url": "https://haz-map.com/Activities/9",
            "category": "activities"
          }
        ]
      }
    }
  },
  "cross_references": [
    {
      "type": "url_match",
      "text": "Asthma, occupational",
      "url": "https://haz-map.com/Diseases/23",
      "confidence": 1.0,
      "uuid": "29c464cb-36b2-43d8-b6fc-e19a0ea695cb",
      "name": "Asthma, occupational",
      "category": "diseases"
    },
    {
      "type": "url_match",
      "text": "Contact dermatitis, allergic",
      "url": "https://haz-map.com/Diseases/18",
      "confidence": 1.0,
      "uuid": "c9499de0-9aa1-41bf-8753-cd5b28a63e29",
      "name": "Contact dermatitis, allergic",
      "category": "diseases"
    },
    {
      "type": "url_match",
      "text": "Painting (Pigments, Binders, and Biocides)",
      "url": "https://haz-map.com/Processes/145",
      "confidence": 1.0,
      "uuid": "25867878-e178-4c21-906f-d392d86b76de",
      "name": "Painting (Pigments, Binders, and Biocides)",
      "category": "processes"
    },
    {
      "type": "url_match",
      "text": "Plastic Composites Manufacturing",
      "url": "https://haz-map.com/Processes/222",
      "confidence": 1.0,
      "uuid": "d4461b82-dc77-4172-8e3d-0a5e3b213911",
      "name": "Plastic Composites Manufacturing",
      "category": "processes"
    },
    {
      "type": "name_match",
      "text": "painting",
      "confidence": 1.0,
      "uuid": "19816ce9-9edf-4a86-8e64-b0cbf7dcf520",
      "name": "Painting",
      "url": "https://haz-map.com/Activities/9",
      "category": "activities"
    },
    {
      "type": "name_match",
      "text": "dermatitis",
      "confidence": 1.0,
      "uuid": "fe9c05f2-b19f-4ceb-ac7a-ffb7d7a0cae0",
      "name": "dermatitis",
      "url": "https://haz-map.com/Findings/59",
      "category": "findings"
    },
    {
      "type": "name_match",
      "text": "diisocyanates",
      "confidence": 1.0,
      "uuid": "fde0d1a6-d8f4-4783-bc88-99bedc9488d2",
      "name": "DIISOCYANATES",
      "url": "https://haz-map.com/Agents/49",
      "category": "agents"
    },
    {
      "type": "name_match",
      "text": "isophorone diisocyanate",
      "confidence": 1.0,
      "uuid": "e3717bb0-cdc4-4402-a0f8-f825052606e3",
      "name": "Isophorone diisocyanate",
      "url": "https://haz-map.com/Agents/117",
      "category": "agents"
    },
    {
      "type": "name_match",
      "text": "isophorone",
      "confidence": 1.0,
      "uuid": "1a2155ea-24c0-47fa-80f4-9b4dd95f9892",
      "name": "Isophorone",
      "url": "https://haz-map.com/Agents/142",
      "category": "agents"
    },
    {
      "type": "name_match",
      "text": "isophorone diamine",
      "confidence": 1.0,
      "uuid": "a4c3c9b5-9bf1-43b0-a4af-2188f131a5b0",
      "name": "Isophorone diamine",
      "url": "https://haz-map.com/Agents/801",
      "category": "agents"
    },
    {
      "type": "name_match",
      "text": "ethane",
      "confidence": 1.0,
      "uuid": "5162cc8c-dfb9-4060-81ac-38a8cec7f9dd",
      "name": "Ethane",
      "url": "https://haz-map.com/Agents/1075",
      "category": "agents"
    },
    {
      "type": "name_match",
      "text": "urethane",
      "confidence": 1.0,
      "uuid": "6405f173-6b8a-4d9b-a282-a1a6bf6901fd",
      "name": "Urethane",
      "url": "https://haz-map.com/Agents/2032",
      "category": "agents"
    },
    {
      "type": "name_match",
      "text": "ht",
      "confidence": 1.0,
      "uuid": "764df367-8d53-4a11-81a2-31ccfe122a8d",
      "name": "HT",
      "url": "https://haz-map.com/Agents/2168",
      "category": "agents"
    },
    {
      "type": "name_match",
      "text": "phorone",
      "confidence": 1.0,
      "uuid": "6837b4a0-f73c-43aa-baad-d360d59492e2",
      "name": "Phorone",
      "url": "https://haz-map.com/Agents/21478",
      "category": "agents"
    }
  ],
  "all_links": [
    {
      "text": "Isophorone diisocyanate induced respiratory disease (IPDI).",
      "url": "http://www.ncbi.nlm.nih.gov/entrez/query.fcgi?db=PubMed&cmd=Retrieve&list_uids=6945844&dopt=Abstract"
    },
    {
      "text": "Search PubMed",
      "url": "https://www.ncbi.nlm.nih.gov/pubmed?term=Isophorone+diisocyanate%20AND%20human%5Bmh%5D%20AND%20%28Occupational%20Diseases%20%5Bmh%5D%20OR%20Occupational%20Exposure%20%5Bmh%5D%29%20%20AND%20%28tox%5Bsb%5D%29&cmd=search"
    },
    {
      "text": "ICSC: Isophorone diisocyanate",
      "url": "https://www.ilo.org/dyn/icsc/showcard.home"
    },
    {
      "text": "Asthma, occupational",
      "url": "https://haz-map.com/Diseases/23"
    },
    {
      "text": "Contact dermatitis, allergic",
      "url": "https://haz-map.com/Diseases/18"
    },
    {
      "text": "Painting (Pigments, Binders, and Biocides)",
      "url": "https://haz-map.com/Processes/145"
    },
    {
      "text": "Plastic Composites Manufacturing",
      "url": "https://haz-map.com/Processes/222"
    }
  ]
}