{
  "metadata": {
    "scraped_from": "https://haz-map.com/Agents/17581",
    "entity_name": "Sodium glycolate",
    "category": "agents",
    "uuid": "e39d63f3-4929-42a1-bc5b-df74c2021cf4",
    "scraped_at": "2025-07-23T21:47:36.725154"
  },
  "parsed_at": "2025-07-24T00:57:10.328897",
  "title": "Sodium glycolate",
  "sections": {
    "general": {
      "agent_name": {
        "original_name": "Agent Name",
        "value": "Sodium glycolate",
        "links": [],
        "cross_references": [
          {
            "type": "name_match",
            "text": "sodium",
            "confidence": 1.0,
            "uuid": "1adffc42-a4d8-44d5-81d6-7dbd96ef8a6f",
            "name": "Sodium",
            "url": "https://haz-map.com/Agents/1527",
            "category": "agents"
          },
          {
            "type": "name_match",
            "text": "sodium glycolate",
            "confidence": 1.0,
            "uuid": "e39d63f3-4929-42a1-bc5b-df74c2021cf4",
            "name": "Sodium glycolate",
            "url": "https://haz-map.com/Agents/17581",
            "category": "agents"
          }
        ]
      },
      "cas_number": {
        "original_name": "CAS Number",
        "value": "2836-32-0",
        "links": [],
        "cross_references": []
      },
      "formula": {
        "original_name": "Formula",
        "value": "C2-H4-O3.Na",
        "links": [],
        "cross_references": []
      },
      "major_category": {
        "original_name": "Major Category",
        "value": "Metals",
        "links": [],
        "cross_references": []
      },
      "synonyms": {
        "original_name": "Synonyms",
        "value": "Acetic acid, hydroxy-, monosodium salt; Glycolic acid, monosodium salt; Glykokolan sodny [Czech]; Monosodium glycolate; Natriumglykolat [German]; Sodium 2-hydroxyacetate; Sodium glycollate; Sodium hydroxyacetate; Sodium lycolate; Acetic acid, 2-hydroxy-, sodium salt (1:1); Glycolic acid, sodium salt; Hydroxyacetic acid, monosodium salt; [ChemIDplus] Sodium alpha-hydroxyacetate; [RTECS]",
        "links": [],
        "cross_references": [
          {
            "type": "name_match",
            "text": "acetic acid",
            "confidence": 1.0,
            "uuid": "0905c6e4-df84-4895-a92d-658819239bbd",
            "name": "Acetic acid",
            "url": "https://haz-map.com/Agents/207",
            "category": "agents"
          },
          {
            "type": "name_match",
            "text": "glycolic acid",
            "confidence": 1.0,
            "uuid": "1584a0fe-5d54-4768-85ea-815563bd0798",
            "name": "Glycolic acid",
            "url": "https://haz-map.com/Agents/1410",
            "category": "agents"
          },
          {
            "type": "name_match",
            "text": "sodium",
            "confidence": 1.0,
            "uuid": "1adffc42-a4d8-44d5-81d6-7dbd96ef8a6f",
            "name": "Sodium",
            "url": "https://haz-map.com/Agents/1527",
            "category": "agents"
          },
          {
            "type": "name_match",
            "text": "sodium glycolate",
            "confidence": 1.0,
            "uuid": "e39d63f3-4929-42a1-bc5b-df74c2021cf4",
            "name": "Sodium glycolate",
            "url": "https://haz-map.com/Agents/17581",
            "category": "agents"
          },
          {
            "type": "fuzzy_match",
            "text": "monosodium salt",
            "matched_name": "Zincon, monosodium salt",
            "confidence": 0.718944099378882,
            "uuid": "1b9c7ff2-2993-44ad-99f4-ba1cdcbdad89",
            "category": "agents",
            "url": "https://haz-map.com/Agents/18326"
          }
        ]
      },
      "category": {
        "original_name": "Category",
        "value": "Organic Acids, Metal Salts",
        "links": [],
        "cross_references": []
      },
      "description": {
        "original_name": "Description",
        "value": "White lumpy powder; [Alfa Aesar MSDS]",
        "links": [],
        "cross_references": []
      },
      "sourcesuses": {
        "original_name": "Sources/Uses",
        "value": "Formerly registered in the US for use as a hard surface disinfectant/sanitizer; [FDA] Used as a buffer in electroless plating and textile finishing; [Alfa Aesar MSDS] Permitted for use as an inert ingredient in non-food pesticide products; [EPA]",
        "links": [],
        "cross_references": []
      },
      "comments": {
        "original_name": "Comments",
        "value": "Causes zonal hepatitis, changes primarily in glomeruli, and changes in the spleen in oral lethal-dose studies of mice; Causes changes in renal tubules and weight loss in oral studies of rats; [RTECS] May cause irritation; [Alfa Aesar MSDS] See \"Glycolic acid.\"",
        "links": [],
        "cross_references": [
          {
            "type": "name_match",
            "text": "weight loss",
            "confidence": 1.0,
            "uuid": "9b7baca4-cf1b-4e78-99d2-2377fbac8f8b",
            "name": "weight loss",
            "url": "https://haz-map.com/Findings/3",
            "category": "findings"
          },
          {
            "type": "name_match",
            "text": "glycolic acid",
            "confidence": 1.0,
            "uuid": "1584a0fe-5d54-4768-85ea-815563bd0798",
            "name": "Glycolic acid",
            "url": "https://haz-map.com/Agents/1410",
            "category": "agents"
          },
          {
            "type": "name_match",
            "text": "ht",
            "confidence": 1.0,
            "uuid": "764df367-8d53-4a11-81a2-31ccfe122a8d",
            "name": "HT",
            "url": "https://haz-map.com/Agents/2168",
            "category": "agents"
          }
        ]
      },
      "biomedical_references": {
        "original_name": "Biomedical References",
        "value": "Search PubMed",
        "links": [
          {
            "text": "Search PubMed",
            "url": "https://www.ncbi.nlm.nih.gov/pubmed?term=Sodium+glycolate%20AND%20human%5Bmh%5D%20AND%20%28Occupational%20Diseases%20%5Bmh%5D%20OR%20Occupational%20Exposure%20%5Bmh%5D%29%20%20AND%20%28tox%5Bsb%5D%29&cmd=search"
          }
        ],
        "cross_references": []
      }
    },
    "exposure_assessment": {
      "vapor_pressure": {
        "original_name": "Vapor Pressure",
        "value": "4.58E-10 mm Hg",
        "links": [],
        "cross_references": []
      }
    },
    "adverse_effects": {
      "hepatotoxin": {
        "original_name": "Hepatotoxin",
        "value": "Hepatoxic (a) from occupational exposure (secondary effect) or (b) in animal studies or in humans after ingestion",
        "links": [],
        "cross_references": []
      }
    },
    "diseases_processes_and_activities_linked_to_this_agent": {
      "processes": {
        "original_name": "Processes",
        "value": "Industrial Processes with risk of exposure: Electroplating Textiles (Printing, Dyeing, or Finishing) Using Disinfectants or Biocides",
        "links": [
          {
            "text": "Electroplating",
            "url": "https://haz-map.com/Processes/66"
          },
          {
            "text": "Textiles (Printing, Dyeing, or Finishing)",
            "url": "https://haz-map.com/Processes/235"
          },
          {
            "text": "Using Disinfectants or Biocides",
            "url": "https://haz-map.com/Processes/167"
          }
        ],
        "cross_references": [
          {
            "type": "url_match",
            "text": "Electroplating",
            "url": "https://haz-map.com/Processes/66",
            "confidence": 1.0,
            "uuid": "ae1bd2c1-37de-4b26-82b6-47ee206af837",
            "name": "Electroplating",
            "category": "processes"
          },
          {
            "type": "url_match",
            "text": "Using Disinfectants or Biocides",
            "url": "https://haz-map.com/Processes/167",
            "confidence": 1.0,
            "uuid": "7accb745-ad60-4ef8-9039-8ac4febb8fd8",
            "name": "Using Disinfectants or Biocides",
            "category": "processes"
          }
        ]
      }
    }
  },
  "cross_references": [
    {
      "type": "url_match",
      "text": "Electroplating",
      "url": "https://haz-map.com/Processes/66",
      "confidence": 1.0,
      "uuid": "ae1bd2c1-37de-4b26-82b6-47ee206af837",
      "name": "Electroplating",
      "category": "processes"
    },
    {
      "type": "url_match",
      "text": "Using Disinfectants or Biocides",
      "url": "https://haz-map.com/Processes/167",
      "confidence": 1.0,
      "uuid": "7accb745-ad60-4ef8-9039-8ac4febb8fd8",
      "name": "Using Disinfectants or Biocides",
      "category": "processes"
    },
    {
      "type": "name_match",
      "text": "weight loss",
      "confidence": 1.0,
      "uuid": "9b7baca4-cf1b-4e78-99d2-2377fbac8f8b",
      "name": "weight loss",
      "url": "https://haz-map.com/Findings/3",
      "category": "findings"
    },
    {
      "type": "name_match",
      "text": "acetic acid",
      "confidence": 1.0,
      "uuid": "0905c6e4-df84-4895-a92d-658819239bbd",
      "name": "Acetic acid",
      "url": "https://haz-map.com/Agents/207",
      "category": "agents"
    },
    {
      "type": "name_match",
      "text": "glycolic acid",
      "confidence": 1.0,
      "uuid": "1584a0fe-5d54-4768-85ea-815563bd0798",
      "name": "Glycolic acid",
      "url": "https://haz-map.com/Agents/1410",
      "category": "agents"
    },
    {
      "type": "name_match",
      "text": "sodium",
      "confidence": 1.0,
      "uuid": "1adffc42-a4d8-44d5-81d6-7dbd96ef8a6f",
      "name": "Sodium",
      "url": "https://haz-map.com/Agents/1527",
      "category": "agents"
    },
    {
      "type": "name_match",
      "text": "ht",
      "confidence": 1.0,
      "uuid": "764df367-8d53-4a11-81a2-31ccfe122a8d",
      "name": "HT",
      "url": "https://haz-map.com/Agents/2168",
      "category": "agents"
    },
    {
      "type": "name_match",
      "text": "sodium glycolate",
      "confidence": 1.0,
      "uuid": "e39d63f3-4929-42a1-bc5b-df74c2021cf4",
      "name": "Sodium glycolate",
      "url": "https://haz-map.com/Agents/17581",
      "category": "agents"
    },
    {
      "type": "fuzzy_match",
      "text": "monosodium salt",
      "matched_name": "Zincon, monosodium salt",
      "confidence": 0.718944099378882,
      "uuid": "1b9c7ff2-2993-44ad-99f4-ba1cdcbdad89",
      "category": "agents",
      "url": "https://haz-map.com/Agents/18326"
    }
  ],
  "all_links": [
    {
      "text": "Search PubMed",
      "url": "https://www.ncbi.nlm.nih.gov/pubmed?term=Sodium+glycolate%20AND%20human%5Bmh%5D%20AND%20%28Occupational%20Diseases%20%5Bmh%5D%20OR%20Occupational%20Exposure%20%5Bmh%5D%29%20%20AND%20%28tox%5Bsb%5D%29&cmd=search"
    },
    {
      "text": "Electroplating",
      "url": "https://haz-map.com/Processes/66"
    },
    {
      "text": "Textiles (Printing, Dyeing, or Finishing)",
      "url": "https://haz-map.com/Processes/235"
    },
    {
      "text": "Using Disinfectants or Biocides",
      "url": "https://haz-map.com/Processes/167"
    }
  ]
}