{
  "metadata": {
    "scraped_from": "https://haz-map.com/Agents/17111",
    "entity_name": "Riboflavin",
    "category": "agents",
    "uuid": "e4b5083e-5285-44c6-8d22-b921bc664fb0",
    "scraped_at": "2025-07-23T21:43:42.531475"
  },
  "parsed_at": "2025-07-24T01:13:01.457758",
  "title": "Riboflavin",
  "sections": {
    "general": {
      "agent_name": {
        "original_name": "Agent Name",
        "value": "Riboflavin",
        "links": [],
        "cross_references": [
          {
            "type": "name_match",
            "text": "riboflavin",
            "confidence": 1.0,
            "uuid": "e4b5083e-5285-44c6-8d22-b921bc664fb0",
            "name": "Riboflavin",
            "url": "https://haz-map.com/Agents/17111",
            "category": "agents"
          }
        ]
      },
      "cas_number": {
        "original_name": "CAS Number",
        "value": "83-88-5",
        "links": [],
        "cross_references": []
      },
      "formula": {
        "original_name": "Formula",
        "value": "C17-H20-N4-O6",
        "links": [],
        "cross_references": []
      },
      "major_category": {
        "original_name": "Major Category",
        "value": "Biological Agents",
        "links": [],
        "cross_references": []
      },
      "synonyms": {
        "original_name": "Synonyms",
        "value": "6,7-Dimethyl-9-D-ribitylisoalloxazine; 7,8-Dimethyl-10-(D-ribo-2,3,4,5-tetrahydroxypentyl)isoalloxazine; 7,8-Dimethyl-10-ribitylisoalloxazine; Aqua-Flave; Beflavin; Beflavine; Benzo(g)pteridine-2,4(3H,10H)-dione, 7,8-dimethyl-10-(D-ribo-2,3,4,5-tetrahydroxypentyl)-; D-Ribitol, 1-deoxy-1-(3,4-dihydro-7,8-dimethyl-2,4-dioxobenzo(g)pteridin-10(2H)-yl)-; Dermadram; Fiboflavin; Flavaxin; Flavin BB; Flaxain; HYRE; Hyflavin; Isoalloxazine, 7,8-dimethyl-10-(D-ribo-2,3,4,5-tetrahydroxypentyl)-; Isoalloxazine, 7,8-dimethyl-10-D-ribityl-; Lactobene; Lactoflavin; Lactoflavine; Ribipca; Ribocrisina; Riboderm; Riboflavina [INN-Spanish]; Riboflavine [INN-French]; Riboflavinequinone; Riboflavinum [INN-Latin]; Ribosyn; Ribotone; Ribovel; Russupteridine Yellow III; Vitaflavine; Vitamin B2; Vitamin Bi; Vitamin G; Vitasan B2; [ChemIDplus]",
        "links": [],
        "cross_references": [
          {
            "type": "name_match",
            "text": "quinone",
            "confidence": 1.0,
            "uuid": "d01e66c3-ad06-4707-8d42-3c6655001c1a",
            "name": "Quinone",
            "url": "https://haz-map.com/Agents/303",
            "category": "agents"
          },
          {
            "type": "name_match",
            "text": "2,4-d",
            "confidence": 1.0,
            "uuid": "bed35f54-2d93-4ffd-a3ee-723ab365faf1",
            "name": "2,4-D",
            "url": "https://haz-map.com/Agents/389",
            "category": "agents"
          },
          {
            "type": "name_match",
            "text": "riboflavin",
            "confidence": 1.0,
            "uuid": "e4b5083e-5285-44c6-8d22-b921bc664fb0",
            "name": "Riboflavin",
            "url": "https://haz-map.com/Agents/17111",
            "category": "agents"
          }
        ]
      },
      "category": {
        "original_name": "Category",
        "value": "Vitamins and Derivatives",
        "links": [],
        "cross_references": []
      },
      "description": {
        "original_name": "Description",
        "value": "Orange-yellow solid; [Merck Index] Dark yellow powder; [Sigma-Aldrich MSDS]",
        "links": [],
        "cross_references": []
      },
      "sourcesuses": {
        "original_name": "Sources/Uses",
        "value": "Present in minute amounts in all plant and animal cells and especially in milk, eggs, malted barley, liver, kidney, heart, and leafy vegetables; Used as a food coloring and vitamin (enzyme cofactor); [Merck Index] Used as a medication, animal feed supplement, nutritional supplement, and to inactivate pathogens and viruses; [HSDB] Used as flavoring agent, color, and nutritional supplement for foods; [FDA] Permitted for use as an inert ingredient in non-food pesticide products; [EPA]",
        "links": [],
        "cross_references": []
      },
      "comments": {
        "original_name": "Comments",
        "value": "No listed effects of short-term or long-term exposure; [ICSC] Large doses may cause yellow perspiration; [Olson, p. 446] Acceptable daily intake (ADI) of 0-0.5 mg/kg; [JECFA] May cause irritation; [Sigma-Aldrich MSDS]",
        "links": [],
        "cross_references": []
      },
      "biomedical_references": {
        "original_name": "Biomedical References",
        "value": "Search PubMed",
        "links": [
          {
            "text": "Search PubMed",
            "url": "https://www.ncbi.nlm.nih.gov/pubmed?term=Riboflavin%20AND%20human%5Bmh%5D%20AND%20%28Occupational%20Diseases%20%5Bmh%5D%20OR%20Occupational%20Exposure%20%5Bmh%5D%29%20%20AND%20%28tox%5Bsb%5D%29&cmd=search"
          }
        ],
        "cross_references": []
      }
    },
    "exposure_assessment": {
      "vapor_pressure": {
        "original_name": "Vapor Pressure",
        "value": "8.9E-22 mm Hg",
        "links": [],
        "cross_references": []
      }
    },
    "diseases_processes_and_activities_linked_to_this_agent": {
      "processes": {
        "original_name": "Processes",
        "value": "Industrial Processes with risk of exposure: Farming (Feed Additives)",
        "links": [
          {
            "text": "Farming (Feed Additives)",
            "url": "https://haz-map.com/Processes/262"
          }
        ],
        "cross_references": []
      }
    }
  },
  "cross_references": [
    {
      "type": "name_match",
      "text": "quinone",
      "confidence": 1.0,
      "uuid": "d01e66c3-ad06-4707-8d42-3c6655001c1a",
      "name": "Quinone",
      "url": "https://haz-map.com/Agents/303",
      "category": "agents"
    },
    {
      "type": "name_match",
      "text": "2,4-d",
      "confidence": 1.0,
      "uuid": "bed35f54-2d93-4ffd-a3ee-723ab365faf1",
      "name": "2,4-D",
      "url": "https://haz-map.com/Agents/389",
      "category": "agents"
    },
    {
      "type": "name_match",
      "text": "riboflavin",
      "confidence": 1.0,
      "uuid": "e4b5083e-5285-44c6-8d22-b921bc664fb0",
      "name": "Riboflavin",
      "url": "https://haz-map.com/Agents/17111",
      "category": "agents"
    }
  ],
  "all_links": [
    {
      "text": "Search PubMed",
      "url": "https://www.ncbi.nlm.nih.gov/pubmed?term=Riboflavin%20AND%20human%5Bmh%5D%20AND%20%28Occupational%20Diseases%20%5Bmh%5D%20OR%20Occupational%20Exposure%20%5Bmh%5D%29%20%20AND%20%28tox%5Bsb%5D%29&cmd=search"
    },
    {
      "text": "Farming (Feed Additives)",
      "url": "https://haz-map.com/Processes/262"
    }
  ]
}