{
  "metadata": {
    "scraped_from": "https://haz-map.com/Agents/17689",
    "entity_name": "Sorbitol",
    "category": "agents",
    "uuid": "e4bcd401-4f5a-4809-b5e2-c02224590e12",
    "scraped_at": "2025-07-23T21:48:50.442967"
  },
  "parsed_at": "2025-07-24T01:10:29.767440",
  "title": "Sorbitol",
  "sections": {
    "general": {
      "agent_name": {
        "original_name": "Agent Name",
        "value": "Sorbitol",
        "links": [],
        "cross_references": [
          {
            "type": "name_match",
            "text": "sorbitol",
            "confidence": 1.0,
            "uuid": "e4bcd401-4f5a-4809-b5e2-c02224590e12",
            "name": "Sorbitol",
            "url": "https://haz-map.com/Agents/17689",
            "category": "agents"
          }
        ]
      },
      "cas_number": {
        "original_name": "CAS Number",
        "value": "50-70-4",
        "links": [],
        "cross_references": []
      },
      "formula": {
        "original_name": "Formula",
        "value": "C6-H14-O6",
        "links": [],
        "cross_references": []
      },
      "major_category": {
        "original_name": "Major Category",
        "value": "Biological Agents",
        "links": [],
        "cross_references": []
      },
      "synonyms": {
        "original_name": "Synonyms",
        "value": "(-)-Sorbitol; Cholaxine; D-(-)-Sorbitol; D-1,2,3,4,5,6-Hexanehexol; D-Glucitol; D-Sorbite; D-Sorbitol; D-Sorbol; Diakarmon; Esasorb; Foodol D 70; Glucarine; Glucitol; Gulitol; Hexahydric alcohol; Karion; Karion (carbohydrate); Karion instant; L-Gulitol; Medevac; Multitol; Neosorb; Neosorb 20/60DC; Neosorb 70/02; Neosorb 70/70; Neosorb P 20/60; Neosorb P 60; Nivitin; Sionit; Sionit K; Sionite; Sionon; Siosan; Sorbex M; Sorbex R; Sorbex RP; Sorbex S; Sorbex X; Sorbicolan; Sorbilande; Sorbite; Sorbitol 3% in plastic container; Sorbitol 3.3% in plastic container; Sorbitol F; Sorbitol FP; Sorbitol syrup C; Sorbo; Sorbol; Sorbostyl; Sorvilande; 1,2,3,4,5,6-Hexanehexol; Glucitol, D-; Sorbitol solutions; [ChemIDplus] Sorbit; Resulax; Sorbilax; [Merck Index]",
        "links": [],
        "cross_references": [
          {
            "type": "name_match",
            "text": "sorbitol",
            "confidence": 1.0,
            "uuid": "e4bcd401-4f5a-4809-b5e2-c02224590e12",
            "name": "Sorbitol",
            "url": "https://haz-map.com/Agents/17689",
            "category": "agents"
          }
        ]
      },
      "category": {
        "original_name": "Category",
        "value": "Monosaccharides and Derivatives",
        "links": [],
        "cross_references": []
      },
      "description": {
        "original_name": "Description",
        "value": "Hygroscopic solid; [Merck Index] White odorless powder; Hygroscopic; [Alfa Aesar MSDS]",
        "links": [],
        "cross_references": []
      },
      "sourcesuses": {
        "original_name": "Sources/Uses",
        "value": "Found in many fruits, seaweed, and algae; Used to make sorbose, ascorbic acid, propylene glycol, synthetic plasticizers, and resins; Used as a moisture conditioner on printing rolls, leather, tobacco, writing inks, antifreeze mixtures, and food and beverage manufacturing; Also used as a sugar substitute for diabetics, pharmaceutic aid, and laxative; [Merck Index] Used in cosmetics, as a plasticizer in film formulations, surfactant, in urethane resins and rigid foams, as stabilizer for vinyl resins, in varnishes and lacquers, as a sequestrant for some multivalent metals, and for various other food, pharmaceutical, and medical applications; [HSDB] Used as a flavoring agent, color, nutritional supplement, pH control agent, drying agent, humectant, solvent, texturizer, and stabilizer or thickener for foods; [FDA] Permitted for use as an inert ingredient in non-food pesticide products; [EPA] \"Sorbitol, also known as glucitol, is a sugar alcohol, which the human body metabolizes slowly. It can be obtained by reduction of glucose, changing the aldehyde group to a hydroxyl group.\" [Wikipedia]",
        "links": [],
        "cross_references": [
          {
            "type": "name_match",
            "text": "propylene glycol",
            "confidence": 1.0,
            "uuid": "6d7c61db-8aa2-442e-b6c7-8a0385ab77da",
            "name": "Propylene glycol",
            "url": "https://haz-map.com/Agents/685",
            "category": "agents"
          },
          {
            "type": "name_match",
            "text": "ethane",
            "confidence": 1.0,
            "uuid": "5162cc8c-dfb9-4060-81ac-38a8cec7f9dd",
            "name": "Ethane",
            "url": "https://haz-map.com/Agents/1075",
            "category": "agents"
          },
          {
            "type": "name_match",
            "text": "propylene",
            "confidence": 1.0,
            "uuid": "78ac73a1-0029-4a50-b283-561134c72041",
            "name": "Propylene",
            "url": "https://haz-map.com/Agents/1078",
            "category": "agents"
          },
          {
            "type": "name_match",
            "text": "urethane",
            "confidence": 1.0,
            "uuid": "6405f173-6b8a-4d9b-a282-a1a6bf6901fd",
            "name": "Urethane",
            "url": "https://haz-map.com/Agents/2032",
            "category": "agents"
          },
          {
            "type": "name_match",
            "text": "sorbose",
            "confidence": 1.0,
            "uuid": "5b8f4688-7061-4ee5-8fc0-74957815e2c3",
            "name": "Sorbose",
            "url": "https://haz-map.com/Agents/7191",
            "category": "agents"
          },
          {
            "type": "name_match",
            "text": "ascorbic acid",
            "confidence": 1.0,
            "uuid": "2c861365-3e0c-4c5e-bf0c-b6fb964f95de",
            "name": "Ascorbic acid",
            "url": "https://haz-map.com/Agents/11991",
            "category": "agents"
          },
          {
            "type": "name_match",
            "text": "glucose",
            "confidence": 1.0,
            "uuid": "329d86ed-6744-4566-825c-5247ed1a8f75",
            "name": "Glucose",
            "url": "https://haz-map.com/Agents/14413",
            "category": "agents"
          },
          {
            "type": "name_match",
            "text": "sorbitol",
            "confidence": 1.0,
            "uuid": "e4bcd401-4f5a-4809-b5e2-c02224590e12",
            "name": "Sorbitol",
            "url": "https://haz-map.com/Agents/17689",
            "category": "agents"
          }
        ]
      },
      "comments": {
        "original_name": "Comments",
        "value": "No adverse effects on reproduction, development, or lactation observed in 3-generation study of rats at doses up to 10% of the diet; [REPROTOX] May cause gastrointestinal tract effects; \"Health effects of exposure to the substance have been investigated extensively but none have been found.\" [ICSC] May cause irritation; [Alfa Aesar MSDS] See \"Mannitol.\"",
        "links": [],
        "cross_references": [
          {
            "type": "name_match",
            "text": "mannitol",
            "confidence": 1.0,
            "uuid": "1b4d029d-e798-4c03-8ec3-b7984b76817a",
            "name": "Mannitol",
            "url": "https://haz-map.com/Agents/15381",
            "category": "agents"
          }
        ]
      },
      "biomedical_references": {
        "original_name": "Biomedical References",
        "value": "Search PubMed",
        "links": [
          {
            "text": "Search PubMed",
            "url": "https://www.ncbi.nlm.nih.gov/pubmed?term=Sorbitol%20AND%20human%5Bmh%5D%20AND%20%28Occupational%20Diseases%20%5Bmh%5D%20OR%20Occupational%20Exposure%20%5Bmh%5D%29%20%20AND%20%28tox%5Bsb%5D%29&cmd=search"
          }
        ],
        "cross_references": []
      }
    },
    "exposure_assessment": {
      "vapor_pressure": {
        "original_name": "Vapor Pressure",
        "value": "4.92E-09 mm Hg",
        "links": [],
        "cross_references": []
      }
    },
    "diseases_processes_and_activities_linked_to_this_agent": {
      "processes": {
        "original_name": "Processes",
        "value": "Industrial Processes with risk of exposure: Leather Tanning and Processing Metal Extraction and Refining Painting (Pigments, Binders, and Biocides)",
        "links": [
          {
            "text": "Leather Tanning and Processing",
            "url": "https://haz-map.com/Processes/230"
          },
          {
            "text": "Metal Extraction and Refining",
            "url": "https://haz-map.com/Processes/261"
          },
          {
            "text": "Painting (Pigments, Binders, and Biocides)",
            "url": "https://haz-map.com/Processes/145"
          }
        ],
        "cross_references": [
          {
            "type": "url_match",
            "text": "Painting (Pigments, Binders, and Biocides)",
            "url": "https://haz-map.com/Processes/145",
            "confidence": 1.0,
            "uuid": "25867878-e178-4c21-906f-d392d86b76de",
            "name": "Painting (Pigments, Binders, and Biocides)",
            "category": "processes"
          },
          {
            "type": "name_match",
            "text": "painting",
            "confidence": 1.0,
            "uuid": "19816ce9-9edf-4a86-8e64-b0cbf7dcf520",
            "name": "Painting",
            "url": "https://haz-map.com/Activities/9",
            "category": "activities"
          }
        ]
      }
    }
  },
  "cross_references": [
    {
      "type": "url_match",
      "text": "Painting (Pigments, Binders, and Biocides)",
      "url": "https://haz-map.com/Processes/145",
      "confidence": 1.0,
      "uuid": "25867878-e178-4c21-906f-d392d86b76de",
      "name": "Painting (Pigments, Binders, and Biocides)",
      "category": "processes"
    },
    {
      "type": "name_match",
      "text": "painting",
      "confidence": 1.0,
      "uuid": "19816ce9-9edf-4a86-8e64-b0cbf7dcf520",
      "name": "Painting",
      "url": "https://haz-map.com/Activities/9",
      "category": "activities"
    },
    {
      "type": "name_match",
      "text": "propylene glycol",
      "confidence": 1.0,
      "uuid": "6d7c61db-8aa2-442e-b6c7-8a0385ab77da",
      "name": "Propylene glycol",
      "url": "https://haz-map.com/Agents/685",
      "category": "agents"
    },
    {
      "type": "name_match",
      "text": "ethane",
      "confidence": 1.0,
      "uuid": "5162cc8c-dfb9-4060-81ac-38a8cec7f9dd",
      "name": "Ethane",
      "url": "https://haz-map.com/Agents/1075",
      "category": "agents"
    },
    {
      "type": "name_match",
      "text": "propylene",
      "confidence": 1.0,
      "uuid": "78ac73a1-0029-4a50-b283-561134c72041",
      "name": "Propylene",
      "url": "https://haz-map.com/Agents/1078",
      "category": "agents"
    },
    {
      "type": "name_match",
      "text": "urethane",
      "confidence": 1.0,
      "uuid": "6405f173-6b8a-4d9b-a282-a1a6bf6901fd",
      "name": "Urethane",
      "url": "https://haz-map.com/Agents/2032",
      "category": "agents"
    },
    {
      "type": "name_match",
      "text": "sorbose",
      "confidence": 1.0,
      "uuid": "5b8f4688-7061-4ee5-8fc0-74957815e2c3",
      "name": "Sorbose",
      "url": "https://haz-map.com/Agents/7191",
      "category": "agents"
    },
    {
      "type": "name_match",
      "text": "ascorbic acid",
      "confidence": 1.0,
      "uuid": "2c861365-3e0c-4c5e-bf0c-b6fb964f95de",
      "name": "Ascorbic acid",
      "url": "https://haz-map.com/Agents/11991",
      "category": "agents"
    },
    {
      "type": "name_match",
      "text": "glucose",
      "confidence": 1.0,
      "uuid": "329d86ed-6744-4566-825c-5247ed1a8f75",
      "name": "Glucose",
      "url": "https://haz-map.com/Agents/14413",
      "category": "agents"
    },
    {
      "type": "name_match",
      "text": "mannitol",
      "confidence": 1.0,
      "uuid": "1b4d029d-e798-4c03-8ec3-b7984b76817a",
      "name": "Mannitol",
      "url": "https://haz-map.com/Agents/15381",
      "category": "agents"
    },
    {
      "type": "name_match",
      "text": "sorbitol",
      "confidence": 1.0,
      "uuid": "e4bcd401-4f5a-4809-b5e2-c02224590e12",
      "name": "Sorbitol",
      "url": "https://haz-map.com/Agents/17689",
      "category": "agents"
    }
  ],
  "all_links": [
    {
      "text": "Search PubMed",
      "url": "https://www.ncbi.nlm.nih.gov/pubmed?term=Sorbitol%20AND%20human%5Bmh%5D%20AND%20%28Occupational%20Diseases%20%5Bmh%5D%20OR%20Occupational%20Exposure%20%5Bmh%5D%29%20%20AND%20%28tox%5Bsb%5D%29&cmd=search"
    },
    {
      "text": "Leather Tanning and Processing",
      "url": "https://haz-map.com/Processes/230"
    },
    {
      "text": "Metal Extraction and Refining",
      "url": "https://haz-map.com/Processes/261"
    },
    {
      "text": "Painting (Pigments, Binders, and Biocides)",
      "url": "https://haz-map.com/Processes/145"
    }
  ]
}