{
  "metadata": {
    "scraped_from": "https://haz-map.com/Agents/17042",
    "entity_name": "Pyridoxine hydrochloride",
    "category": "agents",
    "uuid": "e4c2df4f-32d1-4bb8-9d9b-da4b4483359a",
    "scraped_at": "2025-07-23T21:42:58.890244"
  },
  "parsed_at": "2025-07-24T00:58:40.304402",
  "title": "Pyridoxine hydrochloride",
  "sections": {
    "general": {
      "agent_name": {
        "original_name": "Agent Name",
        "value": "Pyridoxine hydrochloride",
        "links": [],
        "cross_references": [
          {
            "type": "name_match",
            "text": "pyridoxine",
            "confidence": 1.0,
            "uuid": "d18fa8ac-e5f3-461f-af5f-8f90de5fe52d",
            "name": "Pyridoxine",
            "url": "https://haz-map.com/Agents/17041",
            "category": "agents"
          },
          {
            "type": "name_match",
            "text": "pyridoxine hydrochloride",
            "confidence": 1.0,
            "uuid": "e4c2df4f-32d1-4bb8-9d9b-da4b4483359a",
            "name": "Pyridoxine hydrochloride",
            "url": "https://haz-map.com/Agents/17042",
            "category": "agents"
          }
        ]
      },
      "cas_number": {
        "original_name": "CAS Number",
        "value": "58-56-0",
        "links": [],
        "cross_references": []
      },
      "formula": {
        "original_name": "Formula",
        "value": "C8-H11-N-O3.Cl-H",
        "links": [],
        "cross_references": []
      },
      "major_category": {
        "original_name": "Major Category",
        "value": "Biological Agents",
        "links": [],
        "cross_references": []
      },
      "synonyms": {
        "original_name": "Synonyms",
        "value": "2-Methyl-3-hydroxy-4,5-bis(hydroxymethyl)pyridine hydrochloride; 3,4-Pyridinedimethanol, 5-hydroxy-6-methyl-, hydrochloride; 3-Hydroxy-4,5-dihydroxymethyl-2-methylpyridine hydrochloride; 3-Hydroxy-4,5-dimethylol-alpha-picoline hydrochloride; 4,5-Bis(hydroxymethyl)-2-methylpyridin-3-ol hydrochloride; 4,5-Bis(hydroxymethyl)-3-hydroxy-2-methylpyridine hydrochloride; 5-Hydroxy-6-methyl-3,4-pyridinedicarbinol hydrochloride; 5-Hydroxy-6-methyl-3,4-pyridinedimethanol hydrochloride; 5-Hydroxy-6-methyl-3,4-pyridinedimethanol, hydrochloride; Aderomine hydrochloride; Aderoxin; Aderoxine; Alestrol; Becilan; Beesix; Benadon; Bonadoxin; Bonasanit; Campoviton 6; Godabion; Gravidox; Hexa-Betalin; Hexa-Betalin (R); Hexabione hydrochloride; Hexavibex; Hexermin; Hexobion; Hydoxin; Paxadon; Pydox; Pyridipca; Pyridox; Pyridoxin hydrochloride; Pyridoxine HCl; Pyridoxine chloride; Pyridoxine monohydrochloride; Pyridoxinium chloride; Pyridoxinum hydrochloricum (Hungarian); Pyridoxol hydrochloride; Rodex; Rodex (R); Vitamin B6 hydrochloride; [ChemIDplus]",
        "links": [],
        "cross_references": [
          {
            "type": "name_match",
            "text": "pyridine",
            "confidence": 1.0,
            "uuid": "a2d916a4-844b-4df6-9be5-868b2b364d71",
            "name": "Pyridine",
            "url": "https://haz-map.com/Agents/616",
            "category": "agents"
          },
          {
            "type": "name_match",
            "text": "tali",
            "confidence": 1.0,
            "uuid": "8c3a0f99-2143-4122-b539-ec5cc49596b0",
            "name": "Tali",
            "url": "https://haz-map.com/Agents/1128",
            "category": "agents"
          },
          {
            "type": "name_match",
            "text": "methylpyridine",
            "confidence": 1.0,
            "uuid": "4c8f8772-01ae-4de4-8af0-71733c0aaad4",
            "name": "Methylpyridine",
            "url": "https://haz-map.com/Agents/1496",
            "category": "agents"
          },
          {
            "type": "name_match",
            "text": "pyridine hydrochloride",
            "confidence": 1.0,
            "uuid": "7b5926f9-0a37-48d3-9cc9-37db43c0809f",
            "name": "Pyridine hydrochloride",
            "url": "https://haz-map.com/Agents/17023",
            "category": "agents"
          },
          {
            "type": "name_match",
            "text": "pyridoxine",
            "confidence": 1.0,
            "uuid": "d18fa8ac-e5f3-461f-af5f-8f90de5fe52d",
            "name": "Pyridoxine",
            "url": "https://haz-map.com/Agents/17041",
            "category": "agents"
          }
        ]
      },
      "category": {
        "original_name": "Category",
        "value": "Vitamins and Derivatives",
        "links": [],
        "cross_references": []
      },
      "description": {
        "original_name": "Description",
        "value": "Colorless or white solid; [HSDB] White powder; [Sigma-Aldrich MSDS]",
        "links": [],
        "cross_references": []
      },
      "sourcesuses": {
        "original_name": "Sources/Uses",
        "value": "Vitamin B6 complex found in many foods, especially yeast, liver, and cereals; Used as a vitamin (enzyme cofactor); [Merck Index] Used as a basic industrial chemical, for other industrial applications, in cosmetics, pharmaceuticals, as a food additive, and laboratory chemical; [IUCLID] Used as a nutritional supplement; [FDA]",
        "links": [],
        "cross_references": [
          {
            "type": "name_match",
            "text": "mica",
            "confidence": 1.0,
            "uuid": "433f26f1-c399-4596-b179-ce3843cfd465",
            "name": "Mica",
            "url": "https://haz-map.com/Agents/621",
            "category": "agents"
          },
          {
            "type": "name_match",
            "text": "pharmaceuticals",
            "confidence": 1.0,
            "uuid": "713c3c30-b67e-4a2f-a90f-b32f8a306332",
            "name": "PHARMACEUTICALS",
            "url": "https://haz-map.com/Agents/1000",
            "category": "agents"
          }
        ]
      },
      "comments": {
        "original_name": "Comments",
        "value": "Causes convulsions, excitement, other liver changes, and multiple enzyme effects in acute oral studies of rats; [RTECS] Excessive, chronic ingestion (2-5 g/d for several months) can cause peripheral neuropathy; [Olson, p. 446] May cause irritation; [Sigma-Aldrich MSDS]",
        "links": [],
        "cross_references": [
          {
            "type": "name_match",
            "text": "convulsion",
            "confidence": 1.0,
            "uuid": "af2c36f8-707a-48e3-a62b-1aa07adc9b72",
            "name": "convulsion",
            "url": "https://haz-map.com/Findings/14",
            "category": "findings"
          },
          {
            "type": "name_match",
            "text": "neuropathy",
            "confidence": 1.0,
            "uuid": "8708368f-f68b-4a51-b1ea-01982070ed28",
            "name": "neuropathy",
            "url": "https://haz-map.com/Findings/85",
            "category": "findings"
          }
        ]
      },
      "biomedical_references": {
        "original_name": "Biomedical References",
        "value": "Search PubMed",
        "links": [
          {
            "text": "Search PubMed",
            "url": "https://www.ncbi.nlm.nih.gov/pubmed?term=Pyridoxine+hydrochloride%20AND%20human%5Bmh%5D%20AND%20%28Occupational%20Diseases%20%5Bmh%5D%20OR%20Occupational%20Exposure%20%5Bmh%5D%29%20%20AND%20%28tox%5Bsb%5D%29&cmd=search"
          }
        ],
        "cross_references": []
      }
    },
    "exposure_assessment": {
      "vapor_pressure": {
        "original_name": "Vapor Pressure",
        "value": "6.41E-08 mm Hg",
        "links": [],
        "cross_references": []
      }
    },
    "diseases_processes_and_activities_linked_to_this_agent": {
      "other_information": {
        "original_name": "Other Information",
        "value": "No other related information on this agent was found.",
        "links": [],
        "cross_references": []
      }
    }
  },
  "cross_references": [
    {
      "type": "name_match",
      "text": "convulsion",
      "confidence": 1.0,
      "uuid": "af2c36f8-707a-48e3-a62b-1aa07adc9b72",
      "name": "convulsion",
      "url": "https://haz-map.com/Findings/14",
      "category": "findings"
    },
    {
      "type": "name_match",
      "text": "neuropathy",
      "confidence": 1.0,
      "uuid": "8708368f-f68b-4a51-b1ea-01982070ed28",
      "name": "neuropathy",
      "url": "https://haz-map.com/Findings/85",
      "category": "findings"
    },
    {
      "type": "name_match",
      "text": "pyridine",
      "confidence": 1.0,
      "uuid": "a2d916a4-844b-4df6-9be5-868b2b364d71",
      "name": "Pyridine",
      "url": "https://haz-map.com/Agents/616",
      "category": "agents"
    },
    {
      "type": "name_match",
      "text": "mica",
      "confidence": 1.0,
      "uuid": "433f26f1-c399-4596-b179-ce3843cfd465",
      "name": "Mica",
      "url": "https://haz-map.com/Agents/621",
      "category": "agents"
    },
    {
      "type": "name_match",
      "text": "pharmaceuticals",
      "confidence": 1.0,
      "uuid": "713c3c30-b67e-4a2f-a90f-b32f8a306332",
      "name": "PHARMACEUTICALS",
      "url": "https://haz-map.com/Agents/1000",
      "category": "agents"
    },
    {
      "type": "name_match",
      "text": "tali",
      "confidence": 1.0,
      "uuid": "8c3a0f99-2143-4122-b539-ec5cc49596b0",
      "name": "Tali",
      "url": "https://haz-map.com/Agents/1128",
      "category": "agents"
    },
    {
      "type": "name_match",
      "text": "methylpyridine",
      "confidence": 1.0,
      "uuid": "4c8f8772-01ae-4de4-8af0-71733c0aaad4",
      "name": "Methylpyridine",
      "url": "https://haz-map.com/Agents/1496",
      "category": "agents"
    },
    {
      "type": "name_match",
      "text": "pyridine hydrochloride",
      "confidence": 1.0,
      "uuid": "7b5926f9-0a37-48d3-9cc9-37db43c0809f",
      "name": "Pyridine hydrochloride",
      "url": "https://haz-map.com/Agents/17023",
      "category": "agents"
    },
    {
      "type": "name_match",
      "text": "pyridoxine",
      "confidence": 1.0,
      "uuid": "d18fa8ac-e5f3-461f-af5f-8f90de5fe52d",
      "name": "Pyridoxine",
      "url": "https://haz-map.com/Agents/17041",
      "category": "agents"
    },
    {
      "type": "name_match",
      "text": "pyridoxine hydrochloride",
      "confidence": 1.0,
      "uuid": "e4c2df4f-32d1-4bb8-9d9b-da4b4483359a",
      "name": "Pyridoxine hydrochloride",
      "url": "https://haz-map.com/Agents/17042",
      "category": "agents"
    }
  ],
  "all_links": [
    {
      "text": "Search PubMed",
      "url": "https://www.ncbi.nlm.nih.gov/pubmed?term=Pyridoxine+hydrochloride%20AND%20human%5Bmh%5D%20AND%20%28Occupational%20Diseases%20%5Bmh%5D%20OR%20Occupational%20Exposure%20%5Bmh%5D%29%20%20AND%20%28tox%5Bsb%5D%29&cmd=search"
    }
  ]
}