{
  "metadata": {
    "scraped_from": "https://haz-map.com/Agents/1397",
    "entity_name": "Cyanogen bromide",
    "category": "agents",
    "uuid": "e583e38b-4c5d-49cc-ad9f-82d952babd42",
    "scraped_at": "2025-07-23T18:58:09.111668"
  },
  "parsed_at": "2025-07-24T00:54:26.004178",
  "title": "Cyanogen bromide",
  "sections": {
    "general": {
      "agent_name": {
        "original_name": "Agent Name",
        "value": "Cyanogen bromide",
        "links": [],
        "cross_references": [
          {
            "type": "name_match",
            "text": "cyanogen",
            "confidence": 1.0,
            "uuid": "e92889b7-653d-43ec-8225-d7a4ee11a6b3",
            "name": "Cyanogen",
            "url": "https://haz-map.com/Agents/382",
            "category": "agents"
          },
          {
            "type": "name_match",
            "text": "cyanogen bromide",
            "confidence": 1.0,
            "uuid": "e583e38b-4c5d-49cc-ad9f-82d952babd42",
            "name": "Cyanogen bromide",
            "url": "https://haz-map.com/Agents/1397",
            "category": "agents"
          }
        ]
      },
      "alternative_name": {
        "original_name": "Alternative Name",
        "value": "Bromine cyanide",
        "links": [],
        "cross_references": [
          {
            "type": "name_match",
            "text": "bromine",
            "confidence": 1.0,
            "uuid": "9b659123-45fb-4e5c-b681-d3c1cec47df3",
            "name": "Bromine",
            "url": "https://haz-map.com/Agents/315",
            "category": "agents"
          },
          {
            "type": "name_match",
            "text": "cyanide",
            "confidence": 1.0,
            "uuid": "0b4d38ba-cc5c-4386-8079-9e7ff8fb2d3a",
            "name": "Cyanide",
            "url": "https://haz-map.com/Agents/13350",
            "category": "agents"
          }
        ]
      },
      "cas_number": {
        "original_name": "CAS Number",
        "value": "506-68-3",
        "links": [],
        "cross_references": []
      },
      "formula": {
        "original_name": "Formula",
        "value": "C-Br-N",
        "links": [],
        "cross_references": []
      },
      "major_category": {
        "original_name": "Major Category",
        "value": "Toxic Gases & Vapors",
        "links": [],
        "cross_references": []
      },
      "synonyms": {
        "original_name": "Synonyms",
        "value": "Bromine cyanide; Bromocyan; Bromocyanide; Bromocyanogen; Bromure de cyanogen [French]; Campilit; Cyanobromide; Cyanogen monobromide; TL 822; Bromocyane; [ChemIDplus] UN1889",
        "links": [],
        "cross_references": [
          {
            "type": "name_match",
            "text": "bromine",
            "confidence": 1.0,
            "uuid": "9b659123-45fb-4e5c-b681-d3c1cec47df3",
            "name": "Bromine",
            "url": "https://haz-map.com/Agents/315",
            "category": "agents"
          },
          {
            "type": "name_match",
            "text": "cyanogen",
            "confidence": 1.0,
            "uuid": "e92889b7-653d-43ec-8225-d7a4ee11a6b3",
            "name": "Cyanogen",
            "url": "https://haz-map.com/Agents/382",
            "category": "agents"
          },
          {
            "type": "name_match",
            "text": "cyanide",
            "confidence": 1.0,
            "uuid": "0b4d38ba-cc5c-4386-8079-9e7ff8fb2d3a",
            "name": "Cyanide",
            "url": "https://haz-map.com/Agents/13350",
            "category": "agents"
          }
        ]
      },
      "category": {
        "original_name": "Category",
        "value": "Cyanides",
        "links": [],
        "cross_references": [
          {
            "type": "name_match",
            "text": "cyanides",
            "confidence": 1.0,
            "uuid": "e0820766-8caf-4340-b774-eaf713436c8c",
            "name": "CYANIDES",
            "url": "https://haz-map.com/Agents/714",
            "category": "agents"
          },
          {
            "type": "name_match",
            "text": "cyanide",
            "confidence": 1.0,
            "uuid": "0b4d38ba-cc5c-4386-8079-9e7ff8fb2d3a",
            "name": "Cyanide",
            "url": "https://haz-map.com/Agents/13350",
            "category": "agents"
          }
        ]
      },
      "description": {
        "original_name": "Description",
        "value": "Colorless needles or cubes with a penetrating odor; [HSDB] Colorless or white solid; [ICSC] Colorless crystalline solid; [Aldrich MSDS]",
        "links": [],
        "cross_references": [
          {
            "type": "name_match",
            "text": "bes",
            "confidence": 1.0,
            "uuid": "3074c0ff-c637-46e9-9a00-5b14f02c2d53",
            "name": "BES",
            "url": "https://haz-map.com/Agents/15755",
            "category": "agents"
          },
          {
            "type": "fuzzy_match",
            "text": "crystalline",
            "matched_name": "Silica, crystalline",
            "confidence": 0.7061403508771931,
            "uuid": "f920e8a2-46df-41b7-af8d-0368a777251e",
            "category": "agents",
            "url": "https://haz-map.com/Agents/427"
          }
        ]
      },
      "sourcesuses": {
        "original_name": "Sources/Uses",
        "value": "Used as a parasiticide, a fumigant, a cyaniding reagent to extract gold, and an intermediate in the synthesis of organic chemicals; also used in cellulose technology and textile treatment; [HSDB]",
        "links": [],
        "cross_references": [
          {
            "type": "name_match",
            "text": "cellulose",
            "confidence": 1.0,
            "uuid": "b9b1b190-806c-4622-8201-8f09b0a87eca",
            "name": "Cellulose",
            "url": "https://haz-map.com/Agents/347",
            "category": "agents"
          },
          {
            "type": "name_match",
            "text": "mica",
            "confidence": 1.0,
            "uuid": "433f26f1-c399-4596-b179-ce3843cfd465",
            "name": "Mica",
            "url": "https://haz-map.com/Agents/621",
            "category": "agents"
          },
          {
            "type": "name_match",
            "text": "gold",
            "confidence": 1.0,
            "uuid": "8f37bad1-17df-446f-b0ed-11d2ef239483",
            "name": "Gold",
            "url": "https://haz-map.com/Agents/1186",
            "category": "agents"
          }
        ]
      },
      "comments": {
        "original_name": "Comments",
        "value": "Highly toxic; [Quick CPC] 230 ppm is a lethal concentration for mice and cats; the same animals are paralyzed by a 3 minute exposure to 70 ppm; Can cause cyanide poisoning; Inhalation in range of 10 ppm can cause pulmonary edema; [HSDB] A lachrymator; [CHEMINFO] Slowly reacts with water/moisture producing hydrogen bromide and hydrogen cyanide; A severe skin, eye, and respiratory tract irritant; Inhalation may cause pulmonary edema; Can be absorbed through skin; May have effects on cellular respiration, causing convulsions, unconsciousness, and respiratory failure; [ICSC] Extremely toxic; The probable oral lethal-dose in humans is less than 5 mg/kg (less than 7 drops for a 70 kg person); [CAMEO] Short-term exposure causes second- and third-degree skin burns and severe eye injury; Vapors cause severe eye and throat irritation (and possibly eye and lung injury) and are intolerable even at low concentrations; [CHRIS] TLV Basis is irritation (eye and upper respiratory tract) and pulmonary edema; In humans, 92 ppm is fatal after 10 minutes; 20 ppm is intolerable after 1 minute; 8 ppm is intolerable after 10 minutes; and 1.4 ppm was the lowest irritant concentration for a 10 minute exposure; [ACGIH]",
        "links": [],
        "cross_references": [
          {
            "type": "name_match",
            "text": "convulsion",
            "confidence": 1.0,
            "uuid": "af2c36f8-707a-48e3-a62b-1aa07adc9b72",
            "name": "convulsion",
            "url": "https://haz-map.com/Findings/14",
            "category": "findings"
          },
          {
            "type": "name_match",
            "text": "pulmonary edema",
            "confidence": 1.0,
            "uuid": "ee39114e-c922-40fd-9588-a532de404962",
            "name": "pulmonary edema",
            "url": "https://haz-map.com/Findings/186",
            "category": "findings"
          },
          {
            "type": "name_match",
            "text": "burn",
            "confidence": 1.0,
            "uuid": "63665de5-6376-4918-8dbf-4c10c4d63837",
            "name": "burn",
            "url": "https://haz-map.com/Findings/204",
            "category": "findings"
          },
          {
            "type": "name_match",
            "text": "hydrogen bromide",
            "confidence": 1.0,
            "uuid": "a7d11015-8697-4476-912b-80e3da6e7bcb",
            "name": "Hydrogen bromide",
            "url": "https://haz-map.com/Agents/512",
            "category": "agents"
          },
          {
            "type": "name_match",
            "text": "hydrogen cyanide",
            "confidence": 1.0,
            "uuid": "59aa5483-62b9-4825-8e6c-8cd9621058bf",
            "name": "Hydrogen cyanide",
            "url": "https://haz-map.com/Agents/514",
            "category": "agents"
          },
          {
            "type": "name_match",
            "text": "hydrogen",
            "confidence": 1.0,
            "uuid": "e2d9645f-5559-4d88-b820-fc4710c154f2",
            "name": "Hydrogen",
            "url": "https://haz-map.com/Agents/1070",
            "category": "agents"
          },
          {
            "type": "name_match",
            "text": "cyanide",
            "confidence": 1.0,
            "uuid": "0b4d38ba-cc5c-4386-8079-9e7ff8fb2d3a",
            "name": "Cyanide",
            "url": "https://haz-map.com/Agents/13350",
            "category": "agents"
          },
          {
            "type": "name_match",
            "text": "water",
            "confidence": 1.0,
            "uuid": "6f2a7557-dfd2-49bc-9b4b-a93cd8e225d4",
            "name": "Water",
            "url": "https://haz-map.com/Agents/18668",
            "category": "agents"
          }
        ]
      },
      "biomedical_references": {
        "original_name": "Biomedical References",
        "value": "Search PubMed",
        "links": [
          {
            "text": "Search PubMed",
            "url": "https://www.ncbi.nlm.nih.gov/pubmed?term=Cyanogen+bromide%20AND%20human%5Bmh%5D%20AND%20%28Occupational%20Diseases%20%5Bmh%5D%20OR%20Occupational%20Exposure%20%5Bmh%5D%29%20%20AND%20%28tox%5Bsb%5D%29&cmd=search"
          }
        ],
        "cross_references": []
      }
    },
    "exposure_assessment": {
      "skin_designation_acgih": {
        "original_name": "Skin Designation (ACGIH)",
        "value": "Insufficient data",
        "links": [],
        "cross_references": []
      },
      "ceiling_acgih": {
        "original_name": "Ceiling (ACGIH)",
        "value": "1.3 mg/m3",
        "links": [],
        "cross_references": []
      },
      "pel_osha": {
        "original_name": "PEL (OSHA)",
        "value": "5 mg/m3, as CN",
        "links": [],
        "cross_references": []
      },
      "mak": {
        "original_name": "MAK",
        "value": "2 mg/m3, as CN, inhalable fraction, as CN",
        "links": [],
        "cross_references": []
      },
      "vapor_pressure": {
        "original_name": "Vapor Pressure",
        "value": "122 mm Hg",
        "links": [],
        "cross_references": []
      },
      "lethal_concentration": {
        "original_name": "Lethal Concentration",
        "value": "LCLo (mouse) = 500 mg/m3/10min",
        "links": [],
        "cross_references": []
      },
      "explanatory_notes": {
        "original_name": "Explanatory Notes",
        "value": "VP from HSDB;",
        "links": [],
        "cross_references": []
      },
      "nfpa": {
        "original_name": "NFPA",
        "value": "will not burn",
        "links": [],
        "cross_references": [
          {
            "type": "name_match",
            "text": "burn",
            "confidence": 1.0,
            "uuid": "63665de5-6376-4918-8dbf-4c10c4d63837",
            "name": "burn",
            "url": "https://haz-map.com/Findings/204",
            "category": "findings"
          }
        ]
      }
    },
    "adverse_effects": {
      "lachrymator": {
        "original_name": "Lachrymator",
        "value": "Yes",
        "links": [],
        "cross_references": []
      },
      "toxic_pneumonitis": {
        "original_name": "Toxic Pneumonitis",
        "value": "Yes",
        "links": [],
        "cross_references": []
      },
      "dermatotoxin": {
        "original_name": "Dermatotoxin",
        "value": "Skin burns",
        "links": [],
        "cross_references": [
          {
            "type": "name_match",
            "text": "burn",
            "confidence": 1.0,
            "uuid": "63665de5-6376-4918-8dbf-4c10c4d63837",
            "name": "burn",
            "url": "https://haz-map.com/Findings/204",
            "category": "findings"
          }
        ]
      },
      "other_poison": {
        "original_name": "Other Poison",
        "value": "Chemical Asphyxiant",
        "links": [],
        "cross_references": [
          {
            "type": "name_match",
            "text": "mica",
            "confidence": 1.0,
            "uuid": "433f26f1-c399-4596-b179-ce3843cfd465",
            "name": "Mica",
            "url": "https://haz-map.com/Agents/621",
            "category": "agents"
          }
        ]
      }
    },
    "diseases_processes_and_activities_linked_to_this_agent": {
      "diseases": {
        "original_name": "Diseases",
        "value": "Occupational diseases associated with exposure to this agent: Asphyxiation, chemical Fumigants, acute toxic effect",
        "links": [
          {
            "text": "Asphyxiation, chemical",
            "url": "https://haz-map.com/Diseases/351"
          },
          {
            "text": "Fumigants, acute toxic effect",
            "url": "https://haz-map.com/Diseases/389"
          }
        ],
        "cross_references": [
          {
            "type": "url_match",
            "text": "Asphyxiation, chemical",
            "url": "https://haz-map.com/Diseases/351",
            "confidence": 1.0,
            "uuid": "78d8c6de-b137-4149-8098-0b7e8b092753",
            "name": "Asphyxiation, chemical",
            "category": "diseases"
          },
          {
            "type": "url_match",
            "text": "Fumigants, acute toxic effect",
            "url": "https://haz-map.com/Diseases/389",
            "confidence": 1.0,
            "uuid": "0ea745ce-b8d8-4881-aa18-f652dcfed7ea",
            "name": "Fumigants, acute toxic effect",
            "category": "diseases"
          },
          {
            "type": "name_match",
            "text": "mica",
            "confidence": 1.0,
            "uuid": "433f26f1-c399-4596-b179-ce3843cfd465",
            "name": "Mica",
            "url": "https://haz-map.com/Agents/621",
            "category": "agents"
          },
          {
            "type": "name_match",
            "text": "fumigants",
            "confidence": 1.0,
            "uuid": "01ad5510-2dbd-4a10-8a54-0defa348e7db",
            "name": "FUMIGANTS",
            "url": "https://haz-map.com/Agents/707",
            "category": "agents"
          }
        ]
      },
      "processes": {
        "original_name": "Processes",
        "value": "Industrial Processes with risk of exposure: Farming (Pesticides) Metal Extraction and Refining Textiles (Fiber & Fabric Manufacturing)",
        "links": [
          {
            "text": "Farming (Pesticides)",
            "url": "https://haz-map.com/Processes/218"
          },
          {
            "text": "Metal Extraction and Refining",
            "url": "https://haz-map.com/Processes/261"
          },
          {
            "text": "Textiles (Fiber & Fabric Manufacturing)",
            "url": "https://haz-map.com/Processes/135"
          }
        ],
        "cross_references": [
          {
            "type": "url_match",
            "text": "Farming (Pesticides)",
            "url": "https://haz-map.com/Processes/218",
            "confidence": 1.0,
            "uuid": "cf1e5815-c9bb-4917-82a5-391848170b7e",
            "name": "Farming (Pesticides)",
            "category": "processes"
          },
          {
            "type": "url_match",
            "text": "Textiles (Fiber & Fabric Manufacturing)",
            "url": "https://haz-map.com/Processes/135",
            "confidence": 1.0,
            "uuid": "43ebdcdb-bb09-4402-87b6-ae8cf169dddd",
            "name": "Textiles (Fiber & Fabric Manufacturing)",
            "category": "processes"
          }
        ]
      }
    }
  },
  "cross_references": [
    {
      "type": "url_match",
      "text": "Asphyxiation, chemical",
      "url": "https://haz-map.com/Diseases/351",
      "confidence": 1.0,
      "uuid": "78d8c6de-b137-4149-8098-0b7e8b092753",
      "name": "Asphyxiation, chemical",
      "category": "diseases"
    },
    {
      "type": "url_match",
      "text": "Fumigants, acute toxic effect",
      "url": "https://haz-map.com/Diseases/389",
      "confidence": 1.0,
      "uuid": "0ea745ce-b8d8-4881-aa18-f652dcfed7ea",
      "name": "Fumigants, acute toxic effect",
      "category": "diseases"
    },
    {
      "type": "url_match",
      "text": "Farming (Pesticides)",
      "url": "https://haz-map.com/Processes/218",
      "confidence": 1.0,
      "uuid": "cf1e5815-c9bb-4917-82a5-391848170b7e",
      "name": "Farming (Pesticides)",
      "category": "processes"
    },
    {
      "type": "url_match",
      "text": "Textiles (Fiber & Fabric Manufacturing)",
      "url": "https://haz-map.com/Processes/135",
      "confidence": 1.0,
      "uuid": "43ebdcdb-bb09-4402-87b6-ae8cf169dddd",
      "name": "Textiles (Fiber & Fabric Manufacturing)",
      "category": "processes"
    },
    {
      "type": "name_match",
      "text": "convulsion",
      "confidence": 1.0,
      "uuid": "af2c36f8-707a-48e3-a62b-1aa07adc9b72",
      "name": "convulsion",
      "url": "https://haz-map.com/Findings/14",
      "category": "findings"
    },
    {
      "type": "name_match",
      "text": "pulmonary edema",
      "confidence": 1.0,
      "uuid": "ee39114e-c922-40fd-9588-a532de404962",
      "name": "pulmonary edema",
      "url": "https://haz-map.com/Findings/186",
      "category": "findings"
    },
    {
      "type": "name_match",
      "text": "burn",
      "confidence": 1.0,
      "uuid": "63665de5-6376-4918-8dbf-4c10c4d63837",
      "name": "burn",
      "url": "https://haz-map.com/Findings/204",
      "category": "findings"
    },
    {
      "type": "name_match",
      "text": "bromine",
      "confidence": 1.0,
      "uuid": "9b659123-45fb-4e5c-b681-d3c1cec47df3",
      "name": "Bromine",
      "url": "https://haz-map.com/Agents/315",
      "category": "agents"
    },
    {
      "type": "name_match",
      "text": "cellulose",
      "confidence": 1.0,
      "uuid": "b9b1b190-806c-4622-8201-8f09b0a87eca",
      "name": "Cellulose",
      "url": "https://haz-map.com/Agents/347",
      "category": "agents"
    },
    {
      "type": "name_match",
      "text": "cyanogen",
      "confidence": 1.0,
      "uuid": "e92889b7-653d-43ec-8225-d7a4ee11a6b3",
      "name": "Cyanogen",
      "url": "https://haz-map.com/Agents/382",
      "category": "agents"
    },
    {
      "type": "name_match",
      "text": "hydrogen bromide",
      "confidence": 1.0,
      "uuid": "a7d11015-8697-4476-912b-80e3da6e7bcb",
      "name": "Hydrogen bromide",
      "url": "https://haz-map.com/Agents/512",
      "category": "agents"
    },
    {
      "type": "name_match",
      "text": "hydrogen cyanide",
      "confidence": 1.0,
      "uuid": "59aa5483-62b9-4825-8e6c-8cd9621058bf",
      "name": "Hydrogen cyanide",
      "url": "https://haz-map.com/Agents/514",
      "category": "agents"
    },
    {
      "type": "name_match",
      "text": "mica",
      "confidence": 1.0,
      "uuid": "433f26f1-c399-4596-b179-ce3843cfd465",
      "name": "Mica",
      "url": "https://haz-map.com/Agents/621",
      "category": "agents"
    },
    {
      "type": "name_match",
      "text": "fumigants",
      "confidence": 1.0,
      "uuid": "01ad5510-2dbd-4a10-8a54-0defa348e7db",
      "name": "FUMIGANTS",
      "url": "https://haz-map.com/Agents/707",
      "category": "agents"
    },
    {
      "type": "name_match",
      "text": "cyanides",
      "confidence": 1.0,
      "uuid": "e0820766-8caf-4340-b774-eaf713436c8c",
      "name": "CYANIDES",
      "url": "https://haz-map.com/Agents/714",
      "category": "agents"
    },
    {
      "type": "name_match",
      "text": "hydrogen",
      "confidence": 1.0,
      "uuid": "e2d9645f-5559-4d88-b820-fc4710c154f2",
      "name": "Hydrogen",
      "url": "https://haz-map.com/Agents/1070",
      "category": "agents"
    },
    {
      "type": "name_match",
      "text": "gold",
      "confidence": 1.0,
      "uuid": "8f37bad1-17df-446f-b0ed-11d2ef239483",
      "name": "Gold",
      "url": "https://haz-map.com/Agents/1186",
      "category": "agents"
    },
    {
      "type": "name_match",
      "text": "cyanogen bromide",
      "confidence": 1.0,
      "uuid": "e583e38b-4c5d-49cc-ad9f-82d952babd42",
      "name": "Cyanogen bromide",
      "url": "https://haz-map.com/Agents/1397",
      "category": "agents"
    },
    {
      "type": "name_match",
      "text": "cyanide",
      "confidence": 1.0,
      "uuid": "0b4d38ba-cc5c-4386-8079-9e7ff8fb2d3a",
      "name": "Cyanide",
      "url": "https://haz-map.com/Agents/13350",
      "category": "agents"
    },
    {
      "type": "name_match",
      "text": "bes",
      "confidence": 1.0,
      "uuid": "3074c0ff-c637-46e9-9a00-5b14f02c2d53",
      "name": "BES",
      "url": "https://haz-map.com/Agents/15755",
      "category": "agents"
    },
    {
      "type": "name_match",
      "text": "water",
      "confidence": 1.0,
      "uuid": "6f2a7557-dfd2-49bc-9b4b-a93cd8e225d4",
      "name": "Water",
      "url": "https://haz-map.com/Agents/18668",
      "category": "agents"
    },
    {
      "type": "fuzzy_match",
      "text": "crystalline",
      "matched_name": "Silica, crystalline",
      "confidence": 0.7061403508771931,
      "uuid": "f920e8a2-46df-41b7-af8d-0368a777251e",
      "category": "agents",
      "url": "https://haz-map.com/Agents/427"
    }
  ],
  "all_links": [
    {
      "text": "Search PubMed",
      "url": "https://www.ncbi.nlm.nih.gov/pubmed?term=Cyanogen+bromide%20AND%20human%5Bmh%5D%20AND%20%28Occupational%20Diseases%20%5Bmh%5D%20OR%20Occupational%20Exposure%20%5Bmh%5D%29%20%20AND%20%28tox%5Bsb%5D%29&cmd=search"
    },
    {
      "text": "Asphyxiation, chemical",
      "url": "https://haz-map.com/Diseases/351"
    },
    {
      "text": "Fumigants, acute toxic effect",
      "url": "https://haz-map.com/Diseases/389"
    },
    {
      "text": "Farming (Pesticides)",
      "url": "https://haz-map.com/Processes/218"
    },
    {
      "text": "Metal Extraction and Refining",
      "url": "https://haz-map.com/Processes/261"
    },
    {
      "text": "Textiles (Fiber & Fabric Manufacturing)",
      "url": "https://haz-map.com/Processes/135"
    }
  ]
}