{
  "metadata": {
    "scraped_from": "https://haz-map.com/Agents/10561",
    "entity_name": "1,3,5,7-Tetramethyl-1,1,3,5,7,7-hexaphenyltetrasiloxane",
    "category": "agents",
    "uuid": "e5924e98-9480-4aa8-a6b9-b22b02d9ec45",
    "scraped_at": "2025-07-23T20:49:19.218355"
  },
  "parsed_at": "2025-07-24T00:55:58.361621",
  "title": "1,3,5,7-Tetramethyl-1,1,3,5,7,7-hexaphenyltetrasiloxane",
  "sections": {
    "general": {
      "agent_name": {
        "original_name": "Agent Name",
        "value": "1,3,5,7-Tetramethyl-1,1,3,5,7,7-hexaphenyltetrasiloxane",
        "links": [],
        "cross_references": [
          {
            "type": "name_match",
            "text": "1,3,5,7-tetramethyl-1,1,3,5,7,7-hexaphenyltetrasiloxane",
            "confidence": 1.0,
            "uuid": "e5924e98-9480-4aa8-a6b9-b22b02d9ec45",
            "name": "1,3,5,7-Tetramethyl-1,1,3,5,7,7-hexaphenyltetrasiloxane",
            "url": "https://haz-map.com/Agents/10561",
            "category": "agents"
          }
        ]
      },
      "cas_number": {
        "original_name": "CAS Number",
        "value": "38421-40-8",
        "links": [],
        "cross_references": []
      },
      "formula": {
        "original_name": "Formula",
        "value": "C40-H42-O3-Si4",
        "links": [],
        "cross_references": []
      },
      "major_category": {
        "original_name": "Major Category",
        "value": "Metals",
        "links": [],
        "cross_references": []
      },
      "synonyms": {
        "original_name": "Synonyms",
        "value": "Tetrasiloxane, 1,3,5,7-tetramethyl-1,1,3,5,7,7-hexaphenyl-; [ChemIDplus]",
        "links": [],
        "cross_references": []
      },
      "category": {
        "original_name": "Category",
        "value": "Metalloid Compounds (Silicon)",
        "links": [],
        "cross_references": [
          {
            "type": "name_match",
            "text": "silicon",
            "confidence": 1.0,
            "uuid": "443f4405-7a1f-47db-bf43-809557f77483",
            "name": "Silicon",
            "url": "https://haz-map.com/Agents/623",
            "category": "agents"
          }
        ]
      },
      "comments": {
        "original_name": "Comments",
        "value": "See \"Octamethylcyclotetrasiloxane.\"",
        "links": [],
        "cross_references": [
          {
            "type": "name_match",
            "text": "octamethylcyclotetrasiloxane",
            "confidence": 1.0,
            "uuid": "c1e84189-08ce-4ec2-8a76-22403a1b29df",
            "name": "Octamethylcyclotetrasiloxane",
            "url": "https://haz-map.com/Agents/6431",
            "category": "agents"
          }
        ]
      },
      "biomedical_references": {
        "original_name": "Biomedical References",
        "value": "Search PubMed",
        "links": [
          {
            "text": "Search PubMed",
            "url": "https://www.ncbi.nlm.nih.gov/pubmed?term=1%2c3%2c5%2c7-Tetramethyl-1%2c1%2c3%2c5%2c7%2c7-hexaphenyltetrasiloxane%20AND%20human%5Bmh%5D%20AND%20%28Occupational%20Diseases%20%5Bmh%5D%20OR%20Occupational%20Exposure%20%5Bmh%5D%29%20%20AND%20%28tox%5Bsb%5D%29&cmd=search"
          }
        ],
        "cross_references": []
      }
    },
    "exposure_assessment": {
      "vapor_pressure": {
        "original_name": "Vapor Pressure",
        "value": "1.68E-15 mm Hg",
        "links": [],
        "cross_references": []
      }
    },
    "diseases_processes_and_activities_linked_to_this_agent": {
      "other_information": {
        "original_name": "Other Information",
        "value": "No other related information on this agent was found.",
        "links": [],
        "cross_references": []
      }
    }
  },
  "cross_references": [
    {
      "type": "name_match",
      "text": "silicon",
      "confidence": 1.0,
      "uuid": "443f4405-7a1f-47db-bf43-809557f77483",
      "name": "Silicon",
      "url": "https://haz-map.com/Agents/623",
      "category": "agents"
    },
    {
      "type": "name_match",
      "text": "octamethylcyclotetrasiloxane",
      "confidence": 1.0,
      "uuid": "c1e84189-08ce-4ec2-8a76-22403a1b29df",
      "name": "Octamethylcyclotetrasiloxane",
      "url": "https://haz-map.com/Agents/6431",
      "category": "agents"
    },
    {
      "type": "name_match",
      "text": "1,3,5,7-tetramethyl-1,1,3,5,7,7-hexaphenyltetrasiloxane",
      "confidence": 1.0,
      "uuid": "e5924e98-9480-4aa8-a6b9-b22b02d9ec45",
      "name": "1,3,5,7-Tetramethyl-1,1,3,5,7,7-hexaphenyltetrasiloxane",
      "url": "https://haz-map.com/Agents/10561",
      "category": "agents"
    }
  ],
  "all_links": [
    {
      "text": "Search PubMed",
      "url": "https://www.ncbi.nlm.nih.gov/pubmed?term=1%2c3%2c5%2c7-Tetramethyl-1%2c1%2c3%2c5%2c7%2c7-hexaphenyltetrasiloxane%20AND%20human%5Bmh%5D%20AND%20%28Occupational%20Diseases%20%5Bmh%5D%20OR%20Occupational%20Exposure%20%5Bmh%5D%29%20%20AND%20%28tox%5Bsb%5D%29&cmd=search"
    }
  ]
}