{
  "metadata": {
    "scraped_from": "https://haz-map.com/Agents/3430",
    "entity_name": "Acetylethanolamine",
    "category": "agents",
    "uuid": "e5ad3ff0-6d08-4899-8015-2ed22a4cd0b4",
    "scraped_at": "2025-07-23T19:29:00.335440"
  },
  "parsed_at": "2025-07-24T00:50:41.727647",
  "title": "Acetylethanolamine",
  "sections": {
    "general": {
      "agent_name": {
        "original_name": "Agent Name",
        "value": "Acetylethanolamine",
        "links": [],
        "cross_references": [
          {
            "type": "name_match",
            "text": "ethanolamine",
            "confidence": 1.0,
            "uuid": "16354994-9346-496d-9e19-23d8a4473ab4",
            "name": "Ethanolamine",
            "url": "https://haz-map.com/Agents/288",
            "category": "agents"
          },
          {
            "type": "name_match",
            "text": "acetylethanolamine",
            "confidence": 1.0,
            "uuid": "e5ad3ff0-6d08-4899-8015-2ed22a4cd0b4",
            "name": "Acetylethanolamine",
            "url": "https://haz-map.com/Agents/3430",
            "category": "agents"
          }
        ]
      },
      "cas_number": {
        "original_name": "CAS Number",
        "value": "142-26-7",
        "links": [],
        "cross_references": []
      },
      "formula": {
        "original_name": "Formula",
        "value": "C4-H9-N-O2",
        "links": [],
        "cross_references": []
      },
      "major_category": {
        "original_name": "Major Category",
        "value": "Nitrogen Compounds",
        "links": [],
        "cross_references": [
          {
            "type": "name_match",
            "text": "nitrogen",
            "confidence": 1.0,
            "uuid": "db5e90a9-06d2-45b9-8b81-f345a89b0bc0",
            "name": "Nitrogen",
            "url": "https://haz-map.com/Agents/1072",
            "category": "agents"
          }
        ]
      },
      "synonyms": {
        "original_name": "Synonyms",
        "value": "Acetamide MEA; 2-Acetamidoethanol; 2-Acetylaminoethanol; Acetic acid amide, N-(2-hydroxyethyl)-; Acetylcolamine; Hydroxyethyl acetamide; N-(2-Hydroxyethyl)acetamide; N-Acetyl ethanolamine; N-Acetyl-2-aminoethanol; N-Acetylethanolamine; N-Ethanolacetamide; N-beta-Hydroxyethylacetamide; beta-Hydroxyethylacetamide; [ChemIDplus]",
        "links": [],
        "cross_references": [
          {
            "type": "name_match",
            "text": "acetic acid",
            "confidence": 1.0,
            "uuid": "0905c6e4-df84-4895-a92d-658819239bbd",
            "name": "Acetic acid",
            "url": "https://haz-map.com/Agents/207",
            "category": "agents"
          },
          {
            "type": "name_match",
            "text": "ethanolamine",
            "confidence": 1.0,
            "uuid": "16354994-9346-496d-9e19-23d8a4473ab4",
            "name": "Ethanolamine",
            "url": "https://haz-map.com/Agents/288",
            "category": "agents"
          },
          {
            "type": "name_match",
            "text": "acetamide",
            "confidence": 1.0,
            "uuid": "dd8ffc77-2f5f-4c87-8995-3206d6c9affc",
            "name": "Acetamide",
            "url": "https://haz-map.com/Agents/3385",
            "category": "agents"
          },
          {
            "type": "name_match",
            "text": "acetylethanolamine",
            "confidence": 1.0,
            "uuid": "e5ad3ff0-6d08-4899-8015-2ed22a4cd0b4",
            "name": "Acetylethanolamine",
            "url": "https://haz-map.com/Agents/3430",
            "category": "agents"
          }
        ]
      },
      "category": {
        "original_name": "Category",
        "value": "Ethanolamines",
        "links": [],
        "cross_references": [
          {
            "type": "name_match",
            "text": "ethanolamine",
            "confidence": 1.0,
            "uuid": "16354994-9346-496d-9e19-23d8a4473ab4",
            "name": "Ethanolamine",
            "url": "https://haz-map.com/Agents/288",
            "category": "agents"
          }
        ]
      },
      "description": {
        "original_name": "Description",
        "value": "Brown liquid; [Hawley] Colorless or yellow liquid; [MSDSonline]",
        "links": [],
        "cross_references": []
      },
      "sourcesuses": {
        "original_name": "Sources/Uses",
        "value": "Used as a plasticizer, humectant (paper products, glues, cork, and inks), and textile conditioner; [Hawley]",
        "links": [],
        "cross_references": [
          {
            "type": "name_match",
            "text": "cork",
            "confidence": 1.0,
            "uuid": "f1cf571e-efad-432e-81d0-4b6aaac2fced",
            "name": "Cork",
            "url": "https://haz-map.com/Agents/20483",
            "category": "agents"
          }
        ]
      },
      "comments": {
        "original_name": "Comments",
        "value": "Emergency treatment: \"Ethanolamine\"; Ethanolamine can cause CNS depression, skin burns, and acute injury to the kidneys, liver, and lungs; [HSDB] An irritant; May cause serious eye injury; [MSDSonline]",
        "links": [],
        "cross_references": [
          {
            "type": "name_match",
            "text": "burn",
            "confidence": 1.0,
            "uuid": "63665de5-6376-4918-8dbf-4c10c4d63837",
            "name": "burn",
            "url": "https://haz-map.com/Findings/204",
            "category": "findings"
          },
          {
            "type": "name_match",
            "text": "ethanolamine",
            "confidence": 1.0,
            "uuid": "16354994-9346-496d-9e19-23d8a4473ab4",
            "name": "Ethanolamine",
            "url": "https://haz-map.com/Agents/288",
            "category": "agents"
          }
        ]
      },
      "biomedical_references": {
        "original_name": "Biomedical References",
        "value": "Search PubMed",
        "links": [
          {
            "text": "Search PubMed",
            "url": "https://www.ncbi.nlm.nih.gov/pubmed?term=Acetylethanolamine%20AND%20human%5Bmh%5D%20AND%20%28Occupational%20Diseases%20%5Bmh%5D%20OR%20Occupational%20Exposure%20%5Bmh%5D%29%20%20AND%20%28tox%5Bsb%5D%29&cmd=search"
          }
        ],
        "cross_references": []
      }
    },
    "exposure_assessment": {
      "vapor_pressure": {
        "original_name": "Vapor Pressure",
        "value": "0.001 mm Hg",
        "links": [],
        "cross_references": []
      },
      "explanatory_notes": {
        "original_name": "Explanatory Notes",
        "value": "Flash point = 176.6 deg C; [Hawley]",
        "links": [],
        "cross_references": [
          {
            "type": "name_match",
            "text": "ash",
            "confidence": 1.0,
            "uuid": "68b360f1-5ad0-4337-bea0-d7adca2961b5",
            "name": "Ash",
            "url": "https://haz-map.com/Agents/965",
            "category": "agents"
          }
        ]
      },
      "nfpa": {
        "original_name": "NFPA",
        "value": "must be preheated",
        "links": [],
        "cross_references": []
      }
    },
    "adverse_effects": {
      "neurotoxin": {
        "original_name": "Neurotoxin",
        "value": "Other CNS neurotoxin",
        "links": [],
        "cross_references": []
      },
      "hepatotoxin": {
        "original_name": "Hepatotoxin",
        "value": "Hepatoxic (a) from occupational exposure (secondary effect) or (b) in animal studies or in humans after ingestion",
        "links": [],
        "cross_references": []
      },
      "dermatotoxin": {
        "original_name": "Dermatotoxin",
        "value": "Skin burns",
        "links": [],
        "cross_references": [
          {
            "type": "name_match",
            "text": "burn",
            "confidence": 1.0,
            "uuid": "63665de5-6376-4918-8dbf-4c10c4d63837",
            "name": "burn",
            "url": "https://haz-map.com/Findings/204",
            "category": "findings"
          }
        ]
      }
    },
    "diseases_processes_and_activities_linked_to_this_agent": {
      "processes": {
        "original_name": "Processes",
        "value": "Industrial Processes with risk of exposure: Pulp and Paper Processing Textiles (Printing, Dyeing, or Finishing) Working with Glues and Adhesives",
        "links": [
          {
            "text": "Pulp and Paper Processing",
            "url": "https://haz-map.com/Processes/132"
          },
          {
            "text": "Textiles (Printing, Dyeing, or Finishing)",
            "url": "https://haz-map.com/Processes/235"
          },
          {
            "text": "Working with Glues and Adhesives",
            "url": "https://haz-map.com/Processes/155"
          }
        ],
        "cross_references": [
          {
            "type": "url_match",
            "text": "Pulp and Paper Processing",
            "url": "https://haz-map.com/Processes/132",
            "confidence": 1.0,
            "uuid": "30075079-d057-47e2-a7d8-e89bfc59d8df",
            "name": "Pulp and Paper Processing",
            "category": "processes"
          },
          {
            "type": "url_match",
            "text": "Working with Glues and Adhesives",
            "url": "https://haz-map.com/Processes/155",
            "confidence": 1.0,
            "uuid": "acb9084f-52e8-4687-bd6a-bced94bda834",
            "name": "Working with Glues and Adhesives",
            "category": "processes"
          }
        ]
      }
    }
  },
  "cross_references": [
    {
      "type": "url_match",
      "text": "Pulp and Paper Processing",
      "url": "https://haz-map.com/Processes/132",
      "confidence": 1.0,
      "uuid": "30075079-d057-47e2-a7d8-e89bfc59d8df",
      "name": "Pulp and Paper Processing",
      "category": "processes"
    },
    {
      "type": "url_match",
      "text": "Working with Glues and Adhesives",
      "url": "https://haz-map.com/Processes/155",
      "confidence": 1.0,
      "uuid": "acb9084f-52e8-4687-bd6a-bced94bda834",
      "name": "Working with Glues and Adhesives",
      "category": "processes"
    },
    {
      "type": "name_match",
      "text": "burn",
      "confidence": 1.0,
      "uuid": "63665de5-6376-4918-8dbf-4c10c4d63837",
      "name": "burn",
      "url": "https://haz-map.com/Findings/204",
      "category": "findings"
    },
    {
      "type": "name_match",
      "text": "acetic acid",
      "confidence": 1.0,
      "uuid": "0905c6e4-df84-4895-a92d-658819239bbd",
      "name": "Acetic acid",
      "url": "https://haz-map.com/Agents/207",
      "category": "agents"
    },
    {
      "type": "name_match",
      "text": "ethanolamine",
      "confidence": 1.0,
      "uuid": "16354994-9346-496d-9e19-23d8a4473ab4",
      "name": "Ethanolamine",
      "url": "https://haz-map.com/Agents/288",
      "category": "agents"
    },
    {
      "type": "name_match",
      "text": "ash",
      "confidence": 1.0,
      "uuid": "68b360f1-5ad0-4337-bea0-d7adca2961b5",
      "name": "Ash",
      "url": "https://haz-map.com/Agents/965",
      "category": "agents"
    },
    {
      "type": "name_match",
      "text": "nitrogen",
      "confidence": 1.0,
      "uuid": "db5e90a9-06d2-45b9-8b81-f345a89b0bc0",
      "name": "Nitrogen",
      "url": "https://haz-map.com/Agents/1072",
      "category": "agents"
    },
    {
      "type": "name_match",
      "text": "acetamide",
      "confidence": 1.0,
      "uuid": "dd8ffc77-2f5f-4c87-8995-3206d6c9affc",
      "name": "Acetamide",
      "url": "https://haz-map.com/Agents/3385",
      "category": "agents"
    },
    {
      "type": "name_match",
      "text": "acetylethanolamine",
      "confidence": 1.0,
      "uuid": "e5ad3ff0-6d08-4899-8015-2ed22a4cd0b4",
      "name": "Acetylethanolamine",
      "url": "https://haz-map.com/Agents/3430",
      "category": "agents"
    },
    {
      "type": "name_match",
      "text": "cork",
      "confidence": 1.0,
      "uuid": "f1cf571e-efad-432e-81d0-4b6aaac2fced",
      "name": "Cork",
      "url": "https://haz-map.com/Agents/20483",
      "category": "agents"
    }
  ],
  "all_links": [
    {
      "text": "Search PubMed",
      "url": "https://www.ncbi.nlm.nih.gov/pubmed?term=Acetylethanolamine%20AND%20human%5Bmh%5D%20AND%20%28Occupational%20Diseases%20%5Bmh%5D%20OR%20Occupational%20Exposure%20%5Bmh%5D%29%20%20AND%20%28tox%5Bsb%5D%29&cmd=search"
    },
    {
      "text": "Pulp and Paper Processing",
      "url": "https://haz-map.com/Processes/132"
    },
    {
      "text": "Textiles (Printing, Dyeing, or Finishing)",
      "url": "https://haz-map.com/Processes/235"
    },
    {
      "text": "Working with Glues and Adhesives",
      "url": "https://haz-map.com/Processes/155"
    }
  ]
}