{
  "metadata": {
    "scraped_from": "https://haz-map.com/Agents/6130",
    "entity_name": "Methyl oleate",
    "category": "agents",
    "uuid": "e5b4f7d5-4246-4b3f-836c-569e0e8b0f89",
    "scraped_at": "2025-07-23T19:58:51.582671"
  },
  "parsed_at": "2025-07-24T01:12:47.132895",
  "title": "Methyl oleate",
  "sections": {
    "general": {
      "agent_name": {
        "original_name": "Agent Name",
        "value": "Methyl oleate",
        "links": [],
        "cross_references": [
          {
            "type": "name_match",
            "text": "methyl oleate",
            "confidence": 1.0,
            "uuid": "e5b4f7d5-4246-4b3f-836c-569e0e8b0f89",
            "name": "Methyl oleate",
            "url": "https://haz-map.com/Agents/6130",
            "category": "agents"
          },
          {
            "type": "name_match",
            "text": "ethyl oleate",
            "confidence": 1.0,
            "uuid": "ff3e8019-02bd-446c-a7cc-fa9127e3c045",
            "name": "Ethyl oleate",
            "url": "https://haz-map.com/Agents/20786",
            "category": "agents"
          }
        ]
      },
      "cas_number": {
        "original_name": "CAS Number",
        "value": "112-62-9",
        "links": [],
        "cross_references": []
      },
      "formula": {
        "original_name": "Formula",
        "value": "C19-H36-O2",
        "links": [],
        "cross_references": []
      },
      "major_category": {
        "original_name": "Major Category",
        "value": "Other Uses",
        "links": [],
        "cross_references": []
      },
      "synonyms": {
        "original_name": "Synonyms",
        "value": "9-Octadecenoic acid, methyl ester; Methyl 9-octadecenoate; (Z)-9-Octadecenoic acid, methyl ester; ADJ 100; Edenor Me 90/95V; Edenor MeTiO5; Emerest 2801; Emery 2301; Emery oleic acid ester 2301; Emery, oleic acid ester; Esterol 112; Exceparl M-OL; Methyl (Z)-9-octadecenoate; Methyl cis-9-octadecenoate; Nissan Unister M 182A; Oleic acid, methyl ester; Phytorob 926-67; Priolube 1403; Unister M 182A; Witconol 2301; cis-9-Octyldecenoic acid, methyl ester; [ChemIDplus]",
        "links": [],
        "cross_references": [
          {
            "type": "name_match",
            "text": "emery",
            "confidence": 1.0,
            "uuid": "9c489b3c-513f-41aa-b898-a2242b92d2b4",
            "name": "Emery",
            "url": "https://haz-map.com/Agents/478",
            "category": "agents"
          },
          {
            "type": "name_match",
            "text": "oleic acid",
            "confidence": 1.0,
            "uuid": "92fd92b6-f74c-4bd2-b9f1-919fbad882ae",
            "name": "Oleic acid",
            "url": "https://haz-map.com/Agents/6455",
            "category": "agents"
          }
        ]
      },
      "category": {
        "original_name": "Category",
        "value": "Emulsifiers/Surfactants",
        "links": [],
        "cross_references": []
      },
      "description": {
        "original_name": "Description",
        "value": "Clear colorless to amber liquid; [Hawley] Colorless or pale yellow liquid; [MSDSonline]",
        "links": [],
        "cross_references": []
      },
      "sourcesuses": {
        "original_name": "Sources/Uses",
        "value": "Used to make detergents, emulsifiers, wetting agents, stabilizers, textile treatments, plasticizers for duplicating inks, rubbers, waxes, oleonitrile, drying oils, cephalosporin S, alkanolamides, and fatty alcohols and acids; Used as emulsifier and emollient for cosmetics, lubricant for leather, plasticizer for natural and synthetic rubbers, and chromatographic reference standard; [HSDB]",
        "links": [],
        "cross_references": [
          {
            "type": "name_match",
            "text": "oleonitrile",
            "confidence": 1.0,
            "uuid": "3d388774-0f53-453a-b281-d1816be66b00",
            "name": "Oleonitrile",
            "url": "https://haz-map.com/Agents/7759",
            "category": "agents"
          }
        ]
      },
      "comments": {
        "original_name": "Comments",
        "value": "May cause mild skin and mucous membrane irritation; [CAMEO] May cause irritation; [MSDSonline]",
        "links": [],
        "cross_references": []
      },
      "biomedical_references": {
        "original_name": "Biomedical References",
        "value": "Search PubMed",
        "links": [
          {
            "text": "Search PubMed",
            "url": "https://www.ncbi.nlm.nih.gov/pubmed?term=Methyl+oleate%20AND%20human%5Bmh%5D%20AND%20%28Occupational%20Diseases%20%5Bmh%5D%20OR%20Occupational%20Exposure%20%5Bmh%5D%29%20%20AND%20%28tox%5Bsb%5D%29&cmd=search"
          }
        ],
        "cross_references": []
      }
    },
    "exposure_assessment": {
      "vapor_pressure": {
        "original_name": "Vapor Pressure",
        "value": "6.29E-06 mm Hg",
        "links": [],
        "cross_references": []
      }
    },
    "diseases_processes_and_activities_linked_to_this_agent": {
      "processes": {
        "original_name": "Processes",
        "value": "Industrial Processes with risk of exposure: Leather Tanning and Processing",
        "links": [
          {
            "text": "Leather Tanning and Processing",
            "url": "https://haz-map.com/Processes/230"
          }
        ],
        "cross_references": []
      }
    }
  },
  "cross_references": [
    {
      "type": "name_match",
      "text": "emery",
      "confidence": 1.0,
      "uuid": "9c489b3c-513f-41aa-b898-a2242b92d2b4",
      "name": "Emery",
      "url": "https://haz-map.com/Agents/478",
      "category": "agents"
    },
    {
      "type": "name_match",
      "text": "methyl oleate",
      "confidence": 1.0,
      "uuid": "e5b4f7d5-4246-4b3f-836c-569e0e8b0f89",
      "name": "Methyl oleate",
      "url": "https://haz-map.com/Agents/6130",
      "category": "agents"
    },
    {
      "type": "name_match",
      "text": "oleic acid",
      "confidence": 1.0,
      "uuid": "92fd92b6-f74c-4bd2-b9f1-919fbad882ae",
      "name": "Oleic acid",
      "url": "https://haz-map.com/Agents/6455",
      "category": "agents"
    },
    {
      "type": "name_match",
      "text": "oleonitrile",
      "confidence": 1.0,
      "uuid": "3d388774-0f53-453a-b281-d1816be66b00",
      "name": "Oleonitrile",
      "url": "https://haz-map.com/Agents/7759",
      "category": "agents"
    },
    {
      "type": "name_match",
      "text": "ethyl oleate",
      "confidence": 1.0,
      "uuid": "ff3e8019-02bd-446c-a7cc-fa9127e3c045",
      "name": "Ethyl oleate",
      "url": "https://haz-map.com/Agents/20786",
      "category": "agents"
    }
  ],
  "all_links": [
    {
      "text": "Search PubMed",
      "url": "https://www.ncbi.nlm.nih.gov/pubmed?term=Methyl+oleate%20AND%20human%5Bmh%5D%20AND%20%28Occupational%20Diseases%20%5Bmh%5D%20OR%20Occupational%20Exposure%20%5Bmh%5D%29%20%20AND%20%28tox%5Bsb%5D%29&cmd=search"
    },
    {
      "text": "Leather Tanning and Processing",
      "url": "https://haz-map.com/Processes/230"
    }
  ]
}