{
  "metadata": {
    "scraped_from": "https://haz-map.com/Agents/21323",
    "entity_name": "N-Nitrosoethylisopropylamine",
    "category": "agents",
    "uuid": "e5d96a88-dbdc-4c3d-a696-184bd345165e",
    "scraped_at": "2025-07-23T22:41:47.053994"
  },
  "parsed_at": "2025-07-24T00:54:22.545336",
  "title": "N-Nitrosoethylisopropylamine",
  "sections": {
    "general": {
      "agent_name": {
        "original_name": "Agent Name",
        "value": "N-Nitrosoethylisopropylamine",
        "links": [],
        "cross_references": [
          {
            "type": "name_match",
            "text": "isopropylamine",
            "confidence": 1.0,
            "uuid": "43316e6a-7cdf-4441-abad-b64fd8b0dd71",
            "name": "Isopropylamine",
            "url": "https://haz-map.com/Agents/223",
            "category": "agents"
          },
          {
            "type": "name_match",
            "text": "n-nitrosoethylisopropylamine",
            "confidence": 1.0,
            "uuid": "e5d96a88-dbdc-4c3d-a696-184bd345165e",
            "name": "N-Nitrosoethylisopropylamine",
            "url": "https://haz-map.com/Agents/21323",
            "category": "agents"
          }
        ]
      },
      "cas_number": {
        "original_name": "CAS Number",
        "value": "16339-04-1",
        "links": [],
        "cross_references": []
      },
      "formula": {
        "original_name": "Formula",
        "value": "C5-H12-N2-O",
        "links": [],
        "cross_references": []
      },
      "major_category": {
        "original_name": "Major Category",
        "value": "Nitrogen Compounds",
        "links": [],
        "cross_references": [
          {
            "type": "name_match",
            "text": "nitrogen",
            "confidence": 1.0,
            "uuid": "db5e90a9-06d2-45b9-8b81-f345a89b0bc0",
            "name": "Nitrogen",
            "url": "https://haz-map.com/Agents/1072",
            "category": "agents"
          }
        ]
      },
      "synonyms": {
        "original_name": "Synonyms",
        "value": "1-Methyl-N-nitrosodiethylamine; Aethyl-isopropyl-nitrosoamin [German]; Ethylisopropylnitrosoamine; 2-Propanamine, N-ethyl-N-nitroso- (9CI); Diethylamine, 1-methyl-N-nitroso-; [ChemIDplus]",
        "links": [],
        "cross_references": [
          {
            "type": "name_match",
            "text": "ethylamine",
            "confidence": 1.0,
            "uuid": "41ca4da8-b990-420a-86b2-3d77404fb7f4",
            "name": "Ethylamine",
            "url": "https://haz-map.com/Agents/220",
            "category": "agents"
          },
          {
            "type": "name_match",
            "text": "diethylamine",
            "confidence": 1.0,
            "uuid": "43abaa2a-ffbe-4f59-90e0-b71989e79e3a",
            "name": "Diethylamine",
            "url": "https://haz-map.com/Agents/221",
            "category": "agents"
          },
          {
            "type": "name_match",
            "text": "n-nitrosodiethylamine",
            "confidence": 1.0,
            "uuid": "3822db1a-9c30-4c74-bfa1-de9bba2ccab9",
            "name": "N-Nitrosodiethylamine",
            "url": "https://haz-map.com/Agents/6258",
            "category": "agents"
          }
        ]
      },
      "category": {
        "original_name": "Category",
        "value": "Nitrosamines",
        "links": [],
        "cross_references": [
          {
            "type": "name_match",
            "text": "nitrosamines",
            "confidence": 1.0,
            "uuid": "71647706-f82f-4f7a-a1ad-2500c04c2ac0",
            "name": "NITROSAMINES",
            "url": "https://haz-map.com/Agents/767",
            "category": "agents"
          }
        ]
      },
      "comments": {
        "original_name": "Comments",
        "value": "See \"NITROSAMINES.\"",
        "links": [],
        "cross_references": [
          {
            "type": "name_match",
            "text": "nitrosamines",
            "confidence": 1.0,
            "uuid": "71647706-f82f-4f7a-a1ad-2500c04c2ac0",
            "name": "NITROSAMINES",
            "url": "https://haz-map.com/Agents/767",
            "category": "agents"
          }
        ]
      },
      "biomedical_references": {
        "original_name": "Biomedical References",
        "value": "Search PubMed",
        "links": [
          {
            "text": "Search PubMed",
            "url": "https://www.ncbi.nlm.nih.gov/pubmed?term=N-Nitrosoethylisopropylamine%20AND%20human%5Bmh%5D%20AND%20%28Occupational%20Diseases%20%5Bmh%5D%20OR%20Occupational%20Exposure%20%5Bmh%5D%29%20%20AND%20%28tox%5Bsb%5D%29&cmd=search"
          }
        ],
        "cross_references": []
      }
    },
    "exposure_assessment": {
      "vapor_pressure": {
        "original_name": "Vapor Pressure",
        "value": "0.386 mm Hg",
        "links": [],
        "cross_references": []
      }
    },
    "diseases_processes_and_activities_linked_to_this_agent": {
      "other_information": {
        "original_name": "Other Information",
        "value": "No other related information on this agent was found.",
        "links": [],
        "cross_references": []
      }
    }
  },
  "cross_references": [
    {
      "type": "name_match",
      "text": "ethylamine",
      "confidence": 1.0,
      "uuid": "41ca4da8-b990-420a-86b2-3d77404fb7f4",
      "name": "Ethylamine",
      "url": "https://haz-map.com/Agents/220",
      "category": "agents"
    },
    {
      "type": "name_match",
      "text": "diethylamine",
      "confidence": 1.0,
      "uuid": "43abaa2a-ffbe-4f59-90e0-b71989e79e3a",
      "name": "Diethylamine",
      "url": "https://haz-map.com/Agents/221",
      "category": "agents"
    },
    {
      "type": "name_match",
      "text": "isopropylamine",
      "confidence": 1.0,
      "uuid": "43316e6a-7cdf-4441-abad-b64fd8b0dd71",
      "name": "Isopropylamine",
      "url": "https://haz-map.com/Agents/223",
      "category": "agents"
    },
    {
      "type": "name_match",
      "text": "nitrosamines",
      "confidence": 1.0,
      "uuid": "71647706-f82f-4f7a-a1ad-2500c04c2ac0",
      "name": "NITROSAMINES",
      "url": "https://haz-map.com/Agents/767",
      "category": "agents"
    },
    {
      "type": "name_match",
      "text": "nitrogen",
      "confidence": 1.0,
      "uuid": "db5e90a9-06d2-45b9-8b81-f345a89b0bc0",
      "name": "Nitrogen",
      "url": "https://haz-map.com/Agents/1072",
      "category": "agents"
    },
    {
      "type": "name_match",
      "text": "n-nitrosodiethylamine",
      "confidence": 1.0,
      "uuid": "3822db1a-9c30-4c74-bfa1-de9bba2ccab9",
      "name": "N-Nitrosodiethylamine",
      "url": "https://haz-map.com/Agents/6258",
      "category": "agents"
    },
    {
      "type": "name_match",
      "text": "n-nitrosoethylisopropylamine",
      "confidence": 1.0,
      "uuid": "e5d96a88-dbdc-4c3d-a696-184bd345165e",
      "name": "N-Nitrosoethylisopropylamine",
      "url": "https://haz-map.com/Agents/21323",
      "category": "agents"
    }
  ],
  "all_links": [
    {
      "text": "Search PubMed",
      "url": "https://www.ncbi.nlm.nih.gov/pubmed?term=N-Nitrosoethylisopropylamine%20AND%20human%5Bmh%5D%20AND%20%28Occupational%20Diseases%20%5Bmh%5D%20OR%20Occupational%20Exposure%20%5Bmh%5D%29%20%20AND%20%28tox%5Bsb%5D%29&cmd=search"
    }
  ]
}