{
  "metadata": {
    "scraped_from": "https://haz-map.com/Agents/1114",
    "entity_name": "2-Hydroxyethyl methacrylate",
    "category": "agents",
    "uuid": "e6050935-8442-43bc-8473-40145b84e7c8",
    "scraped_at": "2025-07-23T18:52:47.101821"
  },
  "parsed_at": "2025-07-24T00:52:00.335478",
  "title": "2-Hydroxyethyl methacrylate",
  "sections": {
    "general": {
      "agent_name": {
        "original_name": "Agent Name",
        "value": "2-Hydroxyethyl methacrylate",
        "links": [],
        "cross_references": [
          {
            "type": "name_match",
            "text": "ethyl methacrylate",
            "confidence": 1.0,
            "uuid": "c6fffbc1-19c8-4d59-a80f-43c99fc33e11",
            "name": "Ethyl methacrylate",
            "url": "https://haz-map.com/Agents/825",
            "category": "agents"
          },
          {
            "type": "name_match",
            "text": "2-hydroxyethyl methacrylate",
            "confidence": 1.0,
            "uuid": "e6050935-8442-43bc-8473-40145b84e7c8",
            "name": "2-Hydroxyethyl methacrylate",
            "url": "https://haz-map.com/Agents/1114",
            "category": "agents"
          }
        ]
      },
      "cas_number": {
        "original_name": "CAS Number",
        "value": "868-77-9",
        "links": [],
        "cross_references": []
      },
      "formula": {
        "original_name": "Formula",
        "value": "C6-H10-O3",
        "links": [],
        "cross_references": []
      },
      "major_category": {
        "original_name": "Major Category",
        "value": "Plastics & Rubber",
        "links": [],
        "cross_references": []
      },
      "synonyms": {
        "original_name": "Synonyms",
        "value": "2-(Methacryloyloxy)ethanol; 2-Hydroxyethylmethacrylate; 2-Propenoic acid, 2-methyl-, 2-hydroxyethyl ester; Ethylene glycol methacrylate; Ethylene glycol, monomethacrylate; Glycol methacrylate; Glycol monomethacrylate; Hydroxyethyl methacrylate; Methacrylic acid, 2-hydroxyethyl ester; Mhoromer; Monomer MG-1; Monomethacrylic ether of ethylene glycol; [ChemIDplus] HEMA; [Reference #2]",
        "links": [],
        "cross_references": [
          {
            "type": "name_match",
            "text": "acrylic acid",
            "confidence": 1.0,
            "uuid": "c8e65755-0f00-4e14-91fe-d4fa705d17da",
            "name": "Acrylic acid",
            "url": "https://haz-map.com/Agents/67",
            "category": "agents"
          },
          {
            "type": "name_match",
            "text": "methacrylic acid",
            "confidence": 1.0,
            "uuid": "cbb89ac5-c6fb-4f8e-9a25-8dce1702dff5",
            "name": "Methacrylic acid",
            "url": "https://haz-map.com/Agents/215",
            "category": "agents"
          },
          {
            "type": "name_match",
            "text": "ethylene glycol",
            "confidence": 1.0,
            "uuid": "99589035-d71c-415a-914c-81c7a166be11",
            "name": "Ethylene glycol",
            "url": "https://haz-map.com/Agents/488",
            "category": "agents"
          },
          {
            "type": "name_match",
            "text": "ethyl methacrylate",
            "confidence": 1.0,
            "uuid": "c6fffbc1-19c8-4d59-a80f-43c99fc33e11",
            "name": "Ethyl methacrylate",
            "url": "https://haz-map.com/Agents/825",
            "category": "agents"
          },
          {
            "type": "name_match",
            "text": "ethylene",
            "confidence": 1.0,
            "uuid": "958eacc0-5135-4b62-bb93-6df972bf552f",
            "name": "Ethylene",
            "url": "https://haz-map.com/Agents/1076",
            "category": "agents"
          }
        ]
      },
      "category": {
        "original_name": "Category",
        "value": "(Meth)acrylates",
        "links": [],
        "cross_references": []
      },
      "description": {
        "original_name": "Description",
        "value": "Clear mobile liquid; [HSDB] Colorless liquid with an ester-like odor; [Alfa Aesar MSDS]",
        "links": [],
        "cross_references": []
      },
      "sourcesuses": {
        "original_name": "Sources/Uses",
        "value": "Frequently used in UV-curable inks and coatings; also used in adhesives, artificial nails, dental materials, and lacquers; [HSDB] Used in dentistry as one of the main volatile acrylates along with methyl methacrylate; [Reference #1] Used as a monomer in the synthesis of polymers (used in paints, adhesives, coatings, dental adhesive systems, etc.) for dental prosthetics, and for geotechnical grouting in construction work; [Reference #2]",
        "links": [],
        "cross_references": [
          {
            "type": "name_match",
            "text": "methyl methacrylate",
            "confidence": 1.0,
            "uuid": "2199439b-5703-45e3-97fa-22fd2d480eb9",
            "name": "Methyl methacrylate",
            "url": "https://haz-map.com/Agents/216",
            "category": "agents"
          },
          {
            "type": "name_match",
            "text": "ethyl methacrylate",
            "confidence": 1.0,
            "uuid": "c6fffbc1-19c8-4d59-a80f-43c99fc33e11",
            "name": "Ethyl methacrylate",
            "url": "https://haz-map.com/Agents/825",
            "category": "agents"
          }
        ]
      },
      "comments": {
        "original_name": "Comments",
        "value": "Allergic contact dermatitis reported in a laboratory technician and in the printing industry; A skin and eye irritant; [HSDB] Hydrolyzed forming methacrylic acid and ethylene glycol; A mild skin and moderate eye irritant; Possesses skin sensitizing properties with equivocal results in human patch testing; [Reference #2] A skin and severe eye irritant; May cause skin sensitization; [Alfa Aesar MSDS]",
        "links": [],
        "cross_references": [
          {
            "type": "name_match",
            "text": "dermatitis",
            "confidence": 1.0,
            "uuid": "fe9c05f2-b19f-4ceb-ac7a-ffb7d7a0cae0",
            "name": "dermatitis",
            "url": "https://haz-map.com/Findings/59",
            "category": "findings"
          },
          {
            "type": "name_match",
            "text": "acrylic acid",
            "confidence": 1.0,
            "uuid": "c8e65755-0f00-4e14-91fe-d4fa705d17da",
            "name": "Acrylic acid",
            "url": "https://haz-map.com/Agents/67",
            "category": "agents"
          },
          {
            "type": "name_match",
            "text": "methacrylic acid",
            "confidence": 1.0,
            "uuid": "cbb89ac5-c6fb-4f8e-9a25-8dce1702dff5",
            "name": "Methacrylic acid",
            "url": "https://haz-map.com/Agents/215",
            "category": "agents"
          },
          {
            "type": "name_match",
            "text": "ethylene glycol",
            "confidence": 1.0,
            "uuid": "99589035-d71c-415a-914c-81c7a166be11",
            "name": "Ethylene glycol",
            "url": "https://haz-map.com/Agents/488",
            "category": "agents"
          },
          {
            "type": "name_match",
            "text": "ethylene",
            "confidence": 1.0,
            "uuid": "958eacc0-5135-4b62-bb93-6df972bf552f",
            "name": "Ethylene",
            "url": "https://haz-map.com/Agents/1076",
            "category": "agents"
          },
          {
            "type": "fuzzy_match",
            "text": "contact dermatitis",
            "matched_name": "Contact dermatitis, allergic",
            "confidence": 0.7214285714285715,
            "uuid": "c9499de0-9aa1-41bf-8753-cd5b28a63e29",
            "category": "diseases",
            "url": "https://haz-map.com/Diseases/18"
          }
        ]
      },
      "reference_link_1": {
        "original_name": "Reference Link #1",
        "value": "Exposure to volatile methacrylates in dental perso...[J Occup Environ Hyg. 2005] - PubMed Result",
        "links": [
          {
            "text": "Exposure to volatile methacrylates in dental perso...[J Occup Environ Hyg. 2005] - PubMed Result",
            "url": "http://www.ncbi.nlm.nih.gov/pubmed/16020090?ordinalpos=8&itool=EntrezSystem2.PEntrez.Pubmed.Pubmed_ResultsPanel.Pubmed_RVDocSum"
          }
        ],
        "cross_references": [
          {
            "type": "name_match",
            "text": "iron",
            "confidence": 1.0,
            "uuid": "a6101f16-ec31-4d6c-af41-cbdbda5b1c7c",
            "name": "Iron",
            "url": "https://haz-map.com/Agents/1993",
            "category": "agents"
          }
        ]
      },
      "biomedical_references": {
        "original_name": "Biomedical References",
        "value": "Search PubMed",
        "links": [
          {
            "text": "Search PubMed",
            "url": "https://www.ncbi.nlm.nih.gov/pubmed?term=2-Hydroxyethyl+methacrylate%20AND%20human%5Bmh%5D%20AND%20%28Occupational%20Diseases%20%5Bmh%5D%20OR%20Occupational%20Exposure%20%5Bmh%5D%29%20%20AND%20%28tox%5Bsb%5D%29&cmd=search"
          }
        ],
        "cross_references": []
      }
    },
    "exposure_assessment": {
      "vapor_pressure": {
        "original_name": "Vapor Pressure",
        "value": "0.126 mm Hg",
        "links": [],
        "cross_references": []
      },
      "explanatory_notes": {
        "original_name": "Explanatory Notes",
        "value": "VP from HSDB;",
        "links": [],
        "cross_references": []
      },
      "reference_link_2": {
        "original_name": "Reference Link #2",
        "value": "OECD SIDS: 2-Hydroxyethyl methacrylate - 2001",
        "links": [
          {
            "text": "OECD SIDS: 2-Hydroxyethyl methacrylate - 2001",
            "url": "http://www.inchem.org/documents/sids/sids/868779.pdf"
          }
        ],
        "cross_references": [
          {
            "type": "name_match",
            "text": "ethyl methacrylate",
            "confidence": 1.0,
            "uuid": "c6fffbc1-19c8-4d59-a80f-43c99fc33e11",
            "name": "Ethyl methacrylate",
            "url": "https://haz-map.com/Agents/825",
            "category": "agents"
          },
          {
            "type": "name_match",
            "text": "2-hydroxyethyl methacrylate",
            "confidence": 1.0,
            "uuid": "e6050935-8442-43bc-8473-40145b84e7c8",
            "name": "2-Hydroxyethyl methacrylate",
            "url": "https://haz-map.com/Agents/1114",
            "category": "agents"
          }
        ]
      }
    },
    "adverse_effects": {
      "skin_sensitizer": {
        "original_name": "Skin Sensitizer",
        "value": "Yes",
        "links": [],
        "cross_references": []
      }
    },
    "diseases_processes_and_activities_linked_to_this_agent": {
      "diseases": {
        "original_name": "Diseases",
        "value": "Occupational diseases associated with exposure to this agent: Contact dermatitis, allergic",
        "links": [
          {
            "text": "Contact dermatitis, allergic",
            "url": "https://haz-map.com/Diseases/18"
          }
        ],
        "cross_references": [
          {
            "type": "url_match",
            "text": "Contact dermatitis, allergic",
            "url": "https://haz-map.com/Diseases/18",
            "confidence": 1.0,
            "uuid": "c9499de0-9aa1-41bf-8753-cd5b28a63e29",
            "name": "Contact dermatitis, allergic",
            "category": "diseases"
          },
          {
            "type": "name_match",
            "text": "dermatitis",
            "confidence": 1.0,
            "uuid": "fe9c05f2-b19f-4ceb-ac7a-ffb7d7a0cae0",
            "name": "dermatitis",
            "url": "https://haz-map.com/Findings/59",
            "category": "findings"
          }
        ]
      },
      "processes": {
        "original_name": "Processes",
        "value": "Industrial Processes with risk of exposure: Painting (Pigments, Binders, and Biocides) Silk-Screen Printing Textiles (Printing, Dyeing, or Finishing) Working with Glues and Adhesives",
        "links": [
          {
            "text": "Painting (Pigments, Binders, and Biocides)",
            "url": "https://haz-map.com/Processes/145"
          },
          {
            "text": "Silk-Screen Printing",
            "url": "https://haz-map.com/Processes/257"
          },
          {
            "text": "Textiles (Printing, Dyeing, or Finishing)",
            "url": "https://haz-map.com/Processes/235"
          },
          {
            "text": "Working with Glues and Adhesives",
            "url": "https://haz-map.com/Processes/155"
          }
        ],
        "cross_references": [
          {
            "type": "url_match",
            "text": "Painting (Pigments, Binders, and Biocides)",
            "url": "https://haz-map.com/Processes/145",
            "confidence": 1.0,
            "uuid": "25867878-e178-4c21-906f-d392d86b76de",
            "name": "Painting (Pigments, Binders, and Biocides)",
            "category": "processes"
          },
          {
            "type": "url_match",
            "text": "Working with Glues and Adhesives",
            "url": "https://haz-map.com/Processes/155",
            "confidence": 1.0,
            "uuid": "acb9084f-52e8-4687-bd6a-bced94bda834",
            "name": "Working with Glues and Adhesives",
            "category": "processes"
          },
          {
            "type": "name_match",
            "text": "painting",
            "confidence": 1.0,
            "uuid": "19816ce9-9edf-4a86-8e64-b0cbf7dcf520",
            "name": "Painting",
            "url": "https://haz-map.com/Activities/9",
            "category": "activities"
          }
        ]
      }
    }
  },
  "cross_references": [
    {
      "type": "url_match",
      "text": "Contact dermatitis, allergic",
      "url": "https://haz-map.com/Diseases/18",
      "confidence": 1.0,
      "uuid": "c9499de0-9aa1-41bf-8753-cd5b28a63e29",
      "name": "Contact dermatitis, allergic",
      "category": "diseases"
    },
    {
      "type": "url_match",
      "text": "Painting (Pigments, Binders, and Biocides)",
      "url": "https://haz-map.com/Processes/145",
      "confidence": 1.0,
      "uuid": "25867878-e178-4c21-906f-d392d86b76de",
      "name": "Painting (Pigments, Binders, and Biocides)",
      "category": "processes"
    },
    {
      "type": "url_match",
      "text": "Working with Glues and Adhesives",
      "url": "https://haz-map.com/Processes/155",
      "confidence": 1.0,
      "uuid": "acb9084f-52e8-4687-bd6a-bced94bda834",
      "name": "Working with Glues and Adhesives",
      "category": "processes"
    },
    {
      "type": "name_match",
      "text": "painting",
      "confidence": 1.0,
      "uuid": "19816ce9-9edf-4a86-8e64-b0cbf7dcf520",
      "name": "Painting",
      "url": "https://haz-map.com/Activities/9",
      "category": "activities"
    },
    {
      "type": "name_match",
      "text": "dermatitis",
      "confidence": 1.0,
      "uuid": "fe9c05f2-b19f-4ceb-ac7a-ffb7d7a0cae0",
      "name": "dermatitis",
      "url": "https://haz-map.com/Findings/59",
      "category": "findings"
    },
    {
      "type": "name_match",
      "text": "acrylic acid",
      "confidence": 1.0,
      "uuid": "c8e65755-0f00-4e14-91fe-d4fa705d17da",
      "name": "Acrylic acid",
      "url": "https://haz-map.com/Agents/67",
      "category": "agents"
    },
    {
      "type": "name_match",
      "text": "methacrylic acid",
      "confidence": 1.0,
      "uuid": "cbb89ac5-c6fb-4f8e-9a25-8dce1702dff5",
      "name": "Methacrylic acid",
      "url": "https://haz-map.com/Agents/215",
      "category": "agents"
    },
    {
      "type": "name_match",
      "text": "methyl methacrylate",
      "confidence": 1.0,
      "uuid": "2199439b-5703-45e3-97fa-22fd2d480eb9",
      "name": "Methyl methacrylate",
      "url": "https://haz-map.com/Agents/216",
      "category": "agents"
    },
    {
      "type": "name_match",
      "text": "ethylene glycol",
      "confidence": 1.0,
      "uuid": "99589035-d71c-415a-914c-81c7a166be11",
      "name": "Ethylene glycol",
      "url": "https://haz-map.com/Agents/488",
      "category": "agents"
    },
    {
      "type": "name_match",
      "text": "ethyl methacrylate",
      "confidence": 1.0,
      "uuid": "c6fffbc1-19c8-4d59-a80f-43c99fc33e11",
      "name": "Ethyl methacrylate",
      "url": "https://haz-map.com/Agents/825",
      "category": "agents"
    },
    {
      "type": "name_match",
      "text": "ethylene",
      "confidence": 1.0,
      "uuid": "958eacc0-5135-4b62-bb93-6df972bf552f",
      "name": "Ethylene",
      "url": "https://haz-map.com/Agents/1076",
      "category": "agents"
    },
    {
      "type": "name_match",
      "text": "2-hydroxyethyl methacrylate",
      "confidence": 1.0,
      "uuid": "e6050935-8442-43bc-8473-40145b84e7c8",
      "name": "2-Hydroxyethyl methacrylate",
      "url": "https://haz-map.com/Agents/1114",
      "category": "agents"
    },
    {
      "type": "name_match",
      "text": "iron",
      "confidence": 1.0,
      "uuid": "a6101f16-ec31-4d6c-af41-cbdbda5b1c7c",
      "name": "Iron",
      "url": "https://haz-map.com/Agents/1993",
      "category": "agents"
    }
  ],
  "all_links": [
    {
      "text": "Exposure to volatile methacrylates in dental perso...[J Occup Environ Hyg. 2005] - PubMed Result",
      "url": "http://www.ncbi.nlm.nih.gov/pubmed/16020090?ordinalpos=8&itool=EntrezSystem2.PEntrez.Pubmed.Pubmed_ResultsPanel.Pubmed_RVDocSum"
    },
    {
      "text": "Search PubMed",
      "url": "https://www.ncbi.nlm.nih.gov/pubmed?term=2-Hydroxyethyl+methacrylate%20AND%20human%5Bmh%5D%20AND%20%28Occupational%20Diseases%20%5Bmh%5D%20OR%20Occupational%20Exposure%20%5Bmh%5D%29%20%20AND%20%28tox%5Bsb%5D%29&cmd=search"
    },
    {
      "text": "OECD SIDS: 2-Hydroxyethyl methacrylate - 2001",
      "url": "http://www.inchem.org/documents/sids/sids/868779.pdf"
    },
    {
      "text": "Contact dermatitis, allergic",
      "url": "https://haz-map.com/Diseases/18"
    },
    {
      "text": "Painting (Pigments, Binders, and Biocides)",
      "url": "https://haz-map.com/Processes/145"
    },
    {
      "text": "Silk-Screen Printing",
      "url": "https://haz-map.com/Processes/257"
    },
    {
      "text": "Textiles (Printing, Dyeing, or Finishing)",
      "url": "https://haz-map.com/Processes/235"
    },
    {
      "text": "Working with Glues and Adhesives",
      "url": "https://haz-map.com/Processes/155"
    }
  ]
}