{
  "metadata": {
    "scraped_from": "https://haz-map.com/Agents/6400",
    "entity_name": "Novaluron",
    "category": "agents",
    "uuid": "e6164599-9f1a-4517-9fd0-39d2dc3469b1",
    "scraped_at": "2025-07-23T20:01:28.697905"
  },
  "parsed_at": "2025-07-24T00:50:56.250718",
  "title": "Novaluron",
  "sections": {
    "general": {
      "agent_name": {
        "original_name": "Agent Name",
        "value": "Novaluron",
        "links": [],
        "cross_references": [
          {
            "type": "name_match",
            "text": "novaluron",
            "confidence": 1.0,
            "uuid": "e6164599-9f1a-4517-9fd0-39d2dc3469b1",
            "name": "Novaluron",
            "url": "https://haz-map.com/Agents/6400",
            "category": "agents"
          }
        ]
      },
      "cas_number": {
        "original_name": "CAS Number",
        "value": "116714-46-6",
        "links": [],
        "cross_references": []
      },
      "formula": {
        "original_name": "Formula",
        "value": "C17-H9-Cl-F8-N2-O4",
        "links": [],
        "cross_references": []
      },
      "major_category": {
        "original_name": "Major Category",
        "value": "Pesticides",
        "links": [],
        "cross_references": []
      },
      "synonyms": {
        "original_name": "Synonyms",
        "value": "Rimon; Benzamide, N-(((3-chloro-4-(1,1,2-trifluoro-2-(trifluoromethoxy)ethoxy)phenyl)amino)carbonyl)-2,6-difluoro-; Benzamide, N-3-chloro-4-(1,1,2-trifluoro)-2-(trifluoromethoxy)ethoxyphenyl-amino-carbonyl-2,6-difluoro-; [ChemIDplus] 1-(3-Chloro-4-(1,1,2-trifluoro-2-trifluoromethoxyethoxy)phenyl)-3-(2,6-difluorobenzoyl)urea; GR 572; [HSDB] N-[[[3-Chloro-4-[1,1,2-trifluoro-2-(trifluoromethoxy)ethoxy]-phenyl]amino] carbonyl]-2,6-difluorobenzamide; [MSDSonline]",
        "links": [],
        "cross_references": [
          {
            "type": "name_match",
            "text": "carbon",
            "confidence": 1.0,
            "uuid": "b53f8815-ee80-40ef-b4aa-3b000e17dab5",
            "name": "Carbon",
            "url": "https://haz-map.com/Agents/1891",
            "category": "agents"
          },
          {
            "type": "name_match",
            "text": "urea",
            "confidence": 1.0,
            "uuid": "a92a6129-bddd-4f79-9a78-136812ae610f",
            "name": "Urea",
            "url": "https://haz-map.com/Agents/2078",
            "category": "agents"
          },
          {
            "type": "name_match",
            "text": "benzamide",
            "confidence": 1.0,
            "uuid": "8900c544-7f26-477e-a4c1-ff24fcc01b2c",
            "name": "Benzamide",
            "url": "https://haz-map.com/Agents/3828",
            "category": "agents"
          }
        ]
      },
      "category": {
        "original_name": "Category",
        "value": "Other Insecticides",
        "links": [],
        "cross_references": []
      },
      "description": {
        "original_name": "Description",
        "value": "Colorless solid; [MSDSonline]",
        "links": [],
        "cross_references": []
      },
      "sourcesuses": {
        "original_name": "Sources/Uses",
        "value": "Used as growth regulator insecticide; [Merck Index] Used on ornamentals in greenhouses to control whiteflies, thrips, and leafminers--disrupts the normal growth and development of immature insects; [Reference #1]",
        "links": [],
        "cross_references": [
          {
            "type": "name_match",
            "text": "insects",
            "confidence": 1.0,
            "uuid": "aa09eb63-8062-4e8a-ba83-b4fd16d81454",
            "name": "Insects",
            "url": "https://haz-map.com/Agents/1216",
            "category": "agents"
          }
        ]
      },
      "comments": {
        "original_name": "Comments",
        "value": "Can cause temporary eye injury; Can be absorbed through skin; May cause skin sensitization; [HSDB]",
        "links": [],
        "cross_references": [
          {
            "type": "name_match",
            "text": "tempo",
            "confidence": 1.0,
            "uuid": "55930a45-7786-4f0a-a7e8-bd4064508b68",
            "name": "TEMPO",
            "url": "https://haz-map.com/Agents/17879",
            "category": "agents"
          }
        ]
      },
      "reference_link_1": {
        "original_name": "Reference Link #1",
        "value": "EPA Pesticide Chemical Search",
        "links": [
          {
            "text": "EPA Pesticide Chemical Search",
            "url": "https://iaspub.epa.gov/apex/pesticides/f?p=CHEMICALSEARCH:1:"
          }
        ],
        "cross_references": [
          {
            "type": "name_match",
            "text": "mica",
            "confidence": 1.0,
            "uuid": "433f26f1-c399-4596-b179-ce3843cfd465",
            "name": "Mica",
            "url": "https://haz-map.com/Agents/621",
            "category": "agents"
          }
        ]
      },
      "biomedical_references": {
        "original_name": "Biomedical References",
        "value": "Search PubMed",
        "links": [
          {
            "text": "Search PubMed",
            "url": "https://www.ncbi.nlm.nih.gov/pubmed?term=Novaluron%20AND%20human%5Bmh%5D%20AND%20%28Occupational%20Diseases%20%5Bmh%5D%20OR%20Occupational%20Exposure%20%5Bmh%5D%29%20%20AND%20%28tox%5Bsb%5D%29&cmd=search"
          }
        ],
        "cross_references": []
      }
    },
    "exposure_assessment": {
      "vapor_pressure": {
        "original_name": "Vapor Pressure",
        "value": "3.75E-06 mm Hg",
        "links": [],
        "cross_references": []
      },
      "reference_link_2": {
        "original_name": "Reference Link #2",
        "value": "INCHEM JMPR: Novaluron - 2005",
        "links": [
          {
            "text": "INCHEM JMPR: Novaluron - 2005",
            "url": "http://www.inchem.org/documents/jmpr/jmpmono/v2005pr14.pdf"
          }
        ],
        "cross_references": [
          {
            "type": "name_match",
            "text": "novaluron",
            "confidence": 1.0,
            "uuid": "e6164599-9f1a-4517-9fd0-39d2dc3469b1",
            "name": "Novaluron",
            "url": "https://haz-map.com/Agents/6400",
            "category": "agents"
          }
        ]
      }
    },
    "adverse_effects": {
      "methemoglobinemia": {
        "original_name": "Methemoglobinemia",
        "value": "MetHgb is secondary toxic effect",
        "links": [],
        "cross_references": []
      }
    },
    "diseases_processes_and_activities_linked_to_this_agent": {
      "processes": {
        "original_name": "Processes",
        "value": "Industrial Processes with risk of exposure: Farming (Pesticides)",
        "links": [
          {
            "text": "Farming (Pesticides)",
            "url": "https://haz-map.com/Processes/218"
          }
        ],
        "cross_references": [
          {
            "type": "url_match",
            "text": "Farming (Pesticides)",
            "url": "https://haz-map.com/Processes/218",
            "confidence": 1.0,
            "uuid": "cf1e5815-c9bb-4917-82a5-391848170b7e",
            "name": "Farming (Pesticides)",
            "category": "processes"
          }
        ]
      }
    }
  },
  "cross_references": [
    {
      "type": "url_match",
      "text": "Farming (Pesticides)",
      "url": "https://haz-map.com/Processes/218",
      "confidence": 1.0,
      "uuid": "cf1e5815-c9bb-4917-82a5-391848170b7e",
      "name": "Farming (Pesticides)",
      "category": "processes"
    },
    {
      "type": "name_match",
      "text": "mica",
      "confidence": 1.0,
      "uuid": "433f26f1-c399-4596-b179-ce3843cfd465",
      "name": "Mica",
      "url": "https://haz-map.com/Agents/621",
      "category": "agents"
    },
    {
      "type": "name_match",
      "text": "insects",
      "confidence": 1.0,
      "uuid": "aa09eb63-8062-4e8a-ba83-b4fd16d81454",
      "name": "Insects",
      "url": "https://haz-map.com/Agents/1216",
      "category": "agents"
    },
    {
      "type": "name_match",
      "text": "carbon",
      "confidence": 1.0,
      "uuid": "b53f8815-ee80-40ef-b4aa-3b000e17dab5",
      "name": "Carbon",
      "url": "https://haz-map.com/Agents/1891",
      "category": "agents"
    },
    {
      "type": "name_match",
      "text": "urea",
      "confidence": 1.0,
      "uuid": "a92a6129-bddd-4f79-9a78-136812ae610f",
      "name": "Urea",
      "url": "https://haz-map.com/Agents/2078",
      "category": "agents"
    },
    {
      "type": "name_match",
      "text": "benzamide",
      "confidence": 1.0,
      "uuid": "8900c544-7f26-477e-a4c1-ff24fcc01b2c",
      "name": "Benzamide",
      "url": "https://haz-map.com/Agents/3828",
      "category": "agents"
    },
    {
      "type": "name_match",
      "text": "novaluron",
      "confidence": 1.0,
      "uuid": "e6164599-9f1a-4517-9fd0-39d2dc3469b1",
      "name": "Novaluron",
      "url": "https://haz-map.com/Agents/6400",
      "category": "agents"
    },
    {
      "type": "name_match",
      "text": "tempo",
      "confidence": 1.0,
      "uuid": "55930a45-7786-4f0a-a7e8-bd4064508b68",
      "name": "TEMPO",
      "url": "https://haz-map.com/Agents/17879",
      "category": "agents"
    }
  ],
  "all_links": [
    {
      "text": "EPA Pesticide Chemical Search",
      "url": "https://iaspub.epa.gov/apex/pesticides/f?p=CHEMICALSEARCH:1:"
    },
    {
      "text": "Search PubMed",
      "url": "https://www.ncbi.nlm.nih.gov/pubmed?term=Novaluron%20AND%20human%5Bmh%5D%20AND%20%28Occupational%20Diseases%20%5Bmh%5D%20OR%20Occupational%20Exposure%20%5Bmh%5D%29%20%20AND%20%28tox%5Bsb%5D%29&cmd=search"
    },
    {
      "text": "INCHEM JMPR: Novaluron - 2005",
      "url": "http://www.inchem.org/documents/jmpr/jmpmono/v2005pr14.pdf"
    },
    {
      "text": "Farming (Pesticides)",
      "url": "https://haz-map.com/Processes/218"
    }
  ]
}