{
  "metadata": {
    "scraped_from": "https://haz-map.com/Agents/8524",
    "entity_name": "2-Heptene",
    "category": "agents",
    "uuid": "e617c58e-f017-4471-999c-db732c5e33f4",
    "scraped_at": "2025-07-23T20:28:19.404690"
  },
  "parsed_at": "2025-07-24T00:58:35.399751",
  "title": "2-Heptene",
  "sections": {
    "general": {
      "agent_name": {
        "original_name": "Agent Name",
        "value": "2-Heptene",
        "links": [],
        "cross_references": [
          {
            "type": "name_match",
            "text": "2-heptene",
            "confidence": 1.0,
            "uuid": "e617c58e-f017-4471-999c-db732c5e33f4",
            "name": "2-Heptene",
            "url": "https://haz-map.com/Agents/8524",
            "category": "agents"
          },
          {
            "type": "name_match",
            "text": "heptene",
            "confidence": 1.0,
            "uuid": "a41f7be2-f9f6-47de-967c-2683b506d55d",
            "name": "Heptene",
            "url": "https://haz-map.com/Agents/14566",
            "category": "agents"
          }
        ]
      },
      "cas_number": {
        "original_name": "CAS Number",
        "value": "592-77-8",
        "links": [],
        "cross_references": []
      },
      "formula": {
        "original_name": "Formula",
        "value": "C7-H14",
        "links": [],
        "cross_references": []
      },
      "major_category": {
        "original_name": "Major Category",
        "value": "Other Classes",
        "links": [],
        "cross_references": []
      },
      "synonyms": {
        "original_name": "Synonyms",
        "value": "Hept-2-ene; [ChemIDplus] 2-Heptene (cis- and trans- mixture); Heptene-2; Heptene-2 (cis, trans); n-2-Heptene; [MSDSonline] UN2278",
        "links": [],
        "cross_references": [
          {
            "type": "name_match",
            "text": "2-heptene",
            "confidence": 1.0,
            "uuid": "e617c58e-f017-4471-999c-db732c5e33f4",
            "name": "2-Heptene",
            "url": "https://haz-map.com/Agents/8524",
            "category": "agents"
          },
          {
            "type": "name_match",
            "text": "heptene",
            "confidence": 1.0,
            "uuid": "a41f7be2-f9f6-47de-967c-2683b506d55d",
            "name": "Heptene",
            "url": "https://haz-map.com/Agents/14566",
            "category": "agents"
          }
        ]
      },
      "category": {
        "original_name": "Category",
        "value": "Aliphatics, Unsaturated",
        "links": [],
        "cross_references": []
      },
      "description": {
        "original_name": "Description",
        "value": "Clear colorless liquid; [MSDSonline]",
        "links": [],
        "cross_references": []
      },
      "comments": {
        "original_name": "Comments",
        "value": "An irritant; [MSDSonline]",
        "links": [],
        "cross_references": []
      },
      "biomedical_references": {
        "original_name": "Biomedical References",
        "value": "Search PubMed",
        "links": [
          {
            "text": "Search PubMed",
            "url": "https://www.ncbi.nlm.nih.gov/pubmed?term=2-Heptene%20AND%20human%5Bmh%5D%20AND%20%28Occupational%20Diseases%20%5Bmh%5D%20OR%20Occupational%20Exposure%20%5Bmh%5D%29%20%20AND%20%28tox%5Bsb%5D%29&cmd=search"
          }
        ],
        "cross_references": []
      }
    },
    "exposure_assessment": {
      "vapor_pressure": {
        "original_name": "Vapor Pressure",
        "value": "48.4 mm Hg",
        "links": [],
        "cross_references": []
      },
      "explanatory_notes": {
        "original_name": "Explanatory Notes",
        "value": "The Guide in the Emergency Response Guidebook is for \"n-Heptene.\" VP from ChemIDplus;",
        "links": [],
        "cross_references": [
          {
            "type": "name_match",
            "text": "heptene",
            "confidence": 1.0,
            "uuid": "a41f7be2-f9f6-47de-967c-2683b506d55d",
            "name": "Heptene",
            "url": "https://haz-map.com/Agents/14566",
            "category": "agents"
          }
        ]
      }
    },
    "adverse_effects": {
      "neurotoxin": {
        "original_name": "Neurotoxin",
        "value": "Acute solvent syndrome",
        "links": [],
        "cross_references": []
      }
    },
    "diseases_processes_and_activities_linked_to_this_agent": {
      "diseases": {
        "original_name": "Diseases",
        "value": "Occupational diseases associated with exposure to this agent: Solvents, acute toxic effect",
        "links": [
          {
            "text": "Solvents, acute toxic effect",
            "url": "https://haz-map.com/Diseases/326"
          }
        ],
        "cross_references": [
          {
            "type": "url_match",
            "text": "Solvents, acute toxic effect",
            "url": "https://haz-map.com/Diseases/326",
            "confidence": 1.0,
            "uuid": "581e90e3-9d0c-45f0-aa6c-3468c28da129",
            "name": "Solvents, acute toxic effect",
            "category": "diseases"
          }
        ]
      }
    }
  },
  "cross_references": [
    {
      "type": "url_match",
      "text": "Solvents, acute toxic effect",
      "url": "https://haz-map.com/Diseases/326",
      "confidence": 1.0,
      "uuid": "581e90e3-9d0c-45f0-aa6c-3468c28da129",
      "name": "Solvents, acute toxic effect",
      "category": "diseases"
    },
    {
      "type": "name_match",
      "text": "2-heptene",
      "confidence": 1.0,
      "uuid": "e617c58e-f017-4471-999c-db732c5e33f4",
      "name": "2-Heptene",
      "url": "https://haz-map.com/Agents/8524",
      "category": "agents"
    },
    {
      "type": "name_match",
      "text": "heptene",
      "confidence": 1.0,
      "uuid": "a41f7be2-f9f6-47de-967c-2683b506d55d",
      "name": "Heptene",
      "url": "https://haz-map.com/Agents/14566",
      "category": "agents"
    }
  ],
  "all_links": [
    {
      "text": "Search PubMed",
      "url": "https://www.ncbi.nlm.nih.gov/pubmed?term=2-Heptene%20AND%20human%5Bmh%5D%20AND%20%28Occupational%20Diseases%20%5Bmh%5D%20OR%20Occupational%20Exposure%20%5Bmh%5D%29%20%20AND%20%28tox%5Bsb%5D%29&cmd=search"
    },
    {
      "text": "Solvents, acute toxic effect",
      "url": "https://haz-map.com/Diseases/326"
    }
  ]
}