{
  "metadata": {
    "scraped_from": "https://haz-map.com/Agents/2966",
    "entity_name": "2,3-Dichloronitrobenzene",
    "category": "agents",
    "uuid": "e641abb7-6383-4c81-8048-10049cc78c12",
    "scraped_at": "2025-07-23T19:21:48.318906"
  },
  "parsed_at": "2025-07-24T01:02:00.961021",
  "title": "2,3-Dichloronitrobenzene",
  "sections": {
    "general": {
      "agent_name": {
        "original_name": "Agent Name",
        "value": "2,3-Dichloronitrobenzene",
        "links": [],
        "cross_references": [
          {
            "type": "name_match",
            "text": "benzene",
            "confidence": 1.0,
            "uuid": "b05124de-5f34-4c14-8f04-ccb20c3780d9",
            "name": "Benzene",
            "url": "https://haz-map.com/Agents/5",
            "category": "agents"
          },
          {
            "type": "name_match",
            "text": "nitrobenzene",
            "confidence": 1.0,
            "uuid": "4488262c-4790-4774-a462-bf0cc71ff40c",
            "name": "Nitrobenzene",
            "url": "https://haz-map.com/Agents/569",
            "category": "agents"
          },
          {
            "type": "name_match",
            "text": "2,3-dichloronitrobenzene",
            "confidence": 1.0,
            "uuid": "e641abb7-6383-4c81-8048-10049cc78c12",
            "name": "2,3-Dichloronitrobenzene",
            "url": "https://haz-map.com/Agents/2966",
            "category": "agents"
          }
        ]
      },
      "cas_number": {
        "original_name": "CAS Number",
        "value": "3209-22-1",
        "links": [],
        "cross_references": []
      },
      "formula": {
        "original_name": "Formula",
        "value": "C6-H3-Cl2-N-O2",
        "links": [],
        "cross_references": []
      },
      "major_category": {
        "original_name": "Major Category",
        "value": "Nitrogen Compounds",
        "links": [],
        "cross_references": [
          {
            "type": "name_match",
            "text": "nitrogen",
            "confidence": 1.0,
            "uuid": "db5e90a9-06d2-45b9-8b81-f345a89b0bc0",
            "name": "Nitrogen",
            "url": "https://haz-map.com/Agents/1072",
            "category": "agents"
          }
        ]
      },
      "synonyms": {
        "original_name": "Synonyms",
        "value": "1,2-Dichloro-3-nitrobenzene; 2,3-Dichloro-1-nitrobenzene; Benzene, 1,2-dichloro-3-nitro-; [ChemIDplus] UN1578",
        "links": [],
        "cross_references": [
          {
            "type": "name_match",
            "text": "benzene",
            "confidence": 1.0,
            "uuid": "b05124de-5f34-4c14-8f04-ccb20c3780d9",
            "name": "Benzene",
            "url": "https://haz-map.com/Agents/5",
            "category": "agents"
          },
          {
            "type": "name_match",
            "text": "nitrobenzene",
            "confidence": 1.0,
            "uuid": "4488262c-4790-4774-a462-bf0cc71ff40c",
            "name": "Nitrobenzene",
            "url": "https://haz-map.com/Agents/569",
            "category": "agents"
          }
        ]
      },
      "category": {
        "original_name": "Category",
        "value": "Nitros, Aromatic",
        "links": [],
        "cross_references": []
      },
      "description": {
        "original_name": "Description",
        "value": "Colorless solid; [ICSC] Light yellow solid; [CHEMINFO] Light yellow powder; [MSDSonline]",
        "links": [],
        "cross_references": [
          {
            "type": "name_match",
            "text": "ht",
            "confidence": 1.0,
            "uuid": "764df367-8d53-4a11-81a2-31ccfe122a8d",
            "name": "HT",
            "url": "https://haz-map.com/Agents/2168",
            "category": "agents"
          }
        ]
      },
      "sourcesuses": {
        "original_name": "Sources/Uses",
        "value": "Used to make agricultural chemicals and antibacterial/antiprotozoal agents; [HSDB]",
        "links": [],
        "cross_references": [
          {
            "type": "name_match",
            "text": "mica",
            "confidence": 1.0,
            "uuid": "433f26f1-c399-4596-b179-ce3843cfd465",
            "name": "Mica",
            "url": "https://haz-map.com/Agents/621",
            "category": "agents"
          }
        ]
      },
      "comments": {
        "original_name": "Comments",
        "value": "A mutagen; [RTECS] Emergency treatment: \"Nitrobenzene.\" [HSDB] No listed effects of short-term or long-term exposure; \"Insufficient data are available on the effect of this substance on human health, therefore utmost care must be taken.\" [ICSC] An irritant; [MSDSonline] See \"3,4-Dichloronitrobenzene.\"",
        "links": [],
        "cross_references": [
          {
            "type": "name_match",
            "text": "benzene",
            "confidence": 1.0,
            "uuid": "b05124de-5f34-4c14-8f04-ccb20c3780d9",
            "name": "Benzene",
            "url": "https://haz-map.com/Agents/5",
            "category": "agents"
          },
          {
            "type": "name_match",
            "text": "nitrobenzene",
            "confidence": 1.0,
            "uuid": "4488262c-4790-4774-a462-bf0cc71ff40c",
            "name": "Nitrobenzene",
            "url": "https://haz-map.com/Agents/569",
            "category": "agents"
          },
          {
            "type": "name_match",
            "text": "3,4-dichloronitrobenzene",
            "confidence": 1.0,
            "uuid": "97b099bb-3bee-41b8-b77f-c1c33e1ae3de",
            "name": "3,4-Dichloronitrobenzene",
            "url": "https://haz-map.com/Agents/3196",
            "category": "agents"
          },
          {
            "type": "fuzzy_match",
            "text": "4-dichloronitrobenzene",
            "matched_name": "2,4-Dichloronitrobenzene",
            "confidence": 0.8958333333333333,
            "uuid": "2d2c5dbf-fee6-41c3-aeaa-1c76388a3c78",
            "category": "agents",
            "url": "https://haz-map.com/Agents/3005"
          }
        ]
      },
      "biomedical_references": {
        "original_name": "Biomedical References",
        "value": "Search PubMed",
        "links": [
          {
            "text": "Search PubMed",
            "url": "https://www.ncbi.nlm.nih.gov/pubmed?term=2%2c3-Dichloronitrobenzene%20AND%20human%5Bmh%5D%20AND%20%28Occupational%20Diseases%20%5Bmh%5D%20OR%20Occupational%20Exposure%20%5Bmh%5D%29%20%20AND%20%28tox%5Bsb%5D%29&cmd=search"
          }
        ],
        "cross_references": []
      }
    },
    "exposure_assessment": {
      "vapor_pressure": {
        "original_name": "Vapor Pressure",
        "value": "0.00505 mm Hg",
        "links": [],
        "cross_references": []
      },
      "explanatory_notes": {
        "original_name": "Explanatory Notes",
        "value": "Flash point = 123 deg C; [ICSC]",
        "links": [],
        "cross_references": [
          {
            "type": "name_match",
            "text": "ash",
            "confidence": 1.0,
            "uuid": "68b360f1-5ad0-4337-bea0-d7adca2961b5",
            "name": "Ash",
            "url": "https://haz-map.com/Agents/965",
            "category": "agents"
          }
        ]
      }
    },
    "adverse_effects": {
      "methemoglobinemia": {
        "original_name": "Methemoglobinemia",
        "value": "MetHgb is secondary toxic effect",
        "links": [],
        "cross_references": []
      },
      "hepatotoxin": {
        "original_name": "Hepatotoxin",
        "value": "Hepatoxic (a) from occupational exposure (secondary effect) or (b) in animal studies or in humans after ingestion",
        "links": [],
        "cross_references": []
      }
    },
    "diseases_processes_and_activities_linked_to_this_agent": {
      "processes": {
        "original_name": "Processes",
        "value": "Industrial Processes with risk of exposure: Using Disinfectants or Biocides",
        "links": [
          {
            "text": "Using Disinfectants or Biocides",
            "url": "https://haz-map.com/Processes/167"
          }
        ],
        "cross_references": [
          {
            "type": "url_match",
            "text": "Using Disinfectants or Biocides",
            "url": "https://haz-map.com/Processes/167",
            "confidence": 1.0,
            "uuid": "7accb745-ad60-4ef8-9039-8ac4febb8fd8",
            "name": "Using Disinfectants or Biocides",
            "category": "processes"
          }
        ]
      }
    }
  },
  "cross_references": [
    {
      "type": "url_match",
      "text": "Using Disinfectants or Biocides",
      "url": "https://haz-map.com/Processes/167",
      "confidence": 1.0,
      "uuid": "7accb745-ad60-4ef8-9039-8ac4febb8fd8",
      "name": "Using Disinfectants or Biocides",
      "category": "processes"
    },
    {
      "type": "name_match",
      "text": "benzene",
      "confidence": 1.0,
      "uuid": "b05124de-5f34-4c14-8f04-ccb20c3780d9",
      "name": "Benzene",
      "url": "https://haz-map.com/Agents/5",
      "category": "agents"
    },
    {
      "type": "name_match",
      "text": "nitrobenzene",
      "confidence": 1.0,
      "uuid": "4488262c-4790-4774-a462-bf0cc71ff40c",
      "name": "Nitrobenzene",
      "url": "https://haz-map.com/Agents/569",
      "category": "agents"
    },
    {
      "type": "name_match",
      "text": "mica",
      "confidence": 1.0,
      "uuid": "433f26f1-c399-4596-b179-ce3843cfd465",
      "name": "Mica",
      "url": "https://haz-map.com/Agents/621",
      "category": "agents"
    },
    {
      "type": "name_match",
      "text": "ash",
      "confidence": 1.0,
      "uuid": "68b360f1-5ad0-4337-bea0-d7adca2961b5",
      "name": "Ash",
      "url": "https://haz-map.com/Agents/965",
      "category": "agents"
    },
    {
      "type": "name_match",
      "text": "nitrogen",
      "confidence": 1.0,
      "uuid": "db5e90a9-06d2-45b9-8b81-f345a89b0bc0",
      "name": "Nitrogen",
      "url": "https://haz-map.com/Agents/1072",
      "category": "agents"
    },
    {
      "type": "name_match",
      "text": "ht",
      "confidence": 1.0,
      "uuid": "764df367-8d53-4a11-81a2-31ccfe122a8d",
      "name": "HT",
      "url": "https://haz-map.com/Agents/2168",
      "category": "agents"
    },
    {
      "type": "name_match",
      "text": "2,3-dichloronitrobenzene",
      "confidence": 1.0,
      "uuid": "e641abb7-6383-4c81-8048-10049cc78c12",
      "name": "2,3-Dichloronitrobenzene",
      "url": "https://haz-map.com/Agents/2966",
      "category": "agents"
    },
    {
      "type": "name_match",
      "text": "3,4-dichloronitrobenzene",
      "confidence": 1.0,
      "uuid": "97b099bb-3bee-41b8-b77f-c1c33e1ae3de",
      "name": "3,4-Dichloronitrobenzene",
      "url": "https://haz-map.com/Agents/3196",
      "category": "agents"
    },
    {
      "type": "fuzzy_match",
      "text": "4-dichloronitrobenzene",
      "matched_name": "2,4-Dichloronitrobenzene",
      "confidence": 0.8958333333333333,
      "uuid": "2d2c5dbf-fee6-41c3-aeaa-1c76388a3c78",
      "category": "agents",
      "url": "https://haz-map.com/Agents/3005"
    }
  ],
  "all_links": [
    {
      "text": "Search PubMed",
      "url": "https://www.ncbi.nlm.nih.gov/pubmed?term=2%2c3-Dichloronitrobenzene%20AND%20human%5Bmh%5D%20AND%20%28Occupational%20Diseases%20%5Bmh%5D%20OR%20Occupational%20Exposure%20%5Bmh%5D%29%20%20AND%20%28tox%5Bsb%5D%29&cmd=search"
    },
    {
      "text": "Using Disinfectants or Biocides",
      "url": "https://haz-map.com/Processes/167"
    }
  ]
}