{
  "metadata": {
    "scraped_from": "https://haz-map.com/Agents/14422",
    "entity_name": "Glutamine",
    "category": "agents",
    "uuid": "e6becf75-127f-401b-a565-d4ab9762b7f0",
    "scraped_at": "2025-07-23T21:22:36.614678"
  },
  "parsed_at": "2025-07-24T01:09:21.353973",
  "title": "Glutamine",
  "sections": {
    "general": {
      "agent_name": {
        "original_name": "Agent Name",
        "value": "Glutamine",
        "links": [],
        "cross_references": [
          {
            "type": "name_match",
            "text": "glutamine",
            "confidence": 1.0,
            "uuid": "e6becf75-127f-401b-a565-d4ab9762b7f0",
            "name": "Glutamine",
            "url": "https://haz-map.com/Agents/14422",
            "category": "agents"
          }
        ]
      },
      "cas_number": {
        "original_name": "CAS Number",
        "value": "56-85-9",
        "links": [],
        "cross_references": []
      },
      "formula": {
        "original_name": "Formula",
        "value": "C5-H10-N2-O3",
        "links": [],
        "cross_references": []
      },
      "major_category": {
        "original_name": "Major Category",
        "value": "Biological Agents",
        "links": [],
        "cross_references": []
      },
      "synonyms": {
        "original_name": "Synonyms",
        "value": "(S)-2,5-Diamino-5-oxopentanoic acid; 2,5-Diamino-5-oxopentanoic acid, (S)-; 2-Aminoglutaramic acid; 2-Aminoglutaramic acid, L-; Cebrogen; Glavamin; Glumin; Glumin (amino acid); Glutamic acid 5-amide; Glutamic acid amide; L-(+)-Glutamine; L-2-Aminoglutaramidic acid; L-Glutamic acid gamma-amide; L-Glutamide; L-Glutamine; Levoglutamid; Levoglutamida [INN-Spanish]; Levoglutamide; Levoglutamidum [INN-Latin]; Miglu-P; Nutrestore; Pentanoic acid, 2,5-diamino-5-oxo-, (S)-; Saforis; Stimulina; Glutamine, L-; [ChemIDplus] Gln; Q; Levoglutamina; [Merck Index]",
        "links": [],
        "cross_references": [
          {
            "type": "name_match",
            "text": "glutamic acid",
            "confidence": 1.0,
            "uuid": "dbdea175-eb1d-411e-a848-f822084191d7",
            "name": "Glutamic acid",
            "url": "https://haz-map.com/Agents/14420",
            "category": "agents"
          },
          {
            "type": "name_match",
            "text": "glutamine",
            "confidence": 1.0,
            "uuid": "e6becf75-127f-401b-a565-d4ab9762b7f0",
            "name": "Glutamine",
            "url": "https://haz-map.com/Agents/14422",
            "category": "agents"
          }
        ]
      },
      "category": {
        "original_name": "Category",
        "value": "Amino Acids and Derivatives",
        "links": [],
        "cross_references": []
      },
      "description": {
        "original_name": "Description",
        "value": "Opaque solid; [Merck Index] White powder; [Sigma-Aldrich MSDS]",
        "links": [],
        "cross_references": []
      },
      "sourcesuses": {
        "original_name": "Sources/Uses",
        "value": "A non-essential amino acid; [Merck Index] Used as a flavoring agent and nutritional supplement for foods; [FDA]",
        "links": [],
        "cross_references": []
      },
      "comments": {
        "original_name": "Comments",
        "value": "Causes effects on food intake, changes in the spleen, proteinuria, and other changes in urine composition in oral repeated-dose studies of rats; [RTECS] Safe when used as a flavoring agent in food; [JECFA] May cause irritation; [Sigma-Aldrich MSDS]",
        "links": [],
        "cross_references": [
          {
            "type": "name_match",
            "text": "proteinuria",
            "confidence": 1.0,
            "uuid": "bb0ad01f-a677-491a-bcaa-73b9314b919a",
            "name": "proteinuria",
            "url": "https://haz-map.com/Findings/79",
            "category": "findings"
          }
        ]
      },
      "biomedical_references": {
        "original_name": "Biomedical References",
        "value": "Search PubMed",
        "links": [
          {
            "text": "Search PubMed",
            "url": "https://www.ncbi.nlm.nih.gov/pubmed?term=Glutamine%20AND%20human%5Bmh%5D%20AND%20%28Occupational%20Diseases%20%5Bmh%5D%20OR%20Occupational%20Exposure%20%5Bmh%5D%29%20%20AND%20%28tox%5Bsb%5D%29&cmd=search"
          }
        ],
        "cross_references": []
      }
    },
    "exposure_assessment": {
      "vapor_pressure": {
        "original_name": "Vapor Pressure",
        "value": "1.9E-08 mm Hg",
        "links": [],
        "cross_references": []
      }
    },
    "diseases_processes_and_activities_linked_to_this_agent": {
      "other_information": {
        "original_name": "Other Information",
        "value": "No other related information on this agent was found.",
        "links": [],
        "cross_references": []
      }
    }
  },
  "cross_references": [
    {
      "type": "name_match",
      "text": "proteinuria",
      "confidence": 1.0,
      "uuid": "bb0ad01f-a677-491a-bcaa-73b9314b919a",
      "name": "proteinuria",
      "url": "https://haz-map.com/Findings/79",
      "category": "findings"
    },
    {
      "type": "name_match",
      "text": "glutamic acid",
      "confidence": 1.0,
      "uuid": "dbdea175-eb1d-411e-a848-f822084191d7",
      "name": "Glutamic acid",
      "url": "https://haz-map.com/Agents/14420",
      "category": "agents"
    },
    {
      "type": "name_match",
      "text": "glutamine",
      "confidence": 1.0,
      "uuid": "e6becf75-127f-401b-a565-d4ab9762b7f0",
      "name": "Glutamine",
      "url": "https://haz-map.com/Agents/14422",
      "category": "agents"
    }
  ],
  "all_links": [
    {
      "text": "Search PubMed",
      "url": "https://www.ncbi.nlm.nih.gov/pubmed?term=Glutamine%20AND%20human%5Bmh%5D%20AND%20%28Occupational%20Diseases%20%5Bmh%5D%20OR%20Occupational%20Exposure%20%5Bmh%5D%29%20%20AND%20%28tox%5Bsb%5D%29&cmd=search"
    }
  ]
}