{
  "metadata": {
    "scraped_from": "https://haz-map.com/Agents/1430",
    "entity_name": "Sodium hydrogen sulfide",
    "category": "agents",
    "uuid": "e6e287bf-5f4d-4c88-ba22-e9426da0d846",
    "scraped_at": "2025-07-23T18:58:52.216480"
  },
  "parsed_at": "2025-07-24T01:06:10.077906",
  "title": "Sodium hydrogen sulfide",
  "sections": {
    "general": {
      "agent_name": {
        "original_name": "Agent Name",
        "value": "Sodium hydrogen sulfide",
        "links": [],
        "cross_references": [
          {
            "type": "name_match",
            "text": "hydrogen sulfide",
            "confidence": 1.0,
            "uuid": "f19cb2ec-fb76-4caf-bf11-33b23fef9ae6",
            "name": "Hydrogen sulfide",
            "url": "https://haz-map.com/Agents/22",
            "category": "agents"
          },
          {
            "type": "name_match",
            "text": "hydrogen",
            "confidence": 1.0,
            "uuid": "e2d9645f-5559-4d88-b820-fc4710c154f2",
            "name": "Hydrogen",
            "url": "https://haz-map.com/Agents/1070",
            "category": "agents"
          },
          {
            "type": "name_match",
            "text": "sodium hydrogen sulfide",
            "confidence": 1.0,
            "uuid": "e6e287bf-5f4d-4c88-ba22-e9426da0d846",
            "name": "Sodium hydrogen sulfide",
            "url": "https://haz-map.com/Agents/1430",
            "category": "agents"
          },
          {
            "type": "name_match",
            "text": "sodium",
            "confidence": 1.0,
            "uuid": "1adffc42-a4d8-44d5-81d6-7dbd96ef8a6f",
            "name": "Sodium",
            "url": "https://haz-map.com/Agents/1527",
            "category": "agents"
          }
        ]
      },
      "alternative_name": {
        "original_name": "Alternative Name",
        "value": "Sodium bisulfide",
        "links": [],
        "cross_references": [
          {
            "type": "name_match",
            "text": "sodium",
            "confidence": 1.0,
            "uuid": "1adffc42-a4d8-44d5-81d6-7dbd96ef8a6f",
            "name": "Sodium",
            "url": "https://haz-map.com/Agents/1527",
            "category": "agents"
          }
        ]
      },
      "cas_number": {
        "original_name": "CAS Number",
        "value": "16721-80-5",
        "links": [],
        "cross_references": []
      },
      "formula": {
        "original_name": "Formula",
        "value": "H-Na-S",
        "links": [],
        "cross_references": []
      },
      "major_category": {
        "original_name": "Major Category",
        "value": "Other Classes",
        "links": [],
        "cross_references": []
      },
      "synonyms": {
        "original_name": "Synonyms",
        "value": "Sodium bisulfide; Hidrosulfuro sodics [Spanish]; Hydrogen sodium sulfide; Hydrogenosulfure de sodium [French]; Sodium hydrosulfide; Sodium mercaptan; Sodium mercaptide; Sodium sulfhydrate; Sodium sulfide; Sodium hydrogensulphide; Sodium hydrosulfide solution; Sodium hydrosulfide solution (45% or less); Sodium hydrosulfide, solution; Sodium hydrosulfide, with <25% water of crystallization; Sodium hydrosulfide, with not <25% water of crystallization; [ChemIDplus] UN2949; UN2318 (less than 25% water of crystallization)",
        "links": [],
        "cross_references": [
          {
            "type": "name_match",
            "text": "captan",
            "confidence": 1.0,
            "uuid": "19bf918c-9caa-4481-999a-002bb3395f5a",
            "name": "Captan",
            "url": "https://haz-map.com/Agents/341",
            "category": "agents"
          },
          {
            "type": "name_match",
            "text": "hydrogen",
            "confidence": 1.0,
            "uuid": "e2d9645f-5559-4d88-b820-fc4710c154f2",
            "name": "Hydrogen",
            "url": "https://haz-map.com/Agents/1070",
            "category": "agents"
          },
          {
            "type": "name_match",
            "text": "sodium sulfide",
            "confidence": 1.0,
            "uuid": "09b8b900-6e3b-4802-893d-566ff3b6b140",
            "name": "Sodium sulfide",
            "url": "https://haz-map.com/Agents/1493",
            "category": "agents"
          },
          {
            "type": "name_match",
            "text": "sodium",
            "confidence": 1.0,
            "uuid": "1adffc42-a4d8-44d5-81d6-7dbd96ef8a6f",
            "name": "Sodium",
            "url": "https://haz-map.com/Agents/1527",
            "category": "agents"
          },
          {
            "type": "name_match",
            "text": "sulfur",
            "confidence": 1.0,
            "uuid": "5aabdef6-71c8-44c8-b762-feaabff50696",
            "name": "Sulfur",
            "url": "https://haz-map.com/Agents/1942",
            "category": "agents"
          },
          {
            "type": "name_match",
            "text": "water",
            "confidence": 1.0,
            "uuid": "6f2a7557-dfd2-49bc-9b4b-a93cd8e225d4",
            "name": "Water",
            "url": "https://haz-map.com/Agents/18668",
            "category": "agents"
          }
        ]
      },
      "category": {
        "original_name": "Category",
        "value": "Sulfur Compounds",
        "links": [],
        "cross_references": [
          {
            "type": "name_match",
            "text": "sulfur",
            "confidence": 1.0,
            "uuid": "5aabdef6-71c8-44c8-b762-feaabff50696",
            "name": "Sulfur",
            "url": "https://haz-map.com/Agents/1942",
            "category": "agents"
          }
        ]
      },
      "description": {
        "original_name": "Description",
        "value": "White to colorless crystals with an odor of hydrogen sulfide; [NIOSH] Highly hygroscopic; [Merck Index] Solution is light yellow to red with an odor of rotten eggs; [CHRIS] White or yellow crystalline solid with an odor of rotten eggs; [Alfa Aesar MSDS]",
        "links": [],
        "cross_references": [
          {
            "type": "name_match",
            "text": "hydrogen sulfide",
            "confidence": 1.0,
            "uuid": "f19cb2ec-fb76-4caf-bf11-33b23fef9ae6",
            "name": "Hydrogen sulfide",
            "url": "https://haz-map.com/Agents/22",
            "category": "agents"
          },
          {
            "type": "name_match",
            "text": "hydrogen",
            "confidence": 1.0,
            "uuid": "e2d9645f-5559-4d88-b820-fc4710c154f2",
            "name": "Hydrogen",
            "url": "https://haz-map.com/Agents/1070",
            "category": "agents"
          },
          {
            "type": "name_match",
            "text": "ht",
            "confidence": 1.0,
            "uuid": "764df367-8d53-4a11-81a2-31ccfe122a8d",
            "name": "HT",
            "url": "https://haz-map.com/Agents/2168",
            "category": "agents"
          },
          {
            "type": "fuzzy_match",
            "text": "crystalline",
            "matched_name": "Silica, crystalline",
            "confidence": 0.7061403508771931,
            "uuid": "f920e8a2-46df-41b7-af8d-0368a777251e",
            "category": "agents",
            "url": "https://haz-map.com/Agents/427"
          }
        ]
      },
      "sourcesuses": {
        "original_name": "Sources/Uses",
        "value": "Used to dehair hides and to produce heavy water, paper, rayon, dyes, and other chemical products; [HSDB] Also used in paints, lacquers, varnishes, textiles, effluent treatment, water purification, and cosmetics; Also used as a corrosion inhibitor and coloring, complexing, and reducing agent; Used as a flotation agent in ore processing; [IUCLID]",
        "links": [],
        "cross_references": [
          {
            "type": "name_match",
            "text": "mica",
            "confidence": 1.0,
            "uuid": "433f26f1-c399-4596-b179-ce3843cfd465",
            "name": "Mica",
            "url": "https://haz-map.com/Agents/621",
            "category": "agents"
          },
          {
            "type": "name_match",
            "text": "water",
            "confidence": 1.0,
            "uuid": "6f2a7557-dfd2-49bc-9b4b-a93cd8e225d4",
            "name": "Water",
            "url": "https://haz-map.com/Agents/18668",
            "category": "agents"
          }
        ]
      },
      "comments": {
        "original_name": "Comments",
        "value": "Corrosive to skin; [Quick CPC] High inhalation exposure can induce pulmonary edema; Concentration of 600 ppm is lethal in 30 minutes; 800 ppm is lethal immediately; [HSDB] Evolves hydrogen sulfide gas on contact with water; Corrosive to skin, eyes, and respiratory tract; [CAMEO] Rapidly hydrolyzed in moist air forming sodium hydroxide and sodium sulfide; The product of commerce is usually the dihydrate; [Merck Index] Corrosive to skin, eyes, and respiratory tract; Inhalation may cause pulmonary edema; [ICSC] Short-term exposure causes severe skin irritation and possibly second-degree burns; Liquid can cause marked eye irritation, lachrymation, and corneal injury; [CHRIS] See \"Hydrogen sulfide.\"",
        "links": [],
        "cross_references": [
          {
            "type": "name_match",
            "text": "pulmonary edema",
            "confidence": 1.0,
            "uuid": "ee39114e-c922-40fd-9588-a532de404962",
            "name": "pulmonary edema",
            "url": "https://haz-map.com/Findings/186",
            "category": "findings"
          },
          {
            "type": "name_match",
            "text": "burn",
            "confidence": 1.0,
            "uuid": "63665de5-6376-4918-8dbf-4c10c4d63837",
            "name": "burn",
            "url": "https://haz-map.com/Findings/204",
            "category": "findings"
          },
          {
            "type": "name_match",
            "text": "hydrogen sulfide",
            "confidence": 1.0,
            "uuid": "f19cb2ec-fb76-4caf-bf11-33b23fef9ae6",
            "name": "Hydrogen sulfide",
            "url": "https://haz-map.com/Agents/22",
            "category": "agents"
          },
          {
            "type": "name_match",
            "text": "sodium hydroxide",
            "confidence": 1.0,
            "uuid": "4fb9e995-e7f4-47d6-9017-957326f69493",
            "name": "Sodium hydroxide",
            "url": "https://haz-map.com/Agents/628",
            "category": "agents"
          },
          {
            "type": "name_match",
            "text": "hydrogen",
            "confidence": 1.0,
            "uuid": "e2d9645f-5559-4d88-b820-fc4710c154f2",
            "name": "Hydrogen",
            "url": "https://haz-map.com/Agents/1070",
            "category": "agents"
          },
          {
            "type": "name_match",
            "text": "sodium sulfide",
            "confidence": 1.0,
            "uuid": "09b8b900-6e3b-4802-893d-566ff3b6b140",
            "name": "Sodium sulfide",
            "url": "https://haz-map.com/Agents/1493",
            "category": "agents"
          },
          {
            "type": "name_match",
            "text": "sodium",
            "confidence": 1.0,
            "uuid": "1adffc42-a4d8-44d5-81d6-7dbd96ef8a6f",
            "name": "Sodium",
            "url": "https://haz-map.com/Agents/1527",
            "category": "agents"
          },
          {
            "type": "name_match",
            "text": "water",
            "confidence": 1.0,
            "uuid": "6f2a7557-dfd2-49bc-9b4b-a93cd8e225d4",
            "name": "Water",
            "url": "https://haz-map.com/Agents/18668",
            "category": "agents"
          }
        ]
      },
      "biomedical_references": {
        "original_name": "Biomedical References",
        "value": "Search PubMed",
        "links": [
          {
            "text": "Search PubMed",
            "url": "https://www.ncbi.nlm.nih.gov/pubmed?term=Sodium+hydrogen+sulfide%20AND%20human%5Bmh%5D%20AND%20%28Occupational%20Diseases%20%5Bmh%5D%20OR%20Occupational%20Exposure%20%5Bmh%5D%29%20%20AND%20%28tox%5Bsb%5D%29&cmd=search"
          }
        ],
        "cross_references": []
      }
    },
    "exposure_assessment": {
      "vapor_pressure": {
        "original_name": "Vapor Pressure",
        "value": "49 mm Hg",
        "links": [],
        "cross_references": []
      },
      "odor_threshold_low": {
        "original_name": "Odor Threshold Low",
        "value": "0.0047 ppm",
        "links": [],
        "cross_references": []
      },
      "explanatory_notes": {
        "original_name": "Explanatory Notes",
        "value": "Odor threshold from CHRIS; The Guide in the Emergency Response Guidebook is for \"Sodium hydrosulfide, with not less than 25% water of crystallization.\"",
        "links": [],
        "cross_references": [
          {
            "type": "name_match",
            "text": "sodium",
            "confidence": 1.0,
            "uuid": "1adffc42-a4d8-44d5-81d6-7dbd96ef8a6f",
            "name": "Sodium",
            "url": "https://haz-map.com/Agents/1527",
            "category": "agents"
          },
          {
            "type": "name_match",
            "text": "water",
            "confidence": 1.0,
            "uuid": "6f2a7557-dfd2-49bc-9b4b-a93cd8e225d4",
            "name": "Water",
            "url": "https://haz-map.com/Agents/18668",
            "category": "agents"
          }
        ]
      }
    },
    "adverse_effects": {
      "lachrymator": {
        "original_name": "Lachrymator",
        "value": "Yes",
        "links": [],
        "cross_references": []
      },
      "toxic_pneumonitis": {
        "original_name": "Toxic Pneumonitis",
        "value": "Yes",
        "links": [],
        "cross_references": []
      },
      "dermatotoxin": {
        "original_name": "Dermatotoxin",
        "value": "Skin burns",
        "links": [],
        "cross_references": [
          {
            "type": "name_match",
            "text": "burn",
            "confidence": 1.0,
            "uuid": "63665de5-6376-4918-8dbf-4c10c4d63837",
            "name": "burn",
            "url": "https://haz-map.com/Findings/204",
            "category": "findings"
          }
        ]
      },
      "other_poison": {
        "original_name": "Other Poison",
        "value": "Chemical Asphyxiant",
        "links": [],
        "cross_references": [
          {
            "type": "name_match",
            "text": "mica",
            "confidence": 1.0,
            "uuid": "433f26f1-c399-4596-b179-ce3843cfd465",
            "name": "Mica",
            "url": "https://haz-map.com/Agents/621",
            "category": "agents"
          }
        ]
      }
    },
    "diseases_processes_and_activities_linked_to_this_agent": {
      "processes": {
        "original_name": "Processes",
        "value": "Industrial Processes with risk of exposure: Fur Dressing and Dyeing Leather Tanning and Processing Metal Extraction and Refining Painting (Pigments, Binders, and Biocides) Pulp and Paper Processing Sewer and Wastewater Treatment Textiles (Fiber & Fabric Manufacturing)",
        "links": [
          {
            "text": "Fur Dressing and Dyeing",
            "url": "https://haz-map.com/Processes/233"
          },
          {
            "text": "Leather Tanning and Processing",
            "url": "https://haz-map.com/Processes/230"
          },
          {
            "text": "Metal Extraction and Refining",
            "url": "https://haz-map.com/Processes/261"
          },
          {
            "text": "Painting (Pigments, Binders, and Biocides)",
            "url": "https://haz-map.com/Processes/145"
          },
          {
            "text": "Pulp and Paper Processing",
            "url": "https://haz-map.com/Processes/132"
          },
          {
            "text": "Sewer and Wastewater Treatment",
            "url": "https://haz-map.com/Processes/220"
          },
          {
            "text": "Textiles (Fiber & Fabric Manufacturing)",
            "url": "https://haz-map.com/Processes/135"
          }
        ],
        "cross_references": [
          {
            "type": "url_match",
            "text": "Painting (Pigments, Binders, and Biocides)",
            "url": "https://haz-map.com/Processes/145",
            "confidence": 1.0,
            "uuid": "25867878-e178-4c21-906f-d392d86b76de",
            "name": "Painting (Pigments, Binders, and Biocides)",
            "category": "processes"
          },
          {
            "type": "url_match",
            "text": "Pulp and Paper Processing",
            "url": "https://haz-map.com/Processes/132",
            "confidence": 1.0,
            "uuid": "30075079-d057-47e2-a7d8-e89bfc59d8df",
            "name": "Pulp and Paper Processing",
            "category": "processes"
          },
          {
            "type": "url_match",
            "text": "Sewer and Wastewater Treatment",
            "url": "https://haz-map.com/Processes/220",
            "confidence": 1.0,
            "uuid": "5fcac3ca-db2e-47cc-8175-126a1f3b1e1a",
            "name": "Sewer and Wastewater Treatment",
            "category": "processes"
          },
          {
            "type": "url_match",
            "text": "Textiles (Fiber & Fabric Manufacturing)",
            "url": "https://haz-map.com/Processes/135",
            "confidence": 1.0,
            "uuid": "43ebdcdb-bb09-4402-87b6-ae8cf169dddd",
            "name": "Textiles (Fiber & Fabric Manufacturing)",
            "category": "processes"
          },
          {
            "type": "name_match",
            "text": "painting",
            "confidence": 1.0,
            "uuid": "19816ce9-9edf-4a86-8e64-b0cbf7dcf520",
            "name": "Painting",
            "url": "https://haz-map.com/Activities/9",
            "category": "activities"
          },
          {
            "type": "name_match",
            "text": "water",
            "confidence": 1.0,
            "uuid": "6f2a7557-dfd2-49bc-9b4b-a93cd8e225d4",
            "name": "Water",
            "url": "https://haz-map.com/Agents/18668",
            "category": "agents"
          }
        ]
      }
    }
  },
  "cross_references": [
    {
      "type": "url_match",
      "text": "Painting (Pigments, Binders, and Biocides)",
      "url": "https://haz-map.com/Processes/145",
      "confidence": 1.0,
      "uuid": "25867878-e178-4c21-906f-d392d86b76de",
      "name": "Painting (Pigments, Binders, and Biocides)",
      "category": "processes"
    },
    {
      "type": "url_match",
      "text": "Pulp and Paper Processing",
      "url": "https://haz-map.com/Processes/132",
      "confidence": 1.0,
      "uuid": "30075079-d057-47e2-a7d8-e89bfc59d8df",
      "name": "Pulp and Paper Processing",
      "category": "processes"
    },
    {
      "type": "url_match",
      "text": "Sewer and Wastewater Treatment",
      "url": "https://haz-map.com/Processes/220",
      "confidence": 1.0,
      "uuid": "5fcac3ca-db2e-47cc-8175-126a1f3b1e1a",
      "name": "Sewer and Wastewater Treatment",
      "category": "processes"
    },
    {
      "type": "url_match",
      "text": "Textiles (Fiber & Fabric Manufacturing)",
      "url": "https://haz-map.com/Processes/135",
      "confidence": 1.0,
      "uuid": "43ebdcdb-bb09-4402-87b6-ae8cf169dddd",
      "name": "Textiles (Fiber & Fabric Manufacturing)",
      "category": "processes"
    },
    {
      "type": "name_match",
      "text": "painting",
      "confidence": 1.0,
      "uuid": "19816ce9-9edf-4a86-8e64-b0cbf7dcf520",
      "name": "Painting",
      "url": "https://haz-map.com/Activities/9",
      "category": "activities"
    },
    {
      "type": "name_match",
      "text": "pulmonary edema",
      "confidence": 1.0,
      "uuid": "ee39114e-c922-40fd-9588-a532de404962",
      "name": "pulmonary edema",
      "url": "https://haz-map.com/Findings/186",
      "category": "findings"
    },
    {
      "type": "name_match",
      "text": "burn",
      "confidence": 1.0,
      "uuid": "63665de5-6376-4918-8dbf-4c10c4d63837",
      "name": "burn",
      "url": "https://haz-map.com/Findings/204",
      "category": "findings"
    },
    {
      "type": "name_match",
      "text": "hydrogen sulfide",
      "confidence": 1.0,
      "uuid": "f19cb2ec-fb76-4caf-bf11-33b23fef9ae6",
      "name": "Hydrogen sulfide",
      "url": "https://haz-map.com/Agents/22",
      "category": "agents"
    },
    {
      "type": "name_match",
      "text": "captan",
      "confidence": 1.0,
      "uuid": "19bf918c-9caa-4481-999a-002bb3395f5a",
      "name": "Captan",
      "url": "https://haz-map.com/Agents/341",
      "category": "agents"
    },
    {
      "type": "name_match",
      "text": "mica",
      "confidence": 1.0,
      "uuid": "433f26f1-c399-4596-b179-ce3843cfd465",
      "name": "Mica",
      "url": "https://haz-map.com/Agents/621",
      "category": "agents"
    },
    {
      "type": "name_match",
      "text": "sodium hydroxide",
      "confidence": 1.0,
      "uuid": "4fb9e995-e7f4-47d6-9017-957326f69493",
      "name": "Sodium hydroxide",
      "url": "https://haz-map.com/Agents/628",
      "category": "agents"
    },
    {
      "type": "name_match",
      "text": "hydrogen",
      "confidence": 1.0,
      "uuid": "e2d9645f-5559-4d88-b820-fc4710c154f2",
      "name": "Hydrogen",
      "url": "https://haz-map.com/Agents/1070",
      "category": "agents"
    },
    {
      "type": "name_match",
      "text": "sodium hydrogen sulfide",
      "confidence": 1.0,
      "uuid": "e6e287bf-5f4d-4c88-ba22-e9426da0d846",
      "name": "Sodium hydrogen sulfide",
      "url": "https://haz-map.com/Agents/1430",
      "category": "agents"
    },
    {
      "type": "name_match",
      "text": "sodium sulfide",
      "confidence": 1.0,
      "uuid": "09b8b900-6e3b-4802-893d-566ff3b6b140",
      "name": "Sodium sulfide",
      "url": "https://haz-map.com/Agents/1493",
      "category": "agents"
    },
    {
      "type": "name_match",
      "text": "sodium",
      "confidence": 1.0,
      "uuid": "1adffc42-a4d8-44d5-81d6-7dbd96ef8a6f",
      "name": "Sodium",
      "url": "https://haz-map.com/Agents/1527",
      "category": "agents"
    },
    {
      "type": "name_match",
      "text": "sulfur",
      "confidence": 1.0,
      "uuid": "5aabdef6-71c8-44c8-b762-feaabff50696",
      "name": "Sulfur",
      "url": "https://haz-map.com/Agents/1942",
      "category": "agents"
    },
    {
      "type": "name_match",
      "text": "ht",
      "confidence": 1.0,
      "uuid": "764df367-8d53-4a11-81a2-31ccfe122a8d",
      "name": "HT",
      "url": "https://haz-map.com/Agents/2168",
      "category": "agents"
    },
    {
      "type": "name_match",
      "text": "water",
      "confidence": 1.0,
      "uuid": "6f2a7557-dfd2-49bc-9b4b-a93cd8e225d4",
      "name": "Water",
      "url": "https://haz-map.com/Agents/18668",
      "category": "agents"
    },
    {
      "type": "fuzzy_match",
      "text": "crystalline",
      "matched_name": "Silica, crystalline",
      "confidence": 0.7061403508771931,
      "uuid": "f920e8a2-46df-41b7-af8d-0368a777251e",
      "category": "agents",
      "url": "https://haz-map.com/Agents/427"
    }
  ],
  "all_links": [
    {
      "text": "Search PubMed",
      "url": "https://www.ncbi.nlm.nih.gov/pubmed?term=Sodium+hydrogen+sulfide%20AND%20human%5Bmh%5D%20AND%20%28Occupational%20Diseases%20%5Bmh%5D%20OR%20Occupational%20Exposure%20%5Bmh%5D%29%20%20AND%20%28tox%5Bsb%5D%29&cmd=search"
    },
    {
      "text": "Fur Dressing and Dyeing",
      "url": "https://haz-map.com/Processes/233"
    },
    {
      "text": "Leather Tanning and Processing",
      "url": "https://haz-map.com/Processes/230"
    },
    {
      "text": "Metal Extraction and Refining",
      "url": "https://haz-map.com/Processes/261"
    },
    {
      "text": "Painting (Pigments, Binders, and Biocides)",
      "url": "https://haz-map.com/Processes/145"
    },
    {
      "text": "Pulp and Paper Processing",
      "url": "https://haz-map.com/Processes/132"
    },
    {
      "text": "Sewer and Wastewater Treatment",
      "url": "https://haz-map.com/Processes/220"
    },
    {
      "text": "Textiles (Fiber & Fabric Manufacturing)",
      "url": "https://haz-map.com/Processes/135"
    }
  ]
}