{
  "metadata": {
    "scraped_from": "https://haz-map.com/Agents/11572",
    "entity_name": "Tetrahydrolinalool",
    "category": "agents",
    "uuid": "e7d6caf2-9d67-491d-bd33-eaea4b6f478f",
    "scraped_at": "2025-07-23T21:01:21.138376"
  },
  "parsed_at": "2025-07-24T01:03:27.910829",
  "title": "Tetrahydrolinalool",
  "sections": {
    "general": {
      "agent_name": {
        "original_name": "Agent Name",
        "value": "Tetrahydrolinalool",
        "links": [],
        "cross_references": [
          {
            "type": "name_match",
            "text": "linalool",
            "confidence": 1.0,
            "uuid": "80ec5f10-c5b1-4f76-b92a-a5553597fa8f",
            "name": "Linalool",
            "url": "https://haz-map.com/Agents/5839",
            "category": "agents"
          },
          {
            "type": "name_match",
            "text": "tetrahydrolinalool",
            "confidence": 1.0,
            "uuid": "e7d6caf2-9d67-491d-bd33-eaea4b6f478f",
            "name": "Tetrahydrolinalool",
            "url": "https://haz-map.com/Agents/11572",
            "category": "agents"
          }
        ]
      },
      "alternative_name": {
        "original_name": "Alternative Name",
        "value": "3-Octanol, 3,7-dimethyl-",
        "links": [],
        "cross_references": []
      },
      "cas_number": {
        "original_name": "CAS Number",
        "value": "78-69-3; 57706-88-4",
        "links": [],
        "cross_references": []
      },
      "formula": {
        "original_name": "Formula",
        "value": "C10-H22-O",
        "links": [],
        "cross_references": []
      },
      "major_category": {
        "original_name": "Major Category",
        "value": "Solvents",
        "links": [],
        "cross_references": []
      },
      "synonyms": {
        "original_name": "Synonyms",
        "value": "2,6-Dimethyl-6-octanol; 3,7-Dimethyloctanol-3; Linalool tetrahydride; (1)-3,7-Dimethyloctan-3-ol; 3,7-Dimethyloctan-3-ol; 3-Octanol, 3,7-dimethyl-; [ChemIDplus]",
        "links": [],
        "cross_references": [
          {
            "type": "name_match",
            "text": "linalool",
            "confidence": 1.0,
            "uuid": "80ec5f10-c5b1-4f76-b92a-a5553597fa8f",
            "name": "Linalool",
            "url": "https://haz-map.com/Agents/5839",
            "category": "agents"
          }
        ]
      },
      "category": {
        "original_name": "Category",
        "value": "Alcohols (<C12)",
        "links": [],
        "cross_references": []
      },
      "description": {
        "original_name": "Description",
        "value": "Clear colorless liquid; [EPA ChAMP: Hazard Characterization: Terpenoid Tertiary Acohols and Related Esters - 2010]",
        "links": [],
        "cross_references": []
      },
      "sourcesuses": {
        "original_name": "Sources/Uses",
        "value": "Used to make odor agents and in commercial/consumer polishes, sanitation products, soaps, and detergents; [EPA ChAMP: Hazard Characterization: Terpenoid Tertiary Acohols and Related Esters - 2010] Permitted for use as an inert ingredient in non-food pesticide products; [EPA] Used as flavoring agent or adjuvant; [FDA]",
        "links": [],
        "cross_references": []
      },
      "comments": {
        "original_name": "Comments",
        "value": "A moderate skin and eye irritant; Causes primary irritation in dermal lethal-dose studies of rabbits; Causes somnolence in oral lethal-dose studies of rats; [RTECS] Safe when used as a flavoring agent in food; [JECFA] A skin and strong eye irritant; [Sigma-Aldrich MSDS]",
        "links": [],
        "cross_references": []
      },
      "biomedical_references": {
        "original_name": "Biomedical References",
        "value": "Search PubMed",
        "links": [
          {
            "text": "Search PubMed",
            "url": "https://www.ncbi.nlm.nih.gov/pubmed?term=Tetrahydrolinalool%20AND%20human%5Bmh%5D%20AND%20%28Occupational%20Diseases%20%5Bmh%5D%20OR%20Occupational%20Exposure%20%5Bmh%5D%29%20%20AND%20%28tox%5Bsb%5D%29&cmd=search"
          }
        ],
        "cross_references": []
      }
    },
    "exposure_assessment": {
      "vapor_pressure": {
        "original_name": "Vapor Pressure",
        "value": "0.012 mm Hg",
        "links": [],
        "cross_references": []
      },
      "explanatory_notes": {
        "original_name": "Explanatory Notes",
        "value": "VP = 3 mm Hg at 20 deg C; [Sigma-Aldrich MSDS]",
        "links": [],
        "cross_references": []
      }
    },
    "adverse_effects": {
      "neurotoxin": {
        "original_name": "Neurotoxin",
        "value": "Acute solvent syndrome",
        "links": [],
        "cross_references": []
      }
    },
    "diseases_processes_and_activities_linked_to_this_agent": {
      "diseases": {
        "original_name": "Diseases",
        "value": "Occupational diseases associated with exposure to this agent: Solvents, acute toxic effect",
        "links": [
          {
            "text": "Solvents, acute toxic effect",
            "url": "https://haz-map.com/Diseases/326"
          }
        ],
        "cross_references": [
          {
            "type": "url_match",
            "text": "Solvents, acute toxic effect",
            "url": "https://haz-map.com/Diseases/326",
            "confidence": 1.0,
            "uuid": "581e90e3-9d0c-45f0-aa6c-3468c28da129",
            "name": "Solvents, acute toxic effect",
            "category": "diseases"
          }
        ]
      }
    }
  },
  "cross_references": [
    {
      "type": "url_match",
      "text": "Solvents, acute toxic effect",
      "url": "https://haz-map.com/Diseases/326",
      "confidence": 1.0,
      "uuid": "581e90e3-9d0c-45f0-aa6c-3468c28da129",
      "name": "Solvents, acute toxic effect",
      "category": "diseases"
    },
    {
      "type": "name_match",
      "text": "linalool",
      "confidence": 1.0,
      "uuid": "80ec5f10-c5b1-4f76-b92a-a5553597fa8f",
      "name": "Linalool",
      "url": "https://haz-map.com/Agents/5839",
      "category": "agents"
    },
    {
      "type": "name_match",
      "text": "tetrahydrolinalool",
      "confidence": 1.0,
      "uuid": "e7d6caf2-9d67-491d-bd33-eaea4b6f478f",
      "name": "Tetrahydrolinalool",
      "url": "https://haz-map.com/Agents/11572",
      "category": "agents"
    }
  ],
  "all_links": [
    {
      "text": "Search PubMed",
      "url": "https://www.ncbi.nlm.nih.gov/pubmed?term=Tetrahydrolinalool%20AND%20human%5Bmh%5D%20AND%20%28Occupational%20Diseases%20%5Bmh%5D%20OR%20Occupational%20Exposure%20%5Bmh%5D%29%20%20AND%20%28tox%5Bsb%5D%29&cmd=search"
    },
    {
      "text": "Solvents, acute toxic effect",
      "url": "https://haz-map.com/Diseases/326"
    }
  ]
}