{
  "metadata": {
    "scraped_from": "https://haz-map.com/Agents/285",
    "entity_name": "Allyl propyl disulfide",
    "category": "agents",
    "uuid": "e853b576-3643-4d44-be6f-a8a0669c43a4",
    "scraped_at": "2025-07-23T18:38:42.287360"
  },
  "parsed_at": "2025-07-24T00:54:27.261620",
  "title": "Allyl propyl disulfide",
  "sections": {
    "general": {
      "agent_name": {
        "original_name": "Agent Name",
        "value": "Allyl propyl disulfide",
        "links": [],
        "cross_references": [
          {
            "type": "name_match",
            "text": "allyl propyl disulfide",
            "confidence": 1.0,
            "uuid": "e853b576-3643-4d44-be6f-a8a0669c43a4",
            "name": "Allyl propyl disulfide",
            "url": "https://haz-map.com/Agents/285",
            "category": "agents"
          }
        ]
      },
      "cas_number": {
        "original_name": "CAS Number",
        "value": "2179-59-1",
        "links": [],
        "cross_references": []
      },
      "formula": {
        "original_name": "Formula",
        "value": "C6-H12-S2",
        "links": [],
        "cross_references": []
      },
      "major_category": {
        "original_name": "Major Category",
        "value": "Other Classes",
        "links": [],
        "cross_references": []
      },
      "synonyms": {
        "original_name": "Synonyms",
        "value": "4,5-Dithia-1-octene; Allyl propyl disulphide; Disulfide, 2-propenyl propyl; Disulfide, allyl propyl; Propenyl propyl disulfide; [ChemIDplus] UN8027",
        "links": [],
        "cross_references": [
          {
            "type": "name_match",
            "text": "1-octene",
            "confidence": 1.0,
            "uuid": "9bdec4f0-51e8-46da-b552-8e0804f3e980",
            "name": "1-Octene",
            "url": "https://haz-map.com/Agents/2917",
            "category": "agents"
          },
          {
            "type": "name_match",
            "text": "octene",
            "confidence": 1.0,
            "uuid": "27cad3f1-2dc5-4f69-b1a8-bd463c7c9774",
            "name": "Octene",
            "url": "https://haz-map.com/Agents/8582",
            "category": "agents"
          }
        ]
      },
      "category": {
        "original_name": "Category",
        "value": "Sulfur Compounds",
        "links": [],
        "cross_references": [
          {
            "type": "name_match",
            "text": "sulfur",
            "confidence": 1.0,
            "uuid": "5aabdef6-71c8-44c8-b762-feaabff50696",
            "name": "Sulfur",
            "url": "https://haz-map.com/Agents/1942",
            "category": "agents"
          }
        ]
      },
      "description": {
        "original_name": "Description",
        "value": "Pale-yellow liquid with a strong & irritating onion-like odor. [Note: The chief volatile component of onion oil.] [NIOSH]",
        "links": [],
        "cross_references": []
      },
      "sourcesuses": {
        "original_name": "Sources/Uses",
        "value": "The main volatile oil in onions, it is used as a food flavoring agent. [ACGIH]",
        "links": [],
        "cross_references": [
          {
            "type": "name_match",
            "text": "onions",
            "confidence": 1.0,
            "uuid": "0cea53cd-ef9b-436d-a6c3-1b3e2b0ffaae",
            "name": "Onions",
            "url": "https://haz-map.com/Agents/990",
            "category": "agents"
          }
        ]
      },
      "comments": {
        "original_name": "Comments",
        "value": "One of the allergens in garlic; [Kanerva, p. 1747] A lachrymator; [HSDB] A dermal sensitizer; [ACGIH]",
        "links": [],
        "cross_references": [
          {
            "type": "name_match",
            "text": "garlic",
            "confidence": 1.0,
            "uuid": "b7d2adf7-e077-462e-ad96-e04fd354df5f",
            "name": "Garlic",
            "url": "https://haz-map.com/Agents/892",
            "category": "agents"
          }
        ]
      },
      "reference_link_1": {
        "original_name": "Reference Link #1",
        "value": "NIOSH Occupational Health Guidelines for Chemical Hazards: Allyl propyl disulfide",
        "links": [
          {
            "text": "NIOSH Occupational Health Guidelines for Chemical Hazards: Allyl propyl disulfide",
            "url": "https://www.cdc.gov/niosh/docs/81-123/pdfs/0020.pdf?id=10.26616/NIOSHPUB81123"
          }
        ],
        "cross_references": [
          {
            "type": "name_match",
            "text": "allyl propyl disulfide",
            "confidence": 1.0,
            "uuid": "e853b576-3643-4d44-be6f-a8a0669c43a4",
            "name": "Allyl propyl disulfide",
            "url": "https://haz-map.com/Agents/285",
            "category": "agents"
          },
          {
            "type": "name_match",
            "text": "mica",
            "confidence": 1.0,
            "uuid": "433f26f1-c399-4596-b179-ce3843cfd465",
            "name": "Mica",
            "url": "https://haz-map.com/Agents/621",
            "category": "agents"
          }
        ]
      },
      "biomedical_references": {
        "original_name": "Biomedical References",
        "value": "Search PubMed",
        "links": [
          {
            "text": "Search PubMed",
            "url": "https://www.ncbi.nlm.nih.gov/pubmed?term=Allyl+propyl+disulfide%20AND%20human%5Bmh%5D%20AND%20%28Occupational%20Diseases%20%5Bmh%5D%20OR%20Occupational%20Exposure%20%5Bmh%5D%29%20%20AND%20%28tox%5Bsb%5D%29&cmd=search"
          }
        ],
        "cross_references": []
      }
    },
    "exposure_assessment": {
      "skin_designation_acgih": {
        "original_name": "Skin Designation (ACGIH)",
        "value": "Insufficient data",
        "links": [],
        "cross_references": []
      },
      "tlv_acgih": {
        "original_name": "TLV (ACGIH)",
        "value": "0.5 ppm",
        "links": [],
        "cross_references": []
      },
      "pel_osha": {
        "original_name": "PEL (OSHA)",
        "value": "2 ppm",
        "links": [],
        "cross_references": []
      },
      "mak": {
        "original_name": "MAK",
        "value": "2 ppm",
        "links": [],
        "cross_references": []
      },
      "vapor_pressure": {
        "original_name": "Vapor Pressure",
        "value": "0.39 mm Hg",
        "links": [],
        "cross_references": []
      },
      "explanatory_notes": {
        "original_name": "Explanatory Notes",
        "value": "Flash point = 133 deg F;",
        "links": [],
        "cross_references": [
          {
            "type": "name_match",
            "text": "ash",
            "confidence": 1.0,
            "uuid": "68b360f1-5ad0-4337-bea0-d7adca2961b5",
            "name": "Ash",
            "url": "https://haz-map.com/Agents/965",
            "category": "agents"
          }
        ]
      }
    },
    "adverse_effects": {
      "skin_sensitizer": {
        "original_name": "Skin Sensitizer",
        "value": "Yes",
        "links": [],
        "cross_references": []
      },
      "lachrymator": {
        "original_name": "Lachrymator",
        "value": "Yes",
        "links": [],
        "cross_references": []
      }
    },
    "diseases_processes_and_activities_linked_to_this_agent": {
      "diseases": {
        "original_name": "Diseases",
        "value": "Occupational diseases associated with exposure to this agent: Contact dermatitis, allergic",
        "links": [
          {
            "text": "Contact dermatitis, allergic",
            "url": "https://haz-map.com/Diseases/18"
          }
        ],
        "cross_references": [
          {
            "type": "url_match",
            "text": "Contact dermatitis, allergic",
            "url": "https://haz-map.com/Diseases/18",
            "confidence": 1.0,
            "uuid": "c9499de0-9aa1-41bf-8753-cd5b28a63e29",
            "name": "Contact dermatitis, allergic",
            "category": "diseases"
          },
          {
            "type": "name_match",
            "text": "dermatitis",
            "confidence": 1.0,
            "uuid": "fe9c05f2-b19f-4ceb-ac7a-ffb7d7a0cae0",
            "name": "dermatitis",
            "url": "https://haz-map.com/Findings/59",
            "category": "findings"
          }
        ]
      }
    }
  },
  "cross_references": [
    {
      "type": "url_match",
      "text": "Contact dermatitis, allergic",
      "url": "https://haz-map.com/Diseases/18",
      "confidence": 1.0,
      "uuid": "c9499de0-9aa1-41bf-8753-cd5b28a63e29",
      "name": "Contact dermatitis, allergic",
      "category": "diseases"
    },
    {
      "type": "name_match",
      "text": "dermatitis",
      "confidence": 1.0,
      "uuid": "fe9c05f2-b19f-4ceb-ac7a-ffb7d7a0cae0",
      "name": "dermatitis",
      "url": "https://haz-map.com/Findings/59",
      "category": "findings"
    },
    {
      "type": "name_match",
      "text": "allyl propyl disulfide",
      "confidence": 1.0,
      "uuid": "e853b576-3643-4d44-be6f-a8a0669c43a4",
      "name": "Allyl propyl disulfide",
      "url": "https://haz-map.com/Agents/285",
      "category": "agents"
    },
    {
      "type": "name_match",
      "text": "mica",
      "confidence": 1.0,
      "uuid": "433f26f1-c399-4596-b179-ce3843cfd465",
      "name": "Mica",
      "url": "https://haz-map.com/Agents/621",
      "category": "agents"
    },
    {
      "type": "name_match",
      "text": "garlic",
      "confidence": 1.0,
      "uuid": "b7d2adf7-e077-462e-ad96-e04fd354df5f",
      "name": "Garlic",
      "url": "https://haz-map.com/Agents/892",
      "category": "agents"
    },
    {
      "type": "name_match",
      "text": "ash",
      "confidence": 1.0,
      "uuid": "68b360f1-5ad0-4337-bea0-d7adca2961b5",
      "name": "Ash",
      "url": "https://haz-map.com/Agents/965",
      "category": "agents"
    },
    {
      "type": "name_match",
      "text": "onions",
      "confidence": 1.0,
      "uuid": "0cea53cd-ef9b-436d-a6c3-1b3e2b0ffaae",
      "name": "Onions",
      "url": "https://haz-map.com/Agents/990",
      "category": "agents"
    },
    {
      "type": "name_match",
      "text": "sulfur",
      "confidence": 1.0,
      "uuid": "5aabdef6-71c8-44c8-b762-feaabff50696",
      "name": "Sulfur",
      "url": "https://haz-map.com/Agents/1942",
      "category": "agents"
    },
    {
      "type": "name_match",
      "text": "1-octene",
      "confidence": 1.0,
      "uuid": "9bdec4f0-51e8-46da-b552-8e0804f3e980",
      "name": "1-Octene",
      "url": "https://haz-map.com/Agents/2917",
      "category": "agents"
    },
    {
      "type": "name_match",
      "text": "octene",
      "confidence": 1.0,
      "uuid": "27cad3f1-2dc5-4f69-b1a8-bd463c7c9774",
      "name": "Octene",
      "url": "https://haz-map.com/Agents/8582",
      "category": "agents"
    }
  ],
  "all_links": [
    {
      "text": "NIOSH Occupational Health Guidelines for Chemical Hazards: Allyl propyl disulfide",
      "url": "https://www.cdc.gov/niosh/docs/81-123/pdfs/0020.pdf?id=10.26616/NIOSHPUB81123"
    },
    {
      "text": "Search PubMed",
      "url": "https://www.ncbi.nlm.nih.gov/pubmed?term=Allyl+propyl+disulfide%20AND%20human%5Bmh%5D%20AND%20%28Occupational%20Diseases%20%5Bmh%5D%20OR%20Occupational%20Exposure%20%5Bmh%5D%29%20%20AND%20%28tox%5Bsb%5D%29&cmd=search"
    },
    {
      "text": "Contact dermatitis, allergic",
      "url": "https://haz-map.com/Diseases/18"
    }
  ]
}