{
  "metadata": {
    "scraped_from": "https://haz-map.com/Agents/14991",
    "entity_name": "Isopropyl beta-D-thiogalactopyranoside",
    "category": "agents",
    "uuid": "e96fd6c6-cb27-460e-95af-79c369b06a70",
    "scraped_at": "2025-07-23T21:27:45.170029"
  },
  "parsed_at": "2025-07-24T01:07:30.393295",
  "title": "Isopropyl beta-D-thiogalactopyranoside",
  "sections": {
    "general": {
      "agent_name": {
        "original_name": "Agent Name",
        "value": "Isopropyl beta-D-thiogalactopyranoside",
        "links": [],
        "cross_references": [
          {
            "type": "name_match",
            "text": "isopropyl beta-d-thiogalactopyranoside",
            "confidence": 1.0,
            "uuid": "e96fd6c6-cb27-460e-95af-79c369b06a70",
            "name": "Isopropyl beta-D-thiogalactopyranoside",
            "url": "https://haz-map.com/Agents/14991",
            "category": "agents"
          }
        ]
      },
      "alternative_name": {
        "original_name": "Alternative Name",
        "value": "IPTG",
        "links": [],
        "cross_references": []
      },
      "cas_number": {
        "original_name": "CAS Number",
        "value": "367-93-1",
        "links": [],
        "cross_references": []
      },
      "formula": {
        "original_name": "Formula",
        "value": "C9-H18-O5-S",
        "links": [],
        "cross_references": []
      },
      "major_category": {
        "original_name": "Major Category",
        "value": "Other Uses",
        "links": [],
        "cross_references": []
      },
      "synonyms": {
        "original_name": "Synonyms",
        "value": "Isopropyl thiogalactoside; IPTG; Isopropyl beta- thiogalactoside; Isopropyl beta-D-thiogalactoside; Isopropyl-beta-D-thiogalactopyranoside; Isopropyl-beta-D-thiogalactoside; beta-D-Galactopyranoside, 1-methylethyl 1-thio-; [ChemIDplus] 1-Methylethyl 1-thio-beta-D-galactopyranoside; [Merck Index]",
        "links": [],
        "cross_references": []
      },
      "category": {
        "original_name": "Category",
        "value": "Biochemical Research",
        "links": [],
        "cross_references": [
          {
            "type": "name_match",
            "text": "mica",
            "confidence": 1.0,
            "uuid": "433f26f1-c399-4596-b179-ce3843cfd465",
            "name": "Mica",
            "url": "https://haz-map.com/Agents/621",
            "category": "agents"
          }
        ]
      },
      "description": {
        "original_name": "Description",
        "value": "White solid with an odor of sulfur; [Promega MSDS]",
        "links": [],
        "cross_references": [
          {
            "type": "name_match",
            "text": "sulfur",
            "confidence": 1.0,
            "uuid": "5aabdef6-71c8-44c8-b762-feaabff50696",
            "name": "Sulfur",
            "url": "https://haz-map.com/Agents/1942",
            "category": "agents"
          }
        ]
      },
      "sourcesuses": {
        "original_name": "Sources/Uses",
        "value": "Used to induce protein synthesis and to detect lac gene activity; [Merck Index] \"This compound is used as a molecular mimic of allolactose, a lactose metabolite that triggers transcription of the lac operon.\" [Wikipedia]",
        "links": [],
        "cross_references": [
          {
            "type": "name_match",
            "text": "lactose",
            "confidence": 1.0,
            "uuid": "a9f8c81c-bfa0-43e4-a9eb-6e39fa70ab2c",
            "name": "Lactose",
            "url": "https://haz-map.com/Agents/15057",
            "category": "agents"
          }
        ]
      },
      "comments": {
        "original_name": "Comments",
        "value": "An eye irritant; Harmful by ingestion; May cause liver and kidney injury; [Promega MSDS]",
        "links": [],
        "cross_references": []
      },
      "biomedical_references": {
        "original_name": "Biomedical References",
        "value": "Search PubMed",
        "links": [
          {
            "text": "Search PubMed",
            "url": "https://www.ncbi.nlm.nih.gov/pubmed?term=Isopropyl+beta-D-thiogalactopyranoside%20AND%20human%5Bmh%5D%20AND%20%28Occupational%20Diseases%20%5Bmh%5D%20OR%20Occupational%20Exposure%20%5Bmh%5D%29%20%20AND%20%28tox%5Bsb%5D%29&cmd=search"
          }
        ],
        "cross_references": []
      }
    },
    "exposure_assessment": {
      "vapor_pressure": {
        "original_name": "Vapor Pressure",
        "value": "1.65E-09 mm Hg",
        "links": [],
        "cross_references": []
      }
    },
    "diseases_processes_and_activities_linked_to_this_agent": {
      "other_information": {
        "original_name": "Other Information",
        "value": "No other related information on this agent was found.",
        "links": [],
        "cross_references": []
      }
    }
  },
  "cross_references": [
    {
      "type": "name_match",
      "text": "mica",
      "confidence": 1.0,
      "uuid": "433f26f1-c399-4596-b179-ce3843cfd465",
      "name": "Mica",
      "url": "https://haz-map.com/Agents/621",
      "category": "agents"
    },
    {
      "type": "name_match",
      "text": "sulfur",
      "confidence": 1.0,
      "uuid": "5aabdef6-71c8-44c8-b762-feaabff50696",
      "name": "Sulfur",
      "url": "https://haz-map.com/Agents/1942",
      "category": "agents"
    },
    {
      "type": "name_match",
      "text": "isopropyl beta-d-thiogalactopyranoside",
      "confidence": 1.0,
      "uuid": "e96fd6c6-cb27-460e-95af-79c369b06a70",
      "name": "Isopropyl beta-D-thiogalactopyranoside",
      "url": "https://haz-map.com/Agents/14991",
      "category": "agents"
    },
    {
      "type": "name_match",
      "text": "lactose",
      "confidence": 1.0,
      "uuid": "a9f8c81c-bfa0-43e4-a9eb-6e39fa70ab2c",
      "name": "Lactose",
      "url": "https://haz-map.com/Agents/15057",
      "category": "agents"
    }
  ],
  "all_links": [
    {
      "text": "Search PubMed",
      "url": "https://www.ncbi.nlm.nih.gov/pubmed?term=Isopropyl+beta-D-thiogalactopyranoside%20AND%20human%5Bmh%5D%20AND%20%28Occupational%20Diseases%20%5Bmh%5D%20OR%20Occupational%20Exposure%20%5Bmh%5D%29%20%20AND%20%28tox%5Bsb%5D%29&cmd=search"
    }
  ]
}