{
  "metadata": {
    "scraped_from": "https://haz-map.com/Agents/21365",
    "entity_name": "Benzylaniline",
    "category": "agents",
    "uuid": "e98698db-79df-420b-8109-46c563788c19",
    "scraped_at": "2025-07-23T22:42:39.165315"
  },
  "parsed_at": "2025-07-24T01:00:09.157321",
  "title": "Benzylaniline",
  "sections": {
    "general": {
      "agent_name": {
        "original_name": "Agent Name",
        "value": "Benzylaniline",
        "links": [],
        "cross_references": [
          {
            "type": "name_match",
            "text": "aniline",
            "confidence": 1.0,
            "uuid": "e4932692-8d9c-4a98-8c5c-81e55b12aedf",
            "name": "Aniline",
            "url": "https://haz-map.com/Agents/296",
            "category": "agents"
          },
          {
            "type": "name_match",
            "text": "benzylaniline",
            "confidence": 1.0,
            "uuid": "e98698db-79df-420b-8109-46c563788c19",
            "name": "Benzylaniline",
            "url": "https://haz-map.com/Agents/21365",
            "category": "agents"
          }
        ]
      },
      "cas_number": {
        "original_name": "CAS Number",
        "value": "103-32-2",
        "links": [],
        "cross_references": []
      },
      "formula": {
        "original_name": "Formula",
        "value": "C13-H13-N",
        "links": [],
        "cross_references": []
      },
      "major_category": {
        "original_name": "Major Category",
        "value": "Nitrogen Compounds",
        "links": [],
        "cross_references": [
          {
            "type": "name_match",
            "text": "nitrogen",
            "confidence": 1.0,
            "uuid": "db5e90a9-06d2-45b9-8b81-f345a89b0bc0",
            "name": "Nitrogen",
            "url": "https://haz-map.com/Agents/1072",
            "category": "agents"
          }
        ]
      },
      "synonyms": {
        "original_name": "Synonyms",
        "value": "Aniline, N-benzyl-; Benzenamine, N-(phenylmethyl)-; Benzylphenylamine; N-Monobenzylaniline; Phenylbenzylamine; Benzenemethanamine, N-phenyl-; Benzylamine, N-phenyl- (8CI); N-Benzylaniline; [ChemIDplus] N-Phenylbenzenemethanamine; N-Phenylbenzylamine; [Merck Index]",
        "links": [],
        "cross_references": [
          {
            "type": "name_match",
            "text": "benzene",
            "confidence": 1.0,
            "uuid": "b05124de-5f34-4c14-8f04-ccb20c3780d9",
            "name": "Benzene",
            "url": "https://haz-map.com/Agents/5",
            "category": "agents"
          },
          {
            "type": "name_match",
            "text": "aniline",
            "confidence": 1.0,
            "uuid": "e4932692-8d9c-4a98-8c5c-81e55b12aedf",
            "name": "Aniline",
            "url": "https://haz-map.com/Agents/296",
            "category": "agents"
          },
          {
            "type": "name_match",
            "text": "benzylamine",
            "confidence": 1.0,
            "uuid": "e3ff102c-c372-46ae-ab9f-a1fd3d630249",
            "name": "Benzylamine",
            "url": "https://haz-map.com/Agents/1380",
            "category": "agents"
          },
          {
            "type": "name_match",
            "text": "benzylaniline",
            "confidence": 1.0,
            "uuid": "e98698db-79df-420b-8109-46c563788c19",
            "name": "Benzylaniline",
            "url": "https://haz-map.com/Agents/21365",
            "category": "agents"
          }
        ]
      },
      "category": {
        "original_name": "Category",
        "value": "Amines, Polyaromatic",
        "links": [],
        "cross_references": []
      },
      "description": {
        "original_name": "Description",
        "value": "Solid; mp = 37-38 deg C; [Merck Index] Yellow solidified mass or fragments; mp = 35-38 deg C; [Sigma-Aldrich MSDS]",
        "links": [],
        "cross_references": []
      },
      "sourcesuses": {
        "original_name": "Sources/Uses",
        "value": "\"Major metabolite of antazoline.\" [ChemIDplus]",
        "links": [],
        "cross_references": []
      },
      "comments": {
        "original_name": "Comments",
        "value": "A skin and strong eye irritant; [Sigma-Aldrich MSDS] See \"Diphenylamine\" and \"N-Ethyl-N-benzylaniline.\"",
        "links": [],
        "cross_references": [
          {
            "type": "name_match",
            "text": "aniline",
            "confidence": 1.0,
            "uuid": "e4932692-8d9c-4a98-8c5c-81e55b12aedf",
            "name": "Aniline",
            "url": "https://haz-map.com/Agents/296",
            "category": "agents"
          },
          {
            "type": "name_match",
            "text": "diphenylamine",
            "confidence": 1.0,
            "uuid": "3f92d416-f15a-456f-86a5-60c536b4229b",
            "name": "Diphenylamine",
            "url": "https://haz-map.com/Agents/471",
            "category": "agents"
          },
          {
            "type": "name_match",
            "text": "n-ethyl-n-benzylaniline",
            "confidence": 1.0,
            "uuid": "4cf22fd8-413f-4192-baf5-2fd3627433fc",
            "name": "N-Ethyl-N-benzylaniline",
            "url": "https://haz-map.com/Agents/6232",
            "category": "agents"
          },
          {
            "type": "name_match",
            "text": "benzylaniline",
            "confidence": 1.0,
            "uuid": "e98698db-79df-420b-8109-46c563788c19",
            "name": "Benzylaniline",
            "url": "https://haz-map.com/Agents/21365",
            "category": "agents"
          }
        ]
      },
      "biomedical_references": {
        "original_name": "Biomedical References",
        "value": "Search PubMed",
        "links": [
          {
            "text": "Search PubMed",
            "url": "https://www.ncbi.nlm.nih.gov/pubmed?term=Benzylaniline%20AND%20human%5Bmh%5D%20AND%20%28Occupational%20Diseases%20%5Bmh%5D%20OR%20Occupational%20Exposure%20%5Bmh%5D%29%20%20AND%20%28tox%5Bsb%5D%29&cmd=search"
          }
        ],
        "cross_references": []
      }
    },
    "exposure_assessment": {
      "vapor_pressure": {
        "original_name": "Vapor Pressure",
        "value": "0.000913 mm Hg",
        "links": [],
        "cross_references": []
      }
    },
    "diseases_processes_and_activities_linked_to_this_agent": {
      "other_information": {
        "original_name": "Other Information",
        "value": "No other related information on this agent was found.",
        "links": [],
        "cross_references": []
      }
    }
  },
  "cross_references": [
    {
      "type": "name_match",
      "text": "benzene",
      "confidence": 1.0,
      "uuid": "b05124de-5f34-4c14-8f04-ccb20c3780d9",
      "name": "Benzene",
      "url": "https://haz-map.com/Agents/5",
      "category": "agents"
    },
    {
      "type": "name_match",
      "text": "aniline",
      "confidence": 1.0,
      "uuid": "e4932692-8d9c-4a98-8c5c-81e55b12aedf",
      "name": "Aniline",
      "url": "https://haz-map.com/Agents/296",
      "category": "agents"
    },
    {
      "type": "name_match",
      "text": "diphenylamine",
      "confidence": 1.0,
      "uuid": "3f92d416-f15a-456f-86a5-60c536b4229b",
      "name": "Diphenylamine",
      "url": "https://haz-map.com/Agents/471",
      "category": "agents"
    },
    {
      "type": "name_match",
      "text": "nitrogen",
      "confidence": 1.0,
      "uuid": "db5e90a9-06d2-45b9-8b81-f345a89b0bc0",
      "name": "Nitrogen",
      "url": "https://haz-map.com/Agents/1072",
      "category": "agents"
    },
    {
      "type": "name_match",
      "text": "benzylamine",
      "confidence": 1.0,
      "uuid": "e3ff102c-c372-46ae-ab9f-a1fd3d630249",
      "name": "Benzylamine",
      "url": "https://haz-map.com/Agents/1380",
      "category": "agents"
    },
    {
      "type": "name_match",
      "text": "n-ethyl-n-benzylaniline",
      "confidence": 1.0,
      "uuid": "4cf22fd8-413f-4192-baf5-2fd3627433fc",
      "name": "N-Ethyl-N-benzylaniline",
      "url": "https://haz-map.com/Agents/6232",
      "category": "agents"
    },
    {
      "type": "name_match",
      "text": "benzylaniline",
      "confidence": 1.0,
      "uuid": "e98698db-79df-420b-8109-46c563788c19",
      "name": "Benzylaniline",
      "url": "https://haz-map.com/Agents/21365",
      "category": "agents"
    }
  ],
  "all_links": [
    {
      "text": "Search PubMed",
      "url": "https://www.ncbi.nlm.nih.gov/pubmed?term=Benzylaniline%20AND%20human%5Bmh%5D%20AND%20%28Occupational%20Diseases%20%5Bmh%5D%20OR%20Occupational%20Exposure%20%5Bmh%5D%29%20%20AND%20%28tox%5Bsb%5D%29&cmd=search"
    }
  ]
}