{
  "metadata": {
    "scraped_from": "https://haz-map.com/Agents/2903",
    "entity_name": "1-Methylpyrene",
    "category": "agents",
    "uuid": "e9c25ed3-b806-4fda-a7fd-aa7006965058",
    "scraped_at": "2025-07-23T19:20:42.957018"
  },
  "parsed_at": "2025-07-24T00:52:31.288752",
  "title": "1-Methylpyrene",
  "sections": {
    "general": {
      "agent_name": {
        "original_name": "Agent Name",
        "value": "1-Methylpyrene",
        "links": [],
        "cross_references": [
          {
            "type": "name_match",
            "text": "1-methylpyrene",
            "confidence": 1.0,
            "uuid": "e9c25ed3-b806-4fda-a7fd-aa7006965058",
            "name": "1-Methylpyrene",
            "url": "https://haz-map.com/Agents/2903",
            "category": "agents"
          },
          {
            "type": "name_match",
            "text": "pyrene",
            "confidence": 1.0,
            "uuid": "42ce584a-71be-48d4-a37b-0b0a23822638",
            "name": "Pyrene",
            "url": "https://haz-map.com/Agents/7862",
            "category": "agents"
          }
        ]
      },
      "cas_number": {
        "original_name": "CAS Number",
        "value": "2381-21-7",
        "links": [],
        "cross_references": []
      },
      "formula": {
        "original_name": "Formula",
        "value": "C17-H12",
        "links": [],
        "cross_references": []
      },
      "major_category": {
        "original_name": "Major Category",
        "value": "Other Classes",
        "links": [],
        "cross_references": []
      },
      "synonyms": {
        "original_name": "Synonyms",
        "value": "3-Methylpyrene; Pyrene, 1-methyl-; [ChemIDplus]",
        "links": [],
        "cross_references": [
          {
            "type": "name_match",
            "text": "pyrene",
            "confidence": 1.0,
            "uuid": "42ce584a-71be-48d4-a37b-0b0a23822638",
            "name": "Pyrene",
            "url": "https://haz-map.com/Agents/7862",
            "category": "agents"
          }
        ]
      },
      "category": {
        "original_name": "Category",
        "value": "Polycyclic Aromatic Hydrocarbons",
        "links": [],
        "cross_references": [
          {
            "type": "name_match",
            "text": "polycyclic aromatic hydrocarbons",
            "confidence": 1.0,
            "uuid": "0f103271-339e-42e1-80e3-bf90a8be7084",
            "name": "POLYCYCLIC AROMATIC HYDROCARBONS",
            "url": "https://haz-map.com/Agents/720",
            "category": "agents"
          },
          {
            "type": "name_match",
            "text": "carbon",
            "confidence": 1.0,
            "uuid": "b53f8815-ee80-40ef-b4aa-3b000e17dab5",
            "name": "Carbon",
            "url": "https://haz-map.com/Agents/1891",
            "category": "agents"
          },
          {
            "type": "fuzzy_match",
            "text": "aromatic hydrocarbons",
            "matched_name": "Aromatic hydrocarbons, C9-C11",
            "confidence": 0.7509578544061303,
            "uuid": "1e86d79b-784d-40c4-8412-39a4432a7a75",
            "category": "agents",
            "url": "https://haz-map.com/Agents/20258"
          },
          {
            "type": "fuzzy_match",
            "text": "hydrocarbons",
            "matched_name": "Hydrocarbons, C>3",
            "confidence": 0.7100840336134454,
            "uuid": "8eaa37ac-3931-44e4-9242-2734127fd661",
            "category": "agents",
            "url": "https://haz-map.com/Agents/14795"
          }
        ]
      },
      "description": {
        "original_name": "Description",
        "value": "Brown-green solid; [CAMEO] Off-white crystalline solid; [MSDSonline]",
        "links": [],
        "cross_references": [
          {
            "type": "fuzzy_match",
            "text": "crystalline",
            "matched_name": "Silica, crystalline",
            "confidence": 0.7061403508771931,
            "uuid": "f920e8a2-46df-41b7-af8d-0368a777251e",
            "category": "agents",
            "url": "https://haz-map.com/Agents/427"
          }
        ]
      },
      "sourcesuses": {
        "original_name": "Sources/Uses",
        "value": "\"Coal tar pitch volatiles are products of the distillation of bituminous coal and contain polynuclear aromatic hydrocarbons.\" Low concentrations of 1-methylpyrene have been measured in diesel exhausts, coal combustion, industrial sediment, contaminated soil, urban air, charcoal grilling, mesquite smoke, hickory smoke, aluminum anode plant emissions, vegetable oils, lettuce, fish, mussels, and the common elder duck; [HSDB]",
        "links": [],
        "cross_references": [
          {
            "type": "name_match",
            "text": "coal tar pitch volatiles",
            "confidence": 1.0,
            "uuid": "24e5c68c-274d-445c-8458-01ecdd2570e4",
            "name": "Coal tar pitch volatiles",
            "url": "https://haz-map.com/Agents/90",
            "category": "agents"
          },
          {
            "type": "name_match",
            "text": "aluminum",
            "confidence": 1.0,
            "uuid": "60ab7471-1af2-4a33-b727-63fa1e1fa189",
            "name": "Aluminum",
            "url": "https://haz-map.com/Agents/287",
            "category": "agents"
          },
          {
            "type": "name_match",
            "text": "diesel exhaust",
            "confidence": 1.0,
            "uuid": "8d0c0fec-8bfb-4fe6-9968-5d1934a8b5b2",
            "name": "Diesel exhaust",
            "url": "https://haz-map.com/Agents/453",
            "category": "agents"
          },
          {
            "type": "name_match",
            "text": "coal tar",
            "confidence": 1.0,
            "uuid": "df40f58d-45ab-44c5-8e73-a9916bba6e2c",
            "name": "Coal tar",
            "url": "https://haz-map.com/Agents/1575",
            "category": "agents"
          },
          {
            "type": "name_match",
            "text": "carbon",
            "confidence": 1.0,
            "uuid": "b53f8815-ee80-40ef-b4aa-3b000e17dab5",
            "name": "Carbon",
            "url": "https://haz-map.com/Agents/1891",
            "category": "agents"
          },
          {
            "type": "name_match",
            "text": "1-methylpyrene",
            "confidence": 1.0,
            "uuid": "e9c25ed3-b806-4fda-a7fd-aa7006965058",
            "name": "1-Methylpyrene",
            "url": "https://haz-map.com/Agents/2903",
            "category": "agents"
          },
          {
            "type": "name_match",
            "text": "pyrene",
            "confidence": 1.0,
            "uuid": "42ce584a-71be-48d4-a37b-0b0a23822638",
            "name": "Pyrene",
            "url": "https://haz-map.com/Agents/7862",
            "category": "agents"
          },
          {
            "type": "name_match",
            "text": "vegetable oil",
            "confidence": 1.0,
            "uuid": "c24688f8-f00d-4b95-97a7-7b5569d8e87c",
            "name": "Vegetable oil",
            "url": "https://haz-map.com/Agents/18627",
            "category": "agents"
          },
          {
            "type": "fuzzy_match",
            "text": "aromatic hydrocarbons",
            "matched_name": "Aromatic hydrocarbons, C9-C11",
            "confidence": 0.7509578544061303,
            "uuid": "1e86d79b-784d-40c4-8412-39a4432a7a75",
            "category": "agents",
            "url": "https://haz-map.com/Agents/20258"
          },
          {
            "type": "fuzzy_match",
            "text": "hydrocarbons",
            "matched_name": "Hydrocarbons, C>3",
            "confidence": 0.7100840336134454,
            "uuid": "8eaa37ac-3931-44e4-9242-2734127fd661",
            "category": "agents",
            "url": "https://haz-map.com/Agents/14795"
          }
        ]
      },
      "comments": {
        "original_name": "Comments",
        "value": "Causes liver tumors in mice after intraperitoneal injections; [RTECS] May cause irritation; [MSDSonline] See \"POLYCYCLIC AROMATIC HYDROCARBONS.\" See \"Coal tar pitch volatiles.\"",
        "links": [],
        "cross_references": [
          {
            "type": "name_match",
            "text": "coal tar pitch volatiles",
            "confidence": 1.0,
            "uuid": "24e5c68c-274d-445c-8458-01ecdd2570e4",
            "name": "Coal tar pitch volatiles",
            "url": "https://haz-map.com/Agents/90",
            "category": "agents"
          },
          {
            "type": "name_match",
            "text": "polycyclic aromatic hydrocarbons",
            "confidence": 1.0,
            "uuid": "0f103271-339e-42e1-80e3-bf90a8be7084",
            "name": "POLYCYCLIC AROMATIC HYDROCARBONS",
            "url": "https://haz-map.com/Agents/720",
            "category": "agents"
          },
          {
            "type": "name_match",
            "text": "coal tar",
            "confidence": 1.0,
            "uuid": "df40f58d-45ab-44c5-8e73-a9916bba6e2c",
            "name": "Coal tar",
            "url": "https://haz-map.com/Agents/1575",
            "category": "agents"
          },
          {
            "type": "name_match",
            "text": "carbon",
            "confidence": 1.0,
            "uuid": "b53f8815-ee80-40ef-b4aa-3b000e17dab5",
            "name": "Carbon",
            "url": "https://haz-map.com/Agents/1891",
            "category": "agents"
          },
          {
            "type": "fuzzy_match",
            "text": "aromatic hydrocarbons",
            "matched_name": "Aromatic hydrocarbons, C9-C11",
            "confidence": 0.7509578544061303,
            "uuid": "1e86d79b-784d-40c4-8412-39a4432a7a75",
            "category": "agents",
            "url": "https://haz-map.com/Agents/20258"
          },
          {
            "type": "fuzzy_match",
            "text": "hydrocarbons",
            "matched_name": "Hydrocarbons, C>3",
            "confidence": 0.7100840336134454,
            "uuid": "8eaa37ac-3931-44e4-9242-2734127fd661",
            "category": "agents",
            "url": "https://haz-map.com/Agents/14795"
          }
        ]
      },
      "biomedical_references": {
        "original_name": "Biomedical References",
        "value": "Search PubMed",
        "links": [
          {
            "text": "Search PubMed",
            "url": "https://www.ncbi.nlm.nih.gov/pubmed?term=1-Methylpyrene%20AND%20human%5Bmh%5D%20AND%20%28Occupational%20Diseases%20%5Bmh%5D%20OR%20Occupational%20Exposure%20%5Bmh%5D%29%20%20AND%20%28tox%5Bsb%5D%29&cmd=search"
          }
        ],
        "cross_references": []
      }
    },
    "exposure_assessment": {
      "vapor_pressure": {
        "original_name": "Vapor Pressure",
        "value": "1.75E-06 mm Hg",
        "links": [],
        "cross_references": []
      }
    },
    "diseases_processes_and_activities_linked_to_this_agent": {
      "other_information": {
        "original_name": "Other Information",
        "value": "No other related information on this agent was found.",
        "links": [],
        "cross_references": []
      }
    }
  },
  "cross_references": [
    {
      "type": "name_match",
      "text": "coal tar pitch volatiles",
      "confidence": 1.0,
      "uuid": "24e5c68c-274d-445c-8458-01ecdd2570e4",
      "name": "Coal tar pitch volatiles",
      "url": "https://haz-map.com/Agents/90",
      "category": "agents"
    },
    {
      "type": "name_match",
      "text": "aluminum",
      "confidence": 1.0,
      "uuid": "60ab7471-1af2-4a33-b727-63fa1e1fa189",
      "name": "Aluminum",
      "url": "https://haz-map.com/Agents/287",
      "category": "agents"
    },
    {
      "type": "name_match",
      "text": "diesel exhaust",
      "confidence": 1.0,
      "uuid": "8d0c0fec-8bfb-4fe6-9968-5d1934a8b5b2",
      "name": "Diesel exhaust",
      "url": "https://haz-map.com/Agents/453",
      "category": "agents"
    },
    {
      "type": "name_match",
      "text": "polycyclic aromatic hydrocarbons",
      "confidence": 1.0,
      "uuid": "0f103271-339e-42e1-80e3-bf90a8be7084",
      "name": "POLYCYCLIC AROMATIC HYDROCARBONS",
      "url": "https://haz-map.com/Agents/720",
      "category": "agents"
    },
    {
      "type": "name_match",
      "text": "coal tar",
      "confidence": 1.0,
      "uuid": "df40f58d-45ab-44c5-8e73-a9916bba6e2c",
      "name": "Coal tar",
      "url": "https://haz-map.com/Agents/1575",
      "category": "agents"
    },
    {
      "type": "name_match",
      "text": "carbon",
      "confidence": 1.0,
      "uuid": "b53f8815-ee80-40ef-b4aa-3b000e17dab5",
      "name": "Carbon",
      "url": "https://haz-map.com/Agents/1891",
      "category": "agents"
    },
    {
      "type": "name_match",
      "text": "1-methylpyrene",
      "confidence": 1.0,
      "uuid": "e9c25ed3-b806-4fda-a7fd-aa7006965058",
      "name": "1-Methylpyrene",
      "url": "https://haz-map.com/Agents/2903",
      "category": "agents"
    },
    {
      "type": "name_match",
      "text": "pyrene",
      "confidence": 1.0,
      "uuid": "42ce584a-71be-48d4-a37b-0b0a23822638",
      "name": "Pyrene",
      "url": "https://haz-map.com/Agents/7862",
      "category": "agents"
    },
    {
      "type": "name_match",
      "text": "vegetable oil",
      "confidence": 1.0,
      "uuid": "c24688f8-f00d-4b95-97a7-7b5569d8e87c",
      "name": "Vegetable oil",
      "url": "https://haz-map.com/Agents/18627",
      "category": "agents"
    },
    {
      "type": "fuzzy_match",
      "text": "aromatic hydrocarbons",
      "matched_name": "Aromatic hydrocarbons, C9-C11",
      "confidence": 0.7509578544061303,
      "uuid": "1e86d79b-784d-40c4-8412-39a4432a7a75",
      "category": "agents",
      "url": "https://haz-map.com/Agents/20258"
    },
    {
      "type": "fuzzy_match",
      "text": "hydrocarbons",
      "matched_name": "Hydrocarbons, C>3",
      "confidence": 0.7100840336134454,
      "uuid": "8eaa37ac-3931-44e4-9242-2734127fd661",
      "category": "agents",
      "url": "https://haz-map.com/Agents/14795"
    },
    {
      "type": "fuzzy_match",
      "text": "crystalline",
      "matched_name": "Silica, crystalline",
      "confidence": 0.7061403508771931,
      "uuid": "f920e8a2-46df-41b7-af8d-0368a777251e",
      "category": "agents",
      "url": "https://haz-map.com/Agents/427"
    }
  ],
  "all_links": [
    {
      "text": "Search PubMed",
      "url": "https://www.ncbi.nlm.nih.gov/pubmed?term=1-Methylpyrene%20AND%20human%5Bmh%5D%20AND%20%28Occupational%20Diseases%20%5Bmh%5D%20OR%20Occupational%20Exposure%20%5Bmh%5D%29%20%20AND%20%28tox%5Bsb%5D%29&cmd=search"
    }
  ]
}