{
  "metadata": {
    "scraped_from": "https://haz-map.com/Agents/4948",
    "entity_name": "Dimethyl hexahydroterephthalate",
    "category": "agents",
    "uuid": "ea40c8ce-80bc-42df-956b-b649e35c53ae",
    "scraped_at": "2025-07-23T19:47:05.340988"
  },
  "parsed_at": "2025-07-24T00:52:07.422794",
  "title": "Dimethyl hexahydroterephthalate",
  "sections": {
    "general": {
      "agent_name": {
        "original_name": "Agent Name",
        "value": "Dimethyl hexahydroterephthalate",
        "links": [],
        "cross_references": [
          {
            "type": "name_match",
            "text": "ht",
            "confidence": 1.0,
            "uuid": "764df367-8d53-4a11-81a2-31ccfe122a8d",
            "name": "HT",
            "url": "https://haz-map.com/Agents/2168",
            "category": "agents"
          },
          {
            "type": "name_match",
            "text": "dimethyl hexahydroterephthalate",
            "confidence": 1.0,
            "uuid": "ea40c8ce-80bc-42df-956b-b649e35c53ae",
            "name": "Dimethyl hexahydroterephthalate",
            "url": "https://haz-map.com/Agents/4948",
            "category": "agents"
          }
        ]
      },
      "cas_number": {
        "original_name": "CAS Number",
        "value": "94-60-0",
        "links": [],
        "cross_references": []
      },
      "formula": {
        "original_name": "Formula",
        "value": "C10-H16-O4",
        "links": [],
        "cross_references": []
      },
      "major_category": {
        "original_name": "Major Category",
        "value": "Other Classes",
        "links": [],
        "cross_references": []
      },
      "synonyms": {
        "original_name": "Synonyms",
        "value": "1,4-Cyclohexanedicarboxylic acid, dimethyl ester; Dimethyl 1,4-cyclohexanedicarboxylate; [ChemIDplus]",
        "links": [],
        "cross_references": [
          {
            "type": "name_match",
            "text": "cyclohexane",
            "confidence": 1.0,
            "uuid": "366fabd7-ac2f-461c-969f-62dfe3bf2377",
            "name": "Cyclohexane",
            "url": "https://haz-map.com/Agents/384",
            "category": "agents"
          }
        ]
      },
      "category": {
        "original_name": "Category",
        "value": "Other Aromatic Compounds",
        "links": [],
        "cross_references": []
      },
      "description": {
        "original_name": "Description",
        "value": "Solid; [HSDB] Clear colorless liquid; mp = 24-27 deg C; [MSDSonline]",
        "links": [],
        "cross_references": []
      },
      "sourcesuses": {
        "original_name": "Sources/Uses",
        "value": "Used in plasticizers and polymers; [HSDB]",
        "links": [],
        "cross_references": []
      },
      "comments": {
        "original_name": "Comments",
        "value": "An eye irritant; [MSDSonline] See \"Dimethyl terephthalate.\"",
        "links": [],
        "cross_references": [
          {
            "type": "name_match",
            "text": "ht",
            "confidence": 1.0,
            "uuid": "764df367-8d53-4a11-81a2-31ccfe122a8d",
            "name": "HT",
            "url": "https://haz-map.com/Agents/2168",
            "category": "agents"
          },
          {
            "type": "name_match",
            "text": "dimethyl terephthalate",
            "confidence": 1.0,
            "uuid": "beb9963d-800d-4524-869b-c20c3aa31d5e",
            "name": "Dimethyl terephthalate",
            "url": "https://haz-map.com/Agents/4967",
            "category": "agents"
          }
        ]
      },
      "biomedical_references": {
        "original_name": "Biomedical References",
        "value": "Search PubMed",
        "links": [
          {
            "text": "Search PubMed",
            "url": "https://www.ncbi.nlm.nih.gov/pubmed?term=Dimethyl+hexahydroterephthalate%20AND%20human%5Bmh%5D%20AND%20%28Occupational%20Diseases%20%5Bmh%5D%20OR%20Occupational%20Exposure%20%5Bmh%5D%29%20%20AND%20%28tox%5Bsb%5D%29&cmd=search"
          }
        ],
        "cross_references": []
      }
    },
    "exposure_assessment": {
      "vapor_pressure": {
        "original_name": "Vapor Pressure",
        "value": "0.0822 mm Hg",
        "links": [],
        "cross_references": []
      }
    },
    "diseases_processes_and_activities_linked_to_this_agent": {
      "other_information": {
        "original_name": "Other Information",
        "value": "No other related information on this agent was found.",
        "links": [],
        "cross_references": []
      }
    }
  },
  "cross_references": [
    {
      "type": "name_match",
      "text": "cyclohexane",
      "confidence": 1.0,
      "uuid": "366fabd7-ac2f-461c-969f-62dfe3bf2377",
      "name": "Cyclohexane",
      "url": "https://haz-map.com/Agents/384",
      "category": "agents"
    },
    {
      "type": "name_match",
      "text": "ht",
      "confidence": 1.0,
      "uuid": "764df367-8d53-4a11-81a2-31ccfe122a8d",
      "name": "HT",
      "url": "https://haz-map.com/Agents/2168",
      "category": "agents"
    },
    {
      "type": "name_match",
      "text": "dimethyl hexahydroterephthalate",
      "confidence": 1.0,
      "uuid": "ea40c8ce-80bc-42df-956b-b649e35c53ae",
      "name": "Dimethyl hexahydroterephthalate",
      "url": "https://haz-map.com/Agents/4948",
      "category": "agents"
    },
    {
      "type": "name_match",
      "text": "dimethyl terephthalate",
      "confidence": 1.0,
      "uuid": "beb9963d-800d-4524-869b-c20c3aa31d5e",
      "name": "Dimethyl terephthalate",
      "url": "https://haz-map.com/Agents/4967",
      "category": "agents"
    }
  ],
  "all_links": [
    {
      "text": "Search PubMed",
      "url": "https://www.ncbi.nlm.nih.gov/pubmed?term=Dimethyl+hexahydroterephthalate%20AND%20human%5Bmh%5D%20AND%20%28Occupational%20Diseases%20%5Bmh%5D%20OR%20Occupational%20Exposure%20%5Bmh%5D%29%20%20AND%20%28tox%5Bsb%5D%29&cmd=search"
    }
  ]
}