{
  "metadata": {
    "scraped_from": "https://haz-map.com/Agents/11611",
    "entity_name": "4-Chloro-1-butene",
    "category": "agents",
    "uuid": "eab67d95-ed0c-4ede-ad70-7d41366d4033",
    "scraped_at": "2025-07-23T21:01:58.192199"
  },
  "parsed_at": "2025-07-24T01:15:02.558079",
  "title": "4-Chloro-1-butene",
  "sections": {
    "general": {
      "agent_name": {
        "original_name": "Agent Name",
        "value": "4-Chloro-1-butene",
        "links": [],
        "cross_references": [
          {
            "type": "name_match",
            "text": "4-chloro-1-butene",
            "confidence": 1.0,
            "uuid": "eab67d95-ed0c-4ede-ad70-7d41366d4033",
            "name": "4-Chloro-1-butene",
            "url": "https://haz-map.com/Agents/11611",
            "category": "agents"
          }
        ]
      },
      "cas_number": {
        "original_name": "CAS Number",
        "value": "927-73-1",
        "links": [],
        "cross_references": []
      },
      "formula": {
        "original_name": "Formula",
        "value": "C4-H7-Cl",
        "links": [],
        "cross_references": []
      },
      "major_category": {
        "original_name": "Major Category",
        "value": "Other Classes",
        "links": [],
        "cross_references": []
      },
      "synonyms": {
        "original_name": "Synonyms",
        "value": "1-Butene, 4-chloro-; 4-Chlorobut-1-ene; [ChemIDplus]",
        "links": [],
        "cross_references": []
      },
      "category": {
        "original_name": "Category",
        "value": "Halogenated Aliphatics, Unsaturated",
        "links": [],
        "cross_references": []
      },
      "description": {
        "original_name": "Description",
        "value": "Liquid; [MP Biomedicals MSDS]",
        "links": [],
        "cross_references": []
      },
      "comments": {
        "original_name": "Comments",
        "value": "Causes weight loss in 44-week constant feeding studies of rabbits and rats; [RTECS] May cause irritation; [MP Biomedicals MSDS] See \"Allyl bromide\" and \"1-Chloro-1-propene.\"",
        "links": [],
        "cross_references": [
          {
            "type": "name_match",
            "text": "weight loss",
            "confidence": 1.0,
            "uuid": "9b7baca4-cf1b-4e78-99d2-2377fbac8f8b",
            "name": "weight loss",
            "url": "https://haz-map.com/Findings/3",
            "category": "findings"
          },
          {
            "type": "name_match",
            "text": "ht",
            "confidence": 1.0,
            "uuid": "764df367-8d53-4a11-81a2-31ccfe122a8d",
            "name": "HT",
            "url": "https://haz-map.com/Agents/2168",
            "category": "agents"
          },
          {
            "type": "name_match",
            "text": "1-chloro-1-propene",
            "confidence": 1.0,
            "uuid": "42cfb44d-1ab1-4e8e-8e63-37da52e5b39b",
            "name": "1-Chloro-1-propene",
            "url": "https://haz-map.com/Agents/2859",
            "category": "agents"
          },
          {
            "type": "name_match",
            "text": "allyl bromide",
            "confidence": 1.0,
            "uuid": "f3a84218-783f-4f06-9ae9-66e669dbf822",
            "name": "Allyl bromide",
            "url": "https://haz-map.com/Agents/3568",
            "category": "agents"
          }
        ]
      },
      "biomedical_references": {
        "original_name": "Biomedical References",
        "value": "Search PubMed",
        "links": [
          {
            "text": "Search PubMed",
            "url": "https://www.ncbi.nlm.nih.gov/pubmed?term=4-Chloro-1-butene%20AND%20human%5Bmh%5D%20AND%20%28Occupational%20Diseases%20%5Bmh%5D%20OR%20Occupational%20Exposure%20%5Bmh%5D%29%20%20AND%20%28tox%5Bsb%5D%29&cmd=search"
          }
        ],
        "cross_references": []
      }
    },
    "exposure_assessment": {
      "vapor_pressure": {
        "original_name": "Vapor Pressure",
        "value": "66.4 mm Hg",
        "links": [],
        "cross_references": []
      },
      "explanatory_notes": {
        "original_name": "Explanatory Notes",
        "value": "VP from ChemIDplus;",
        "links": [],
        "cross_references": []
      }
    },
    "diseases_processes_and_activities_linked_to_this_agent": {
      "other_information": {
        "original_name": "Other Information",
        "value": "No other related information on this agent was found.",
        "links": [],
        "cross_references": []
      }
    }
  },
  "cross_references": [
    {
      "type": "name_match",
      "text": "weight loss",
      "confidence": 1.0,
      "uuid": "9b7baca4-cf1b-4e78-99d2-2377fbac8f8b",
      "name": "weight loss",
      "url": "https://haz-map.com/Findings/3",
      "category": "findings"
    },
    {
      "type": "name_match",
      "text": "ht",
      "confidence": 1.0,
      "uuid": "764df367-8d53-4a11-81a2-31ccfe122a8d",
      "name": "HT",
      "url": "https://haz-map.com/Agents/2168",
      "category": "agents"
    },
    {
      "type": "name_match",
      "text": "1-chloro-1-propene",
      "confidence": 1.0,
      "uuid": "42cfb44d-1ab1-4e8e-8e63-37da52e5b39b",
      "name": "1-Chloro-1-propene",
      "url": "https://haz-map.com/Agents/2859",
      "category": "agents"
    },
    {
      "type": "name_match",
      "text": "allyl bromide",
      "confidence": 1.0,
      "uuid": "f3a84218-783f-4f06-9ae9-66e669dbf822",
      "name": "Allyl bromide",
      "url": "https://haz-map.com/Agents/3568",
      "category": "agents"
    },
    {
      "type": "name_match",
      "text": "4-chloro-1-butene",
      "confidence": 1.0,
      "uuid": "eab67d95-ed0c-4ede-ad70-7d41366d4033",
      "name": "4-Chloro-1-butene",
      "url": "https://haz-map.com/Agents/11611",
      "category": "agents"
    }
  ],
  "all_links": [
    {
      "text": "Search PubMed",
      "url": "https://www.ncbi.nlm.nih.gov/pubmed?term=4-Chloro-1-butene%20AND%20human%5Bmh%5D%20AND%20%28Occupational%20Diseases%20%5Bmh%5D%20OR%20Occupational%20Exposure%20%5Bmh%5D%29%20%20AND%20%28tox%5Bsb%5D%29&cmd=search"
    }
  ]
}