{
  "metadata": {
    "scraped_from": "https://haz-map.com/Agents/11527",
    "entity_name": "3,5-Dimethoxy-4-hydroxybenzoic acid",
    "category": "agents",
    "uuid": "eac72b97-94a3-46e6-bc38-92e89ab23989",
    "scraped_at": "2025-07-23T21:00:39.505165"
  },
  "parsed_at": "2025-07-24T00:55:43.828454",
  "title": "3,5-Dimethoxy-4-hydroxybenzoic acid",
  "sections": {
    "general": {
      "agent_name": {
        "original_name": "Agent Name",
        "value": "3,5-Dimethoxy-4-hydroxybenzoic acid",
        "links": [],
        "cross_references": [
          {
            "type": "name_match",
            "text": "benzoic acid",
            "confidence": 1.0,
            "uuid": "d2c5d3be-d826-4f55-bc32-7b16821aef40",
            "name": "Benzoic acid",
            "url": "https://haz-map.com/Agents/1883",
            "category": "agents"
          },
          {
            "type": "name_match",
            "text": "4-hydroxybenzoic acid",
            "confidence": 1.0,
            "uuid": "3fcbee71-1f51-40c2-84f9-1b67dcff5878",
            "name": "4-Hydroxybenzoic acid",
            "url": "https://haz-map.com/Agents/3479",
            "category": "agents"
          },
          {
            "type": "name_match",
            "text": "3,5-dimethoxy-4-hydroxybenzoic acid",
            "confidence": 1.0,
            "uuid": "eac72b97-94a3-46e6-bc38-92e89ab23989",
            "name": "3,5-Dimethoxy-4-hydroxybenzoic acid",
            "url": "https://haz-map.com/Agents/11527",
            "category": "agents"
          },
          {
            "type": "name_match",
            "text": "hydroxybenzoic acid",
            "confidence": 1.0,
            "uuid": "c0fe1112-f757-4a77-a4ed-4b5a9997c734",
            "name": "Hydroxybenzoic acid",
            "url": "https://haz-map.com/Agents/14820",
            "category": "agents"
          }
        ]
      },
      "alternative_name": {
        "original_name": "Alternative Name",
        "value": "Syringic acid",
        "links": [],
        "cross_references": []
      },
      "cas_number": {
        "original_name": "CAS Number",
        "value": "530-57-4",
        "links": [],
        "cross_references": []
      },
      "formula": {
        "original_name": "Formula",
        "value": "C9-H10-O5",
        "links": [],
        "cross_references": []
      },
      "major_category": {
        "original_name": "Major Category",
        "value": "Other Classes",
        "links": [],
        "cross_references": []
      },
      "synonyms": {
        "original_name": "Synonyms",
        "value": "Syringic acid; 4-Hydroxy-3,5-dimethoxybenzoic acid; Cedar acid; Gallic acid 3,5-dimethyl ether; Benzoic acid, 4-hydroxy-3,5-dimethoxy-; [ChemIDplus]",
        "links": [],
        "cross_references": [
          {
            "type": "name_match",
            "text": "ethyl ether",
            "confidence": 1.0,
            "uuid": "c95edddc-9ad3-44f8-bafa-78e0bd19db3a",
            "name": "Ethyl ether",
            "url": "https://haz-map.com/Agents/455",
            "category": "agents"
          },
          {
            "type": "name_match",
            "text": "dimethyl ether",
            "confidence": 1.0,
            "uuid": "a12a0b82-a115-4243-98a7-3e9a2c4700ed",
            "name": "Dimethyl ether",
            "url": "https://haz-map.com/Agents/1483",
            "category": "agents"
          },
          {
            "type": "name_match",
            "text": "benzoic acid",
            "confidence": 1.0,
            "uuid": "d2c5d3be-d826-4f55-bc32-7b16821aef40",
            "name": "Benzoic acid",
            "url": "https://haz-map.com/Agents/1883",
            "category": "agents"
          },
          {
            "type": "name_match",
            "text": "gallic acid",
            "confidence": 1.0,
            "uuid": "e66d2ee8-d681-4f1c-bec8-4393cad2e862",
            "name": "Gallic acid",
            "url": "https://haz-map.com/Agents/5402",
            "category": "agents"
          },
          {
            "type": "name_match",
            "text": "3,5-dimethoxybenzoic acid",
            "confidence": 1.0,
            "uuid": "46b349a2-eccd-4f31-a7f8-244f4aa6ef14",
            "name": "3,5-Dimethoxybenzoic acid",
            "url": "https://haz-map.com/Agents/19738",
            "category": "agents"
          }
        ]
      },
      "category": {
        "original_name": "Category",
        "value": "Benzoic Acid Derivatives",
        "links": [],
        "cross_references": [
          {
            "type": "name_match",
            "text": "benzoic acid",
            "confidence": 1.0,
            "uuid": "d2c5d3be-d826-4f55-bc32-7b16821aef40",
            "name": "Benzoic acid",
            "url": "https://haz-map.com/Agents/1883",
            "category": "agents"
          }
        ]
      },
      "description": {
        "original_name": "Description",
        "value": "Light brown powder; [Sigma-Aldrich MSDS]",
        "links": [],
        "cross_references": [
          {
            "type": "name_match",
            "text": "ht",
            "confidence": 1.0,
            "uuid": "764df367-8d53-4a11-81a2-31ccfe122a8d",
            "name": "HT",
            "url": "https://haz-map.com/Agents/2168",
            "category": "agents"
          }
        ]
      },
      "comments": {
        "original_name": "Comments",
        "value": "Causes other liver changes, effects on transferases, and effects on inflammation in acute intraperitoneal studies of mice; [RTECS] A skin and strong eye irritant; [Sigma-Aldrich MSDS]",
        "links": [],
        "cross_references": []
      },
      "biomedical_references": {
        "original_name": "Biomedical References",
        "value": "Search PubMed",
        "links": [
          {
            "text": "Search PubMed",
            "url": "https://www.ncbi.nlm.nih.gov/pubmed?term=3%2c5-Dimethoxy-4-hydroxybenzoic+acid%20AND%20human%5Bmh%5D%20AND%20%28Occupational%20Diseases%20%5Bmh%5D%20OR%20Occupational%20Exposure%20%5Bmh%5D%29%20%20AND%20%28tox%5Bsb%5D%29&cmd=search"
          }
        ],
        "cross_references": []
      }
    },
    "exposure_assessment": {
      "vapor_pressure": {
        "original_name": "Vapor Pressure",
        "value": "2.91E-06 mm Hg",
        "links": [],
        "cross_references": []
      }
    },
    "adverse_effects": {
      "hepatotoxin": {
        "original_name": "Hepatotoxin",
        "value": "Hepatoxic (a) from occupational exposure (secondary effect) or (b) in animal studies or in humans after ingestion",
        "links": [],
        "cross_references": []
      }
    },
    "diseases_processes_and_activities_linked_to_this_agent": {
      "other_information": {
        "original_name": "Other Information",
        "value": "No other related information on this agent was found.",
        "links": [],
        "cross_references": []
      }
    }
  },
  "cross_references": [
    {
      "type": "name_match",
      "text": "ethyl ether",
      "confidence": 1.0,
      "uuid": "c95edddc-9ad3-44f8-bafa-78e0bd19db3a",
      "name": "Ethyl ether",
      "url": "https://haz-map.com/Agents/455",
      "category": "agents"
    },
    {
      "type": "name_match",
      "text": "dimethyl ether",
      "confidence": 1.0,
      "uuid": "a12a0b82-a115-4243-98a7-3e9a2c4700ed",
      "name": "Dimethyl ether",
      "url": "https://haz-map.com/Agents/1483",
      "category": "agents"
    },
    {
      "type": "name_match",
      "text": "benzoic acid",
      "confidence": 1.0,
      "uuid": "d2c5d3be-d826-4f55-bc32-7b16821aef40",
      "name": "Benzoic acid",
      "url": "https://haz-map.com/Agents/1883",
      "category": "agents"
    },
    {
      "type": "name_match",
      "text": "ht",
      "confidence": 1.0,
      "uuid": "764df367-8d53-4a11-81a2-31ccfe122a8d",
      "name": "HT",
      "url": "https://haz-map.com/Agents/2168",
      "category": "agents"
    },
    {
      "type": "name_match",
      "text": "4-hydroxybenzoic acid",
      "confidence": 1.0,
      "uuid": "3fcbee71-1f51-40c2-84f9-1b67dcff5878",
      "name": "4-Hydroxybenzoic acid",
      "url": "https://haz-map.com/Agents/3479",
      "category": "agents"
    },
    {
      "type": "name_match",
      "text": "gallic acid",
      "confidence": 1.0,
      "uuid": "e66d2ee8-d681-4f1c-bec8-4393cad2e862",
      "name": "Gallic acid",
      "url": "https://haz-map.com/Agents/5402",
      "category": "agents"
    },
    {
      "type": "name_match",
      "text": "3,5-dimethoxy-4-hydroxybenzoic acid",
      "confidence": 1.0,
      "uuid": "eac72b97-94a3-46e6-bc38-92e89ab23989",
      "name": "3,5-Dimethoxy-4-hydroxybenzoic acid",
      "url": "https://haz-map.com/Agents/11527",
      "category": "agents"
    },
    {
      "type": "name_match",
      "text": "hydroxybenzoic acid",
      "confidence": 1.0,
      "uuid": "c0fe1112-f757-4a77-a4ed-4b5a9997c734",
      "name": "Hydroxybenzoic acid",
      "url": "https://haz-map.com/Agents/14820",
      "category": "agents"
    },
    {
      "type": "name_match",
      "text": "3,5-dimethoxybenzoic acid",
      "confidence": 1.0,
      "uuid": "46b349a2-eccd-4f31-a7f8-244f4aa6ef14",
      "name": "3,5-Dimethoxybenzoic acid",
      "url": "https://haz-map.com/Agents/19738",
      "category": "agents"
    }
  ],
  "all_links": [
    {
      "text": "Search PubMed",
      "url": "https://www.ncbi.nlm.nih.gov/pubmed?term=3%2c5-Dimethoxy-4-hydroxybenzoic+acid%20AND%20human%5Bmh%5D%20AND%20%28Occupational%20Diseases%20%5Bmh%5D%20OR%20Occupational%20Exposure%20%5Bmh%5D%29%20%20AND%20%28tox%5Bsb%5D%29&cmd=search"
    }
  ]
}