{
  "metadata": {
    "scraped_from": "https://haz-map.com/Agents/19141",
    "entity_name": "(2S)-2-Octanol",
    "category": "agents",
    "uuid": "eaf5b9c4-45be-4bfe-bec4-0b7f7b25e4d6",
    "scraped_at": "2025-07-23T22:00:14.412049"
  },
  "parsed_at": "2025-07-24T01:02:30.775938",
  "title": "(2S)-2-Octanol",
  "sections": {
    "general": {
      "agent_name": {
        "original_name": "Agent Name",
        "value": "(2S)-2-Octanol",
        "links": [],
        "cross_references": [
          {
            "type": "name_match",
            "text": "2-octanol",
            "confidence": 1.0,
            "uuid": "b2a636b6-fffb-43dc-80a0-6e3493769100",
            "name": "2-Octanol",
            "url": "https://haz-map.com/Agents/3155",
            "category": "agents"
          },
          {
            "type": "name_match",
            "text": "(2s)-2-octanol",
            "confidence": 1.0,
            "uuid": "eaf5b9c4-45be-4bfe-bec4-0b7f7b25e4d6",
            "name": "(2S)-2-Octanol",
            "url": "https://haz-map.com/Agents/19141",
            "category": "agents"
          }
        ]
      },
      "cas_number": {
        "original_name": "CAS Number",
        "value": "6169-06-8",
        "links": [],
        "cross_references": []
      },
      "formula": {
        "original_name": "Formula",
        "value": "C8-H18-O",
        "links": [],
        "cross_references": []
      },
      "major_category": {
        "original_name": "Major Category",
        "value": "Solvents",
        "links": [],
        "cross_references": []
      },
      "synonyms": {
        "original_name": "Synonyms",
        "value": "2-Octanol (S); 2-Octanol, (2S)-; 2-Octanol, (S)-; d-Octan-2-ol; [ChemIDplus]",
        "links": [],
        "cross_references": [
          {
            "type": "name_match",
            "text": "2-octanol",
            "confidence": 1.0,
            "uuid": "b2a636b6-fffb-43dc-80a0-6e3493769100",
            "name": "2-Octanol",
            "url": "https://haz-map.com/Agents/3155",
            "category": "agents"
          }
        ]
      },
      "category": {
        "original_name": "Category",
        "value": "Alcohols (<C12)",
        "links": [],
        "cross_references": []
      },
      "description": {
        "original_name": "Description",
        "value": "Colorless liquid with a pleasant odor; [Alfa Aesar MSDS]",
        "links": [],
        "cross_references": []
      },
      "sourcesuses": {
        "original_name": "Sources/Uses",
        "value": "Used to make perfumes, in disinfectant soaps, to prevent foaming, and as solvent for fats and waxes; [Merck Index]",
        "links": [],
        "cross_references": []
      },
      "comments": {
        "original_name": "Comments",
        "value": "A strong eye irritant; [Alfa Aesar MSDS] See \"2-Octanol.\"",
        "links": [],
        "cross_references": [
          {
            "type": "name_match",
            "text": "2-octanol",
            "confidence": 1.0,
            "uuid": "b2a636b6-fffb-43dc-80a0-6e3493769100",
            "name": "2-Octanol",
            "url": "https://haz-map.com/Agents/3155",
            "category": "agents"
          }
        ]
      },
      "biomedical_references": {
        "original_name": "Biomedical References",
        "value": "Search PubMed",
        "links": [
          {
            "text": "Search PubMed",
            "url": "https://www.ncbi.nlm.nih.gov/pubmed?term=(2S)-2-Octanol%20AND%20human%5Bmh%5D%20AND%20%28Occupational%20Diseases%20%5Bmh%5D%20OR%20Occupational%20Exposure%20%5Bmh%5D%29%20%20AND%20%28tox%5Bsb%5D%29&cmd=search"
          }
        ],
        "cross_references": []
      }
    },
    "exposure_assessment": {
      "vapor_pressure": {
        "original_name": "Vapor Pressure",
        "value": "0.19 mm Hg",
        "links": [],
        "cross_references": []
      }
    },
    "adverse_effects": {
      "neurotoxin": {
        "original_name": "Neurotoxin",
        "value": "Acute solvent syndrome",
        "links": [],
        "cross_references": []
      }
    },
    "diseases_processes_and_activities_linked_to_this_agent": {
      "diseases": {
        "original_name": "Diseases",
        "value": "Occupational diseases associated with exposure to this agent: Solvents, acute toxic effect",
        "links": [
          {
            "text": "Solvents, acute toxic effect",
            "url": "https://haz-map.com/Diseases/326"
          }
        ],
        "cross_references": [
          {
            "type": "url_match",
            "text": "Solvents, acute toxic effect",
            "url": "https://haz-map.com/Diseases/326",
            "confidence": 1.0,
            "uuid": "581e90e3-9d0c-45f0-aa6c-3468c28da129",
            "name": "Solvents, acute toxic effect",
            "category": "diseases"
          }
        ]
      },
      "processes": {
        "original_name": "Processes",
        "value": "Industrial Processes with risk of exposure: Using Disinfectants or Biocides",
        "links": [
          {
            "text": "Using Disinfectants or Biocides",
            "url": "https://haz-map.com/Processes/167"
          }
        ],
        "cross_references": [
          {
            "type": "url_match",
            "text": "Using Disinfectants or Biocides",
            "url": "https://haz-map.com/Processes/167",
            "confidence": 1.0,
            "uuid": "7accb745-ad60-4ef8-9039-8ac4febb8fd8",
            "name": "Using Disinfectants or Biocides",
            "category": "processes"
          }
        ]
      }
    }
  },
  "cross_references": [
    {
      "type": "url_match",
      "text": "Solvents, acute toxic effect",
      "url": "https://haz-map.com/Diseases/326",
      "confidence": 1.0,
      "uuid": "581e90e3-9d0c-45f0-aa6c-3468c28da129",
      "name": "Solvents, acute toxic effect",
      "category": "diseases"
    },
    {
      "type": "url_match",
      "text": "Using Disinfectants or Biocides",
      "url": "https://haz-map.com/Processes/167",
      "confidence": 1.0,
      "uuid": "7accb745-ad60-4ef8-9039-8ac4febb8fd8",
      "name": "Using Disinfectants or Biocides",
      "category": "processes"
    },
    {
      "type": "name_match",
      "text": "2-octanol",
      "confidence": 1.0,
      "uuid": "b2a636b6-fffb-43dc-80a0-6e3493769100",
      "name": "2-Octanol",
      "url": "https://haz-map.com/Agents/3155",
      "category": "agents"
    },
    {
      "type": "name_match",
      "text": "(2s)-2-octanol",
      "confidence": 1.0,
      "uuid": "eaf5b9c4-45be-4bfe-bec4-0b7f7b25e4d6",
      "name": "(2S)-2-Octanol",
      "url": "https://haz-map.com/Agents/19141",
      "category": "agents"
    }
  ],
  "all_links": [
    {
      "text": "Search PubMed",
      "url": "https://www.ncbi.nlm.nih.gov/pubmed?term=(2S)-2-Octanol%20AND%20human%5Bmh%5D%20AND%20%28Occupational%20Diseases%20%5Bmh%5D%20OR%20Occupational%20Exposure%20%5Bmh%5D%29%20%20AND%20%28tox%5Bsb%5D%29&cmd=search"
    },
    {
      "text": "Solvents, acute toxic effect",
      "url": "https://haz-map.com/Diseases/326"
    },
    {
      "text": "Using Disinfectants or Biocides",
      "url": "https://haz-map.com/Processes/167"
    }
  ]
}