{
  "metadata": {
    "scraped_from": "https://haz-map.com/Agents/493",
    "entity_name": "Ferrovanadium dust",
    "category": "agents",
    "uuid": "eb1db611-a9fa-44f4-a371-d72288f86a12",
    "scraped_at": "2025-07-23T18:42:59.027931"
  },
  "parsed_at": "2025-07-24T01:13:03.316336",
  "title": "Ferrovanadium dust",
  "sections": {
    "general": {
      "agent_name": {
        "original_name": "Agent Name",
        "value": "Ferrovanadium dust",
        "links": [],
        "cross_references": [
          {
            "type": "name_match",
            "text": "ferrovanadium dust",
            "confidence": 1.0,
            "uuid": "eb1db611-a9fa-44f4-a371-d72288f86a12",
            "name": "Ferrovanadium dust",
            "url": "https://haz-map.com/Agents/493",
            "category": "agents"
          },
          {
            "type": "name_match",
            "text": "vanadium",
            "confidence": 1.0,
            "uuid": "1362fc87-1aa9-43e6-8e41-e4ffbe9a0511",
            "name": "Vanadium",
            "url": "https://haz-map.com/Agents/1701",
            "category": "agents"
          }
        ]
      },
      "cas_number": {
        "original_name": "CAS Number",
        "value": "12604-58-9",
        "links": [],
        "cross_references": []
      },
      "formula": {
        "original_name": "Formula",
        "value": "Fe***",
        "links": [],
        "cross_references": []
      },
      "major_category": {
        "original_name": "Major Category",
        "value": "Metals",
        "links": [],
        "cross_references": []
      },
      "synonyms": {
        "original_name": "Synonyms",
        "value": "Ferrovanadium alloy; Ferrovanadium dust; Vanadium alloy, base, V,C,Fe (ferrovanadium); [CHEMINFO]",
        "links": [],
        "cross_references": [
          {
            "type": "name_match",
            "text": "ferrovanadium dust",
            "confidence": 1.0,
            "uuid": "eb1db611-a9fa-44f4-a371-d72288f86a12",
            "name": "Ferrovanadium dust",
            "url": "https://haz-map.com/Agents/493",
            "category": "agents"
          },
          {
            "type": "name_match",
            "text": "vanadium",
            "confidence": 1.0,
            "uuid": "1362fc87-1aa9-43e6-8e41-e4ffbe9a0511",
            "name": "Vanadium",
            "url": "https://haz-map.com/Agents/1701",
            "category": "agents"
          }
        ]
      },
      "category": {
        "original_name": "Category",
        "value": "Metals, Inorganic Compounds",
        "links": [],
        "cross_references": [
          {
            "type": "fuzzy_match",
            "text": "organic compounds",
            "matched_name": "Tin, organic compounds",
            "confidence": 0.8196969696969697,
            "uuid": "e027d413-8869-4308-9eb2-27d768b011ea",
            "category": "agents",
            "url": "https://haz-map.com/Agents/656"
          },
          {
            "type": "fuzzy_match",
            "text": "inorganic compounds",
            "matched_name": "Tin and inorganic compounds",
            "confidence": 0.8161375661375662,
            "uuid": "f9a072ab-0fbc-477a-88a2-1389e762d773",
            "category": "agents",
            "url": "https://haz-map.com/Agents/42"
          },
          {
            "type": "fuzzy_match",
            "text": "inorganic compounds",
            "matched_name": "Mercury, inorganic compounds",
            "confidence": 0.7455357142857143,
            "uuid": "4b03e512-ea73-428b-aa40-cfb4b29e3cd6",
            "category": "agents",
            "url": "https://haz-map.com/Agents/1954"
          }
        ]
      },
      "description": {
        "original_name": "Description",
        "value": "Dark, odorless particulate dispersed in air. [Note: Ferrovanadium metal is an alloy usually containing 50-80% vanadium.]; [NIOSH]",
        "links": [],
        "cross_references": [
          {
            "type": "name_match",
            "text": "vanadium",
            "confidence": 1.0,
            "uuid": "1362fc87-1aa9-43e6-8e41-e4ffbe9a0511",
            "name": "Vanadium",
            "url": "https://haz-map.com/Agents/1701",
            "category": "agents"
          },
          {
            "type": "fuzzy_match",
            "text": "ferrovanadium",
            "matched_name": "Ferrovanadium dust",
            "confidence": 0.753968253968254,
            "uuid": "eb1db611-a9fa-44f4-a371-d72288f86a12",
            "category": "agents",
            "url": "https://haz-map.com/Agents/493"
          }
        ]
      },
      "sourcesuses": {
        "original_name": "Sources/Uses",
        "value": "Used to make steel alloys; [ACGIH]",
        "links": [],
        "cross_references": [
          {
            "type": "name_match",
            "text": "alloys",
            "confidence": 1.0,
            "uuid": "9666ccee-2fab-426c-b33d-4f9032422585",
            "name": "ALLOYS",
            "url": "https://haz-map.com/Agents/2201",
            "category": "agents"
          }
        ]
      },
      "comments": {
        "original_name": "Comments",
        "value": "A respiratory tract irritant; [ACGIH] See \"Vanadium pentoxide.\"",
        "links": [],
        "cross_references": [
          {
            "type": "name_match",
            "text": "vanadium pentoxide",
            "confidence": 1.0,
            "uuid": "5823fcac-1de8-4861-92ff-9ec9cf8fa5af",
            "name": "Vanadium pentoxide",
            "url": "https://haz-map.com/Agents/44",
            "category": "agents"
          },
          {
            "type": "name_match",
            "text": "vanadium",
            "confidence": 1.0,
            "uuid": "1362fc87-1aa9-43e6-8e41-e4ffbe9a0511",
            "name": "Vanadium",
            "url": "https://haz-map.com/Agents/1701",
            "category": "agents"
          }
        ]
      },
      "biomedical_references": {
        "original_name": "Biomedical References",
        "value": "Search PubMed",
        "links": [
          {
            "text": "Search PubMed",
            "url": "https://www.ncbi.nlm.nih.gov/pubmed?term=Ferrovanadium+dust%20AND%20human%5Bmh%5D%20AND%20%28Occupational%20Diseases%20%5Bmh%5D%20OR%20Occupational%20Exposure%20%5Bmh%5D%29%20%20AND%20%28tox%5Bsb%5D%29&cmd=search"
          }
        ],
        "cross_references": []
      }
    },
    "exposure_assessment": {
      "skin_designation_acgih": {
        "original_name": "Skin Designation (ACGIH)",
        "value": "Insufficient data",
        "links": [],
        "cross_references": []
      },
      "tlv_acgih": {
        "original_name": "TLV (ACGIH)",
        "value": "1 mg/m3",
        "links": [],
        "cross_references": []
      },
      "stel_acgih": {
        "original_name": "STEL (ACGIH)",
        "value": "3 mg/m3",
        "links": [],
        "cross_references": []
      },
      "pel_osha": {
        "original_name": "PEL (OSHA)",
        "value": "1 mg/m3",
        "links": [],
        "cross_references": []
      },
      "idlh_niosh": {
        "original_name": "IDLH (NIOSH)",
        "value": "500 mg/m3",
        "links": [],
        "cross_references": []
      },
      "excerpts_from_documentation_for_idlhs": {
        "original_name": "Excerpts from Documentation for IDLHs",
        "value": "Animal data: No acute intoxication occurred in animals exposed to concentrations as high as 10,000 mg/m3; serious pathologic changes occurred only at concentrations ranging from 1,000 to 2,000 mg/m3 in 1­hour exposures on alternate days for 2 months [Roshchin 1952]. It was also reported that exposure of rats to 40 to 80 mg/m3 for 2 months caused bronchitis, interstitial sclerosis, and perivascular edema [Clayton and Clayton 1981].",
        "links": [],
        "cross_references": []
      },
      "explanatory_notes": {
        "original_name": "Explanatory Notes",
        "value": "Vanadium Melting Point = 1274 degrees F;",
        "links": [],
        "cross_references": [
          {
            "type": "name_match",
            "text": "vanadium",
            "confidence": 1.0,
            "uuid": "1362fc87-1aa9-43e6-8e41-e4ffbe9a0511",
            "name": "Vanadium",
            "url": "https://haz-map.com/Agents/1701",
            "category": "agents"
          }
        ]
      }
    },
    "diseases_processes_and_activities_linked_to_this_agent": {
      "processes": {
        "original_name": "Processes",
        "value": "Industrial Processes with risk of exposure: Shakeout, Cleaning, and Finishing Steel Producing",
        "links": [
          {
            "text": "Shakeout, Cleaning, and Finishing",
            "url": "https://haz-map.com/Processes/34"
          },
          {
            "text": "Steel Producing",
            "url": "https://haz-map.com/Processes/2"
          }
        ],
        "cross_references": [
          {
            "type": "url_match",
            "text": "Shakeout, Cleaning, and Finishing",
            "url": "https://haz-map.com/Processes/34",
            "confidence": 1.0,
            "uuid": "0c9d66dc-9fb0-4860-b893-aaf5251e6621",
            "name": "Shakeout, Cleaning, and Finishing",
            "category": "processes"
          },
          {
            "type": "url_match",
            "text": "Steel Producing",
            "url": "https://haz-map.com/Processes/2",
            "confidence": 1.0,
            "uuid": "cb2ee08e-9765-41ce-a40f-b8d87704c7b5",
            "name": "Steel Producing",
            "category": "processes"
          }
        ]
      }
    }
  },
  "cross_references": [
    {
      "type": "url_match",
      "text": "Shakeout, Cleaning, and Finishing",
      "url": "https://haz-map.com/Processes/34",
      "confidence": 1.0,
      "uuid": "0c9d66dc-9fb0-4860-b893-aaf5251e6621",
      "name": "Shakeout, Cleaning, and Finishing",
      "category": "processes"
    },
    {
      "type": "url_match",
      "text": "Steel Producing",
      "url": "https://haz-map.com/Processes/2",
      "confidence": 1.0,
      "uuid": "cb2ee08e-9765-41ce-a40f-b8d87704c7b5",
      "name": "Steel Producing",
      "category": "processes"
    },
    {
      "type": "name_match",
      "text": "vanadium pentoxide",
      "confidence": 1.0,
      "uuid": "5823fcac-1de8-4861-92ff-9ec9cf8fa5af",
      "name": "Vanadium pentoxide",
      "url": "https://haz-map.com/Agents/44",
      "category": "agents"
    },
    {
      "type": "name_match",
      "text": "ferrovanadium dust",
      "confidence": 1.0,
      "uuid": "eb1db611-a9fa-44f4-a371-d72288f86a12",
      "name": "Ferrovanadium dust",
      "url": "https://haz-map.com/Agents/493",
      "category": "agents"
    },
    {
      "type": "name_match",
      "text": "vanadium",
      "confidence": 1.0,
      "uuid": "1362fc87-1aa9-43e6-8e41-e4ffbe9a0511",
      "name": "Vanadium",
      "url": "https://haz-map.com/Agents/1701",
      "category": "agents"
    },
    {
      "type": "name_match",
      "text": "alloys",
      "confidence": 1.0,
      "uuid": "9666ccee-2fab-426c-b33d-4f9032422585",
      "name": "ALLOYS",
      "url": "https://haz-map.com/Agents/2201",
      "category": "agents"
    },
    {
      "type": "fuzzy_match",
      "text": "organic compounds",
      "matched_name": "Tin, organic compounds",
      "confidence": 0.8196969696969697,
      "uuid": "e027d413-8869-4308-9eb2-27d768b011ea",
      "category": "agents",
      "url": "https://haz-map.com/Agents/656"
    },
    {
      "type": "fuzzy_match",
      "text": "inorganic compounds",
      "matched_name": "Tin and inorganic compounds",
      "confidence": 0.8161375661375662,
      "uuid": "f9a072ab-0fbc-477a-88a2-1389e762d773",
      "category": "agents",
      "url": "https://haz-map.com/Agents/42"
    },
    {
      "type": "fuzzy_match",
      "text": "inorganic compounds",
      "matched_name": "Mercury, inorganic compounds",
      "confidence": 0.7455357142857143,
      "uuid": "4b03e512-ea73-428b-aa40-cfb4b29e3cd6",
      "category": "agents",
      "url": "https://haz-map.com/Agents/1954"
    }
  ],
  "all_links": [
    {
      "text": "Search PubMed",
      "url": "https://www.ncbi.nlm.nih.gov/pubmed?term=Ferrovanadium+dust%20AND%20human%5Bmh%5D%20AND%20%28Occupational%20Diseases%20%5Bmh%5D%20OR%20Occupational%20Exposure%20%5Bmh%5D%29%20%20AND%20%28tox%5Bsb%5D%29&cmd=search"
    },
    {
      "text": "Shakeout, Cleaning, and Finishing",
      "url": "https://haz-map.com/Processes/34"
    },
    {
      "text": "Steel Producing",
      "url": "https://haz-map.com/Processes/2"
    }
  ]
}