{
  "metadata": {
    "scraped_from": "https://haz-map.com/Agents/1554",
    "entity_name": "Sodium perchlorate",
    "category": "agents",
    "uuid": "eb234be2-901c-40eb-932a-2292a5ffd2ce",
    "scraped_at": "2025-07-23T19:01:05.880325"
  },
  "parsed_at": "2025-07-24T01:17:54.363116",
  "title": "Sodium perchlorate",
  "sections": {
    "general": {
      "agent_name": {
        "original_name": "Agent Name",
        "value": "Sodium perchlorate",
        "links": [],
        "cross_references": [
          {
            "type": "name_match",
            "text": "sodium",
            "confidence": 1.0,
            "uuid": "1adffc42-a4d8-44d5-81d6-7dbd96ef8a6f",
            "name": "Sodium",
            "url": "https://haz-map.com/Agents/1527",
            "category": "agents"
          },
          {
            "type": "name_match",
            "text": "sodium perchlorate",
            "confidence": 1.0,
            "uuid": "eb234be2-901c-40eb-932a-2292a5ffd2ce",
            "name": "Sodium perchlorate",
            "url": "https://haz-map.com/Agents/1554",
            "category": "agents"
          }
        ]
      },
      "cas_number": {
        "original_name": "CAS Number",
        "value": "7601-89-0",
        "links": [],
        "cross_references": []
      },
      "formula": {
        "original_name": "Formula",
        "value": "Cl-O4.Na",
        "links": [],
        "cross_references": []
      },
      "major_category": {
        "original_name": "Major Category",
        "value": "Other Classes",
        "links": [],
        "cross_references": []
      },
      "synonyms": {
        "original_name": "Synonyms",
        "value": "Natriumperchloraat [Dutch]; Natriumperchlorat [German]; Perchlorate de sodium [French]; Sodio (perclorato di) [Italian]; Sodium (perchlorate de) [French]; [ChemIDplus]",
        "links": [],
        "cross_references": [
          {
            "type": "name_match",
            "text": "tali",
            "confidence": 1.0,
            "uuid": "8c3a0f99-2143-4122-b539-ec5cc49596b0",
            "name": "Tali",
            "url": "https://haz-map.com/Agents/1128",
            "category": "agents"
          },
          {
            "type": "name_match",
            "text": "sodium",
            "confidence": 1.0,
            "uuid": "1adffc42-a4d8-44d5-81d6-7dbd96ef8a6f",
            "name": "Sodium",
            "url": "https://haz-map.com/Agents/1527",
            "category": "agents"
          }
        ]
      },
      "category": {
        "original_name": "Category",
        "value": "Perchlorates",
        "links": [],
        "cross_references": [
          {
            "type": "name_match",
            "text": "chlorates",
            "confidence": 1.0,
            "uuid": "e8fed04c-7553-4972-8769-0adabe44fa49",
            "name": "CHLORATES",
            "url": "https://haz-map.com/Agents/1096",
            "category": "agents"
          },
          {
            "type": "name_match",
            "text": "perchlorates",
            "confidence": 1.0,
            "uuid": "f5b80c73-c16c-4016-815c-cdfa84dcd70f",
            "name": "PERCHLORATES",
            "url": "https://haz-map.com/Agents/1099",
            "category": "agents"
          }
        ]
      },
      "description": {
        "original_name": "Description",
        "value": "White crystals or powder; Deliquescent; [CHEMINFO]",
        "links": [],
        "cross_references": []
      },
      "sourcesuses": {
        "original_name": "Sources/Uses",
        "value": "Used in explosives, jet fuel, and life support systems to generate oxygen; Used as an analytical reagent and chemical intermediate for other perchlorates; [CHEMINFO]",
        "links": [],
        "cross_references": [
          {
            "type": "name_match",
            "text": "mica",
            "confidence": 1.0,
            "uuid": "433f26f1-c399-4596-b179-ce3843cfd465",
            "name": "Mica",
            "url": "https://haz-map.com/Agents/621",
            "category": "agents"
          },
          {
            "type": "name_match",
            "text": "jet fuel",
            "confidence": 1.0,
            "uuid": "c4ae7d49-5d5b-4833-b3c0-39450db92a40",
            "name": "Jet fuel",
            "url": "https://haz-map.com/Agents/698",
            "category": "agents"
          },
          {
            "type": "name_match",
            "text": "chlorates",
            "confidence": 1.0,
            "uuid": "e8fed04c-7553-4972-8769-0adabe44fa49",
            "name": "CHLORATES",
            "url": "https://haz-map.com/Agents/1096",
            "category": "agents"
          },
          {
            "type": "name_match",
            "text": "perchlorates",
            "confidence": 1.0,
            "uuid": "f5b80c73-c16c-4016-815c-cdfa84dcd70f",
            "name": "PERCHLORATES",
            "url": "https://haz-map.com/Agents/1099",
            "category": "agents"
          },
          {
            "type": "name_match",
            "text": "oxygen",
            "confidence": 1.0,
            "uuid": "daf61849-c843-41a6-bdfb-880e4ee71d7f",
            "name": "Oxygen",
            "url": "https://haz-map.com/Agents/1564",
            "category": "agents"
          }
        ]
      },
      "comments": {
        "original_name": "Comments",
        "value": "Concentrated solutions are probably not irritating to the skin; May induce methemoglobinemia after ingestion; [CHEMINFO] See \"PERCHLORATES.\"",
        "links": [],
        "cross_references": [
          {
            "type": "name_match",
            "text": "chlorates",
            "confidence": 1.0,
            "uuid": "e8fed04c-7553-4972-8769-0adabe44fa49",
            "name": "CHLORATES",
            "url": "https://haz-map.com/Agents/1096",
            "category": "agents"
          },
          {
            "type": "name_match",
            "text": "perchlorates",
            "confidence": 1.0,
            "uuid": "f5b80c73-c16c-4016-815c-cdfa84dcd70f",
            "name": "PERCHLORATES",
            "url": "https://haz-map.com/Agents/1099",
            "category": "agents"
          },
          {
            "type": "name_match",
            "text": "methemoglobin",
            "confidence": 1.0,
            "uuid": "afb7ebf5-d2a3-4e60-8d2e-3a19456344ee",
            "name": "Methemoglobin",
            "url": "https://haz-map.com/Agents/15467",
            "category": "agents"
          },
          {
            "type": "fuzzy_match",
            "text": "methemoglobinemia",
            "matched_name": "Methemoglobinemia, acute",
            "confidence": 0.7208333333333333,
            "uuid": "473a44bd-cf11-4710-a769-e8e2b25ba317",
            "category": "diseases",
            "url": "https://haz-map.com/Diseases/210"
          }
        ]
      },
      "biomedical_references": {
        "original_name": "Biomedical References",
        "value": "Search PubMed",
        "links": [
          {
            "text": "Search PubMed",
            "url": "https://www.ncbi.nlm.nih.gov/pubmed?term=Sodium+perchlorate%20AND%20human%5Bmh%5D%20AND%20%28Occupational%20Diseases%20%5Bmh%5D%20OR%20Occupational%20Exposure%20%5Bmh%5D%29%20%20AND%20%28tox%5Bsb%5D%29&cmd=search"
          }
        ],
        "cross_references": []
      }
    },
    "exposure_assessment": {
      "vapor_pressure": {
        "original_name": "Vapor Pressure",
        "value": "2.07E-16 mm Hg",
        "links": [],
        "cross_references": []
      }
    },
    "adverse_effects": {
      "methemoglobinemia": {
        "original_name": "Methemoglobinemia",
        "value": "MetHgb is secondary toxic effect",
        "links": [],
        "cross_references": []
      }
    },
    "diseases_processes_and_activities_linked_to_this_agent": {
      "other_information": {
        "original_name": "Other Information",
        "value": "No other related information on this agent was found.",
        "links": [],
        "cross_references": []
      }
    }
  },
  "cross_references": [
    {
      "type": "name_match",
      "text": "mica",
      "confidence": 1.0,
      "uuid": "433f26f1-c399-4596-b179-ce3843cfd465",
      "name": "Mica",
      "url": "https://haz-map.com/Agents/621",
      "category": "agents"
    },
    {
      "type": "name_match",
      "text": "jet fuel",
      "confidence": 1.0,
      "uuid": "c4ae7d49-5d5b-4833-b3c0-39450db92a40",
      "name": "Jet fuel",
      "url": "https://haz-map.com/Agents/698",
      "category": "agents"
    },
    {
      "type": "name_match",
      "text": "chlorates",
      "confidence": 1.0,
      "uuid": "e8fed04c-7553-4972-8769-0adabe44fa49",
      "name": "CHLORATES",
      "url": "https://haz-map.com/Agents/1096",
      "category": "agents"
    },
    {
      "type": "name_match",
      "text": "perchlorates",
      "confidence": 1.0,
      "uuid": "f5b80c73-c16c-4016-815c-cdfa84dcd70f",
      "name": "PERCHLORATES",
      "url": "https://haz-map.com/Agents/1099",
      "category": "agents"
    },
    {
      "type": "name_match",
      "text": "tali",
      "confidence": 1.0,
      "uuid": "8c3a0f99-2143-4122-b539-ec5cc49596b0",
      "name": "Tali",
      "url": "https://haz-map.com/Agents/1128",
      "category": "agents"
    },
    {
      "type": "name_match",
      "text": "sodium",
      "confidence": 1.0,
      "uuid": "1adffc42-a4d8-44d5-81d6-7dbd96ef8a6f",
      "name": "Sodium",
      "url": "https://haz-map.com/Agents/1527",
      "category": "agents"
    },
    {
      "type": "name_match",
      "text": "sodium perchlorate",
      "confidence": 1.0,
      "uuid": "eb234be2-901c-40eb-932a-2292a5ffd2ce",
      "name": "Sodium perchlorate",
      "url": "https://haz-map.com/Agents/1554",
      "category": "agents"
    },
    {
      "type": "name_match",
      "text": "oxygen",
      "confidence": 1.0,
      "uuid": "daf61849-c843-41a6-bdfb-880e4ee71d7f",
      "name": "Oxygen",
      "url": "https://haz-map.com/Agents/1564",
      "category": "agents"
    },
    {
      "type": "name_match",
      "text": "methemoglobin",
      "confidence": 1.0,
      "uuid": "afb7ebf5-d2a3-4e60-8d2e-3a19456344ee",
      "name": "Methemoglobin",
      "url": "https://haz-map.com/Agents/15467",
      "category": "agents"
    },
    {
      "type": "fuzzy_match",
      "text": "methemoglobinemia",
      "matched_name": "Methemoglobinemia, acute",
      "confidence": 0.7208333333333333,
      "uuid": "473a44bd-cf11-4710-a769-e8e2b25ba317",
      "category": "diseases",
      "url": "https://haz-map.com/Diseases/210"
    }
  ],
  "all_links": [
    {
      "text": "Search PubMed",
      "url": "https://www.ncbi.nlm.nih.gov/pubmed?term=Sodium+perchlorate%20AND%20human%5Bmh%5D%20AND%20%28Occupational%20Diseases%20%5Bmh%5D%20OR%20Occupational%20Exposure%20%5Bmh%5D%29%20%20AND%20%28tox%5Bsb%5D%29&cmd=search"
    }
  ]
}