{
  "metadata": {
    "scraped_from": "https://haz-map.com/Agents/19257",
    "entity_name": "1,3-Diphenyl-1,1,3,3-tetramethyldisiloxane",
    "category": "agents",
    "uuid": "ebde3106-57cf-4cab-87ae-6be51d6cbc30",
    "scraped_at": "2025-07-23T22:02:26.226483"
  },
  "parsed_at": "2025-07-24T01:10:55.284221",
  "title": "1,3-Diphenyl-1,1,3,3-tetramethyldisiloxane",
  "sections": {
    "general": {
      "agent_name": {
        "original_name": "Agent Name",
        "value": "1,3-Diphenyl-1,1,3,3-tetramethyldisiloxane",
        "links": [],
        "cross_references": [
          {
            "type": "name_match",
            "text": "tetramethyldisiloxane",
            "confidence": 1.0,
            "uuid": "56b21121-d741-4711-a074-00d9e2c9e30b",
            "name": "Tetramethyldisiloxane",
            "url": "https://haz-map.com/Agents/17929",
            "category": "agents"
          },
          {
            "type": "name_match",
            "text": "1,3-diphenyl-1,1,3,3-tetramethyldisiloxane",
            "confidence": 1.0,
            "uuid": "ebde3106-57cf-4cab-87ae-6be51d6cbc30",
            "name": "1,3-Diphenyl-1,1,3,3-tetramethyldisiloxane",
            "url": "https://haz-map.com/Agents/19257",
            "category": "agents"
          }
        ]
      },
      "cas_number": {
        "original_name": "CAS Number",
        "value": "56-33-7",
        "links": [],
        "cross_references": []
      },
      "formula": {
        "original_name": "Formula",
        "value": "C16-H22-O-Si2",
        "links": [],
        "cross_references": []
      },
      "major_category": {
        "original_name": "Major Category",
        "value": "Metals",
        "links": [],
        "cross_references": []
      },
      "synonyms": {
        "original_name": "Synonyms",
        "value": "1,1,3,3-Tetramethyl-1,3-diphenyldisiloxane; 1,3-Diphenyltetramethyldisiloxane; Bis(dimethylphenylsilyl)ether; Bis(dimethylphenylsilyl)oxide; Bis(phenyldimethylsilyl)oxide; D 6190; Disiloxane, 1,1,3,3-tetramethyl-1,3-diphenyl-; Disiloxane, 1,3-diphenyl-1,1,3,3-tetramethyl-; [ChemIDplus]",
        "links": [],
        "cross_references": [
          {
            "type": "name_match",
            "text": "tetramethyldisiloxane",
            "confidence": 1.0,
            "uuid": "56b21121-d741-4711-a074-00d9e2c9e30b",
            "name": "Tetramethyldisiloxane",
            "url": "https://haz-map.com/Agents/17929",
            "category": "agents"
          }
        ]
      },
      "category": {
        "original_name": "Category",
        "value": "Metalloid Compounds (Silicon)",
        "links": [],
        "cross_references": [
          {
            "type": "name_match",
            "text": "silicon",
            "confidence": 1.0,
            "uuid": "443f4405-7a1f-47db-bf43-809557f77483",
            "name": "Silicon",
            "url": "https://haz-map.com/Agents/623",
            "category": "agents"
          }
        ]
      },
      "description": {
        "original_name": "Description",
        "value": "Clear colorless liquid; [Sigma-Aldrich MSDS]",
        "links": [],
        "cross_references": []
      },
      "comments": {
        "original_name": "Comments",
        "value": "A skin and strong eye irritant; [Sigma-Aldrich MSDS] See \"Octamethyltrisiloxane.\"",
        "links": [],
        "cross_references": [
          {
            "type": "name_match",
            "text": "octamethyltrisiloxane",
            "confidence": 1.0,
            "uuid": "36653e63-b39d-46de-9306-0146ba30c90c",
            "name": "Octamethyltrisiloxane",
            "url": "https://haz-map.com/Agents/18767",
            "category": "agents"
          }
        ]
      },
      "biomedical_references": {
        "original_name": "Biomedical References",
        "value": "Search PubMed",
        "links": [
          {
            "text": "Search PubMed",
            "url": "https://www.ncbi.nlm.nih.gov/pubmed?term=1%2c3-Diphenyl-1%2c1%2c3%2c3-tetramethyldisiloxane%20AND%20human%5Bmh%5D%20AND%20%28Occupational%20Diseases%20%5Bmh%5D%20OR%20Occupational%20Exposure%20%5Bmh%5D%29%20%20AND%20%28tox%5Bsb%5D%29&cmd=search"
          }
        ],
        "cross_references": []
      }
    },
    "exposure_assessment": {
      "vapor_pressure": {
        "original_name": "Vapor Pressure",
        "value": "0.000202 mm Hg",
        "links": [],
        "cross_references": []
      }
    },
    "diseases_processes_and_activities_linked_to_this_agent": {
      "other_information": {
        "original_name": "Other Information",
        "value": "No other related information on this agent was found.",
        "links": [],
        "cross_references": []
      }
    }
  },
  "cross_references": [
    {
      "type": "name_match",
      "text": "silicon",
      "confidence": 1.0,
      "uuid": "443f4405-7a1f-47db-bf43-809557f77483",
      "name": "Silicon",
      "url": "https://haz-map.com/Agents/623",
      "category": "agents"
    },
    {
      "type": "name_match",
      "text": "tetramethyldisiloxane",
      "confidence": 1.0,
      "uuid": "56b21121-d741-4711-a074-00d9e2c9e30b",
      "name": "Tetramethyldisiloxane",
      "url": "https://haz-map.com/Agents/17929",
      "category": "agents"
    },
    {
      "type": "name_match",
      "text": "octamethyltrisiloxane",
      "confidence": 1.0,
      "uuid": "36653e63-b39d-46de-9306-0146ba30c90c",
      "name": "Octamethyltrisiloxane",
      "url": "https://haz-map.com/Agents/18767",
      "category": "agents"
    },
    {
      "type": "name_match",
      "text": "1,3-diphenyl-1,1,3,3-tetramethyldisiloxane",
      "confidence": 1.0,
      "uuid": "ebde3106-57cf-4cab-87ae-6be51d6cbc30",
      "name": "1,3-Diphenyl-1,1,3,3-tetramethyldisiloxane",
      "url": "https://haz-map.com/Agents/19257",
      "category": "agents"
    }
  ],
  "all_links": [
    {
      "text": "Search PubMed",
      "url": "https://www.ncbi.nlm.nih.gov/pubmed?term=1%2c3-Diphenyl-1%2c1%2c3%2c3-tetramethyldisiloxane%20AND%20human%5Bmh%5D%20AND%20%28Occupational%20Diseases%20%5Bmh%5D%20OR%20Occupational%20Exposure%20%5Bmh%5D%29%20%20AND%20%28tox%5Bsb%5D%29&cmd=search"
    }
  ]
}