{
  "metadata": {
    "scraped_from": "https://haz-map.com/Agents/18205",
    "entity_name": "Triethyl borate",
    "category": "agents",
    "uuid": "ebe314fc-688b-424a-a7f6-2707b6e89da8",
    "scraped_at": "2025-07-23T21:53:56.998017"
  },
  "parsed_at": "2025-07-24T01:13:05.915660",
  "title": "Triethyl borate",
  "sections": {
    "general": {
      "agent_name": {
        "original_name": "Agent Name",
        "value": "Triethyl borate",
        "links": [],
        "cross_references": [
          {
            "type": "name_match",
            "text": "triethyl borate",
            "confidence": 1.0,
            "uuid": "ebe314fc-688b-424a-a7f6-2707b6e89da8",
            "name": "Triethyl borate",
            "url": "https://haz-map.com/Agents/18205",
            "category": "agents"
          }
        ]
      },
      "cas_number": {
        "original_name": "CAS Number",
        "value": "150-46-9",
        "links": [],
        "cross_references": []
      },
      "formula": {
        "original_name": "Formula",
        "value": "C6-H15-B-O3",
        "links": [],
        "cross_references": []
      },
      "major_category": {
        "original_name": "Major Category",
        "value": "Metals",
        "links": [],
        "cross_references": []
      },
      "synonyms": {
        "original_name": "Synonyms",
        "value": "Borane, triethoxy-; Boric acid, triethyl ester; Boron ethoxide; Boron triethoxide; Ethyl borate ((EtO)3B); Triethoxyborane; Triethoxyboron; Triethylester kyseliny borite [Czech]; [ChemIDplus] TEB; Ethyl borate; Triethoxyborine; [Air Products MSDS] UN1176",
        "links": [],
        "cross_references": [
          {
            "type": "name_match",
            "text": "boric acid",
            "confidence": 1.0,
            "uuid": "6ceb7ad0-b349-47a5-abd4-99fd72800e53",
            "name": "Boric acid",
            "url": "https://haz-map.com/Agents/1374",
            "category": "agents"
          },
          {
            "type": "name_match",
            "text": "boron",
            "confidence": 1.0,
            "uuid": "539de4b5-2187-4144-ac60-98c577b00bca",
            "name": "Boron",
            "url": "https://haz-map.com/Agents/2001",
            "category": "agents"
          },
          {
            "type": "name_match",
            "text": "borane",
            "confidence": 1.0,
            "uuid": "a5e38655-49dd-4cdf-bbc0-f37c42350b45",
            "name": "Borane",
            "url": "https://haz-map.com/Agents/8317",
            "category": "agents"
          }
        ]
      },
      "category": {
        "original_name": "Category",
        "value": "Metalloid Compounds (Boron)",
        "links": [],
        "cross_references": [
          {
            "type": "name_match",
            "text": "boron",
            "confidence": 1.0,
            "uuid": "539de4b5-2187-4144-ac60-98c577b00bca",
            "name": "Boron",
            "url": "https://haz-map.com/Agents/2001",
            "category": "agents"
          }
        ]
      },
      "description": {
        "original_name": "Description",
        "value": "Colorless liquid with an alcoholic odor; [Air Products MSDS]",
        "links": [],
        "cross_references": []
      },
      "sourcesuses": {
        "original_name": "Sources/Uses",
        "value": "Used in semiconductor processing; [Air Products MSDS]",
        "links": [],
        "cross_references": []
      },
      "comments": {
        "original_name": "Comments",
        "value": "A mild eye irritant; [RTECS] Decomposed by water; An eye irritant; A moderate skin and respiratory tract irritant; Inhalation and skin absorption may cause CNS effects; Harmful by inhalation (severe overexposure may cause respiratory failure); [Air Products MSDS] See \"Tributyl borate\" and \"Trimethyl borate.\"",
        "links": [],
        "cross_references": [
          {
            "type": "name_match",
            "text": "trimethyl borate",
            "confidence": 1.0,
            "uuid": "557c3bfc-c060-4f26-a10e-cef34c1586cb",
            "name": "Trimethyl borate",
            "url": "https://haz-map.com/Agents/1486",
            "category": "agents"
          },
          {
            "type": "name_match",
            "text": "tributyl borate",
            "confidence": 1.0,
            "uuid": "bedc53ef-6f36-409c-a7a8-8ad062c9d705",
            "name": "Tributyl borate",
            "url": "https://haz-map.com/Agents/7513",
            "category": "agents"
          },
          {
            "type": "name_match",
            "text": "water",
            "confidence": 1.0,
            "uuid": "6f2a7557-dfd2-49bc-9b4b-a93cd8e225d4",
            "name": "Water",
            "url": "https://haz-map.com/Agents/18668",
            "category": "agents"
          }
        ]
      },
      "biomedical_references": {
        "original_name": "Biomedical References",
        "value": "Search PubMed",
        "links": [
          {
            "text": "Search PubMed",
            "url": "https://www.ncbi.nlm.nih.gov/pubmed?term=Triethyl+borate%20AND%20human%5Bmh%5D%20AND%20%28Occupational%20Diseases%20%5Bmh%5D%20OR%20Occupational%20Exposure%20%5Bmh%5D%29%20%20AND%20%28tox%5Bsb%5D%29&cmd=search"
          }
        ],
        "cross_references": []
      }
    },
    "exposure_assessment": {
      "vapor_pressure": {
        "original_name": "Vapor Pressure",
        "value": "10.98 mm Hg",
        "links": [],
        "cross_references": []
      },
      "explanatory_notes": {
        "original_name": "Explanatory Notes",
        "value": "The Guide in the Emergency Response Guidebook is for \"Ethyl borate.\"",
        "links": [],
        "cross_references": []
      }
    },
    "adverse_effects": {
      "neurotoxin": {
        "original_name": "Neurotoxin",
        "value": "Other CNS neurotoxin",
        "links": [],
        "cross_references": []
      }
    },
    "diseases_processes_and_activities_linked_to_this_agent": {
      "processes": {
        "original_name": "Processes",
        "value": "Industrial Processes with risk of exposure: Semiconductor Manufacturing",
        "links": [
          {
            "text": "Semiconductor Manufacturing",
            "url": "https://haz-map.com/Processes/97"
          }
        ],
        "cross_references": [
          {
            "type": "url_match",
            "text": "Semiconductor Manufacturing",
            "url": "https://haz-map.com/Processes/97",
            "confidence": 1.0,
            "uuid": "a1adedb7-a724-4539-9aff-c43b42706b89",
            "name": "Semiconductor Manufacturing",
            "category": "processes"
          }
        ]
      }
    }
  },
  "cross_references": [
    {
      "type": "url_match",
      "text": "Semiconductor Manufacturing",
      "url": "https://haz-map.com/Processes/97",
      "confidence": 1.0,
      "uuid": "a1adedb7-a724-4539-9aff-c43b42706b89",
      "name": "Semiconductor Manufacturing",
      "category": "processes"
    },
    {
      "type": "name_match",
      "text": "boric acid",
      "confidence": 1.0,
      "uuid": "6ceb7ad0-b349-47a5-abd4-99fd72800e53",
      "name": "Boric acid",
      "url": "https://haz-map.com/Agents/1374",
      "category": "agents"
    },
    {
      "type": "name_match",
      "text": "trimethyl borate",
      "confidence": 1.0,
      "uuid": "557c3bfc-c060-4f26-a10e-cef34c1586cb",
      "name": "Trimethyl borate",
      "url": "https://haz-map.com/Agents/1486",
      "category": "agents"
    },
    {
      "type": "name_match",
      "text": "boron",
      "confidence": 1.0,
      "uuid": "539de4b5-2187-4144-ac60-98c577b00bca",
      "name": "Boron",
      "url": "https://haz-map.com/Agents/2001",
      "category": "agents"
    },
    {
      "type": "name_match",
      "text": "tributyl borate",
      "confidence": 1.0,
      "uuid": "bedc53ef-6f36-409c-a7a8-8ad062c9d705",
      "name": "Tributyl borate",
      "url": "https://haz-map.com/Agents/7513",
      "category": "agents"
    },
    {
      "type": "name_match",
      "text": "borane",
      "confidence": 1.0,
      "uuid": "a5e38655-49dd-4cdf-bbc0-f37c42350b45",
      "name": "Borane",
      "url": "https://haz-map.com/Agents/8317",
      "category": "agents"
    },
    {
      "type": "name_match",
      "text": "triethyl borate",
      "confidence": 1.0,
      "uuid": "ebe314fc-688b-424a-a7f6-2707b6e89da8",
      "name": "Triethyl borate",
      "url": "https://haz-map.com/Agents/18205",
      "category": "agents"
    },
    {
      "type": "name_match",
      "text": "water",
      "confidence": 1.0,
      "uuid": "6f2a7557-dfd2-49bc-9b4b-a93cd8e225d4",
      "name": "Water",
      "url": "https://haz-map.com/Agents/18668",
      "category": "agents"
    }
  ],
  "all_links": [
    {
      "text": "Search PubMed",
      "url": "https://www.ncbi.nlm.nih.gov/pubmed?term=Triethyl+borate%20AND%20human%5Bmh%5D%20AND%20%28Occupational%20Diseases%20%5Bmh%5D%20OR%20Occupational%20Exposure%20%5Bmh%5D%29%20%20AND%20%28tox%5Bsb%5D%29&cmd=search"
    },
    {
      "text": "Semiconductor Manufacturing",
      "url": "https://haz-map.com/Processes/97"
    }
  ]
}