{
  "metadata": {
    "scraped_from": "https://haz-map.com/Agents/8206",
    "entity_name": "Nonanenitrile",
    "category": "agents",
    "uuid": "ec321a16-8049-4e06-a74d-e71a4f90dec0",
    "scraped_at": "2025-07-23T20:23:29.096557"
  },
  "parsed_at": "2025-07-24T00:58:05.565922",
  "title": "Nonanenitrile",
  "sections": {
    "general": {
      "agent_name": {
        "original_name": "Agent Name",
        "value": "Nonanenitrile",
        "links": [],
        "cross_references": [
          {
            "type": "name_match",
            "text": "nonane",
            "confidence": 1.0,
            "uuid": "fe0f019a-d093-4bb9-a7d3-2f2ceaf91953",
            "name": "Nonane",
            "url": "https://haz-map.com/Agents/578",
            "category": "agents"
          },
          {
            "type": "name_match",
            "text": "nonanenitrile",
            "confidence": 1.0,
            "uuid": "ec321a16-8049-4e06-a74d-e71a4f90dec0",
            "name": "Nonanenitrile",
            "url": "https://haz-map.com/Agents/8206",
            "category": "agents"
          }
        ]
      },
      "cas_number": {
        "original_name": "CAS Number",
        "value": "2243-27-8",
        "links": [],
        "cross_references": []
      },
      "formula": {
        "original_name": "Formula",
        "value": "C9-H17-N",
        "links": [],
        "cross_references": []
      },
      "major_category": {
        "original_name": "Major Category",
        "value": "Nitrogen Compounds",
        "links": [],
        "cross_references": [
          {
            "type": "name_match",
            "text": "nitrogen",
            "confidence": 1.0,
            "uuid": "db5e90a9-06d2-45b9-8b81-f345a89b0bc0",
            "name": "Nitrogen",
            "url": "https://haz-map.com/Agents/1072",
            "category": "agents"
          }
        ]
      },
      "synonyms": {
        "original_name": "Synonyms",
        "value": "1-Cyanooctane; 1-Octyl cyanide; Nonanitrile; Nonanonitrile; Octyl cyanide; Pelargonitrile; Pelargononitrile; n-Nonanenitrile; n-Nonanonitrile; n-Octyl cyanide; n-Octylcyanide; [ChemIDplus]",
        "links": [],
        "cross_references": [
          {
            "type": "name_match",
            "text": "octane",
            "confidence": 1.0,
            "uuid": "feb2932c-69c5-4142-b6b6-bde017998940",
            "name": "Octane",
            "url": "https://haz-map.com/Agents/106",
            "category": "agents"
          },
          {
            "type": "name_match",
            "text": "nonane",
            "confidence": 1.0,
            "uuid": "fe0f019a-d093-4bb9-a7d3-2f2ceaf91953",
            "name": "Nonane",
            "url": "https://haz-map.com/Agents/578",
            "category": "agents"
          },
          {
            "type": "name_match",
            "text": "argon",
            "confidence": 1.0,
            "uuid": "317a0dc9-5edc-4a5b-8cfa-2b8de0621ac4",
            "name": "Argon",
            "url": "https://haz-map.com/Agents/1069",
            "category": "agents"
          },
          {
            "type": "name_match",
            "text": "nonanenitrile",
            "confidence": 1.0,
            "uuid": "ec321a16-8049-4e06-a74d-e71a4f90dec0",
            "name": "Nonanenitrile",
            "url": "https://haz-map.com/Agents/8206",
            "category": "agents"
          },
          {
            "type": "name_match",
            "text": "cyanide",
            "confidence": 1.0,
            "uuid": "0b4d38ba-cc5c-4386-8079-9e7ff8fb2d3a",
            "name": "Cyanide",
            "url": "https://haz-map.com/Agents/13350",
            "category": "agents"
          }
        ]
      },
      "category": {
        "original_name": "Category",
        "value": "Nitriles",
        "links": [],
        "cross_references": [
          {
            "type": "name_match",
            "text": "nitriles",
            "confidence": 1.0,
            "uuid": "41430895-c07a-4421-888b-3d7122a4cd55",
            "name": "NITRILES",
            "url": "https://haz-map.com/Agents/715",
            "category": "agents"
          }
        ]
      },
      "description": {
        "original_name": "Description",
        "value": "Colorless to yellow liquid; Almost insoluble in water; [MSDSonline]",
        "links": [],
        "cross_references": [
          {
            "type": "name_match",
            "text": "water",
            "confidence": 1.0,
            "uuid": "6f2a7557-dfd2-49bc-9b4b-a93cd8e225d4",
            "name": "Water",
            "url": "https://haz-map.com/Agents/18668",
            "category": "agents"
          }
        ]
      },
      "comments": {
        "original_name": "Comments",
        "value": "See \"NITRILES.\"",
        "links": [],
        "cross_references": [
          {
            "type": "name_match",
            "text": "nitriles",
            "confidence": 1.0,
            "uuid": "41430895-c07a-4421-888b-3d7122a4cd55",
            "name": "NITRILES",
            "url": "https://haz-map.com/Agents/715",
            "category": "agents"
          }
        ]
      },
      "biomedical_references": {
        "original_name": "Biomedical References",
        "value": "Search PubMed",
        "links": [
          {
            "text": "Search PubMed",
            "url": "https://www.ncbi.nlm.nih.gov/pubmed?term=Nonanenitrile%20AND%20human%5Bmh%5D%20AND%20%28Occupational%20Diseases%20%5Bmh%5D%20OR%20Occupational%20Exposure%20%5Bmh%5D%29%20%20AND%20%28tox%5Bsb%5D%29&cmd=search"
          }
        ],
        "cross_references": []
      }
    },
    "exposure_assessment": {
      "vapor_pressure": {
        "original_name": "Vapor Pressure",
        "value": "0.101 mm Hg",
        "links": [],
        "cross_references": []
      },
      "explanatory_notes": {
        "original_name": "Explanatory Notes",
        "value": "VP from ChemIDplus;",
        "links": [],
        "cross_references": []
      }
    },
    "adverse_effects": {
      "other_poison": {
        "original_name": "Other Poison",
        "value": "Chemical Asphyxiant",
        "links": [],
        "cross_references": [
          {
            "type": "name_match",
            "text": "mica",
            "confidence": 1.0,
            "uuid": "433f26f1-c399-4596-b179-ce3843cfd465",
            "name": "Mica",
            "url": "https://haz-map.com/Agents/621",
            "category": "agents"
          }
        ]
      }
    },
    "diseases_processes_and_activities_linked_to_this_agent": {
      "other_information": {
        "original_name": "Other Information",
        "value": "No other related information on this agent was found.",
        "links": [],
        "cross_references": []
      }
    }
  },
  "cross_references": [
    {
      "type": "name_match",
      "text": "octane",
      "confidence": 1.0,
      "uuid": "feb2932c-69c5-4142-b6b6-bde017998940",
      "name": "Octane",
      "url": "https://haz-map.com/Agents/106",
      "category": "agents"
    },
    {
      "type": "name_match",
      "text": "nonane",
      "confidence": 1.0,
      "uuid": "fe0f019a-d093-4bb9-a7d3-2f2ceaf91953",
      "name": "Nonane",
      "url": "https://haz-map.com/Agents/578",
      "category": "agents"
    },
    {
      "type": "name_match",
      "text": "mica",
      "confidence": 1.0,
      "uuid": "433f26f1-c399-4596-b179-ce3843cfd465",
      "name": "Mica",
      "url": "https://haz-map.com/Agents/621",
      "category": "agents"
    },
    {
      "type": "name_match",
      "text": "nitriles",
      "confidence": 1.0,
      "uuid": "41430895-c07a-4421-888b-3d7122a4cd55",
      "name": "NITRILES",
      "url": "https://haz-map.com/Agents/715",
      "category": "agents"
    },
    {
      "type": "name_match",
      "text": "argon",
      "confidence": 1.0,
      "uuid": "317a0dc9-5edc-4a5b-8cfa-2b8de0621ac4",
      "name": "Argon",
      "url": "https://haz-map.com/Agents/1069",
      "category": "agents"
    },
    {
      "type": "name_match",
      "text": "nitrogen",
      "confidence": 1.0,
      "uuid": "db5e90a9-06d2-45b9-8b81-f345a89b0bc0",
      "name": "Nitrogen",
      "url": "https://haz-map.com/Agents/1072",
      "category": "agents"
    },
    {
      "type": "name_match",
      "text": "nonanenitrile",
      "confidence": 1.0,
      "uuid": "ec321a16-8049-4e06-a74d-e71a4f90dec0",
      "name": "Nonanenitrile",
      "url": "https://haz-map.com/Agents/8206",
      "category": "agents"
    },
    {
      "type": "name_match",
      "text": "cyanide",
      "confidence": 1.0,
      "uuid": "0b4d38ba-cc5c-4386-8079-9e7ff8fb2d3a",
      "name": "Cyanide",
      "url": "https://haz-map.com/Agents/13350",
      "category": "agents"
    },
    {
      "type": "name_match",
      "text": "water",
      "confidence": 1.0,
      "uuid": "6f2a7557-dfd2-49bc-9b4b-a93cd8e225d4",
      "name": "Water",
      "url": "https://haz-map.com/Agents/18668",
      "category": "agents"
    }
  ],
  "all_links": [
    {
      "text": "Search PubMed",
      "url": "https://www.ncbi.nlm.nih.gov/pubmed?term=Nonanenitrile%20AND%20human%5Bmh%5D%20AND%20%28Occupational%20Diseases%20%5Bmh%5D%20OR%20Occupational%20Exposure%20%5Bmh%5D%29%20%20AND%20%28tox%5Bsb%5D%29&cmd=search"
    }
  ]
}