{
  "metadata": {
    "scraped_from": "https://haz-map.com/Agents/828",
    "entity_name": "Phenidone",
    "category": "agents",
    "uuid": "ec5fe5f3-8421-463a-80d5-423b901909e7",
    "scraped_at": "2025-07-23T18:49:03.622385"
  },
  "parsed_at": "2025-07-24T01:12:48.303305",
  "title": "Phenidone",
  "sections": {
    "general": {
      "agent_name": {
        "original_name": "Agent Name",
        "value": "Phenidone",
        "links": [],
        "cross_references": [
          {
            "type": "name_match",
            "text": "phenidone",
            "confidence": 1.0,
            "uuid": "ec5fe5f3-8421-463a-80d5-423b901909e7",
            "name": "Phenidone",
            "url": "https://haz-map.com/Agents/828",
            "category": "agents"
          }
        ]
      },
      "alternative_name": {
        "original_name": "Alternative Name",
        "value": "1-Phenyl-3-pyrazolidinone",
        "links": [],
        "cross_references": []
      },
      "cas_number": {
        "original_name": "CAS Number",
        "value": "92-43-3",
        "links": [],
        "cross_references": []
      },
      "formula": {
        "original_name": "Formula",
        "value": "C9-H10-N2-O",
        "links": [],
        "cross_references": []
      },
      "major_category": {
        "original_name": "Major Category",
        "value": "Nitrogen Compounds",
        "links": [],
        "cross_references": [
          {
            "type": "name_match",
            "text": "nitrogen",
            "confidence": 1.0,
            "uuid": "db5e90a9-06d2-45b9-8b81-f345a89b0bc0",
            "name": "Nitrogen",
            "url": "https://haz-map.com/Agents/1072",
            "category": "agents"
          }
        ]
      },
      "synonyms": {
        "original_name": "Synonyms",
        "value": "1-P-3-P; 1-Phenyl-3-oxopyrazolidine;1-Phenyl-3-pyrazolidone; 2-Pyrazolin-3-ol, 1-phenyl; Fenidon; 1-Phenyl-3-pyrazolidone; 2-Pyrazolin-3-ol, 1-phenyl- (7CI); 3-Pyrazolidinone, 1-phenyl-; [ChemIDplus] UN2811",
        "links": [],
        "cross_references": []
      },
      "category": {
        "original_name": "Category",
        "value": "Pyrazoles",
        "links": [],
        "cross_references": [
          {
            "type": "name_match",
            "text": "pyrazole",
            "confidence": 1.0,
            "uuid": "fb421227-9ca1-4832-91a0-448287f10e92",
            "name": "Pyrazole",
            "url": "https://haz-map.com/Agents/17016",
            "category": "agents"
          }
        ]
      },
      "description": {
        "original_name": "Description",
        "value": "Solid; [Merck Index] White powder; [Alfa Aesar MSDS]",
        "links": [],
        "cross_references": []
      },
      "sourcesuses": {
        "original_name": "Sources/Uses",
        "value": "Used as a non-staining, high-contrast photographic developer; [Merck Index] Used in photography (developer); [www.ci.tucson.az.us/arthazards/medium.html]",
        "links": [],
        "cross_references": [
          {
            "type": "name_match",
            "text": "ht",
            "confidence": 1.0,
            "uuid": "764df367-8d53-4a11-81a2-31ccfe122a8d",
            "name": "HT",
            "url": "https://haz-map.com/Agents/2168",
            "category": "agents"
          }
        ]
      },
      "comments": {
        "original_name": "Comments",
        "value": "Phenidone is one of the photographic chemicals in the supplemental patch testing tray sold by Chemotechnique. [Marks, Appendix] An irritant; Harmful by ingestion; [Alfa Aesar MSDS] See \"4-Hydroxymethyl-4-methyl-1-phenyl-3-pyrazolidinone.\"",
        "links": [],
        "cross_references": [
          {
            "type": "name_match",
            "text": "mica",
            "confidence": 1.0,
            "uuid": "433f26f1-c399-4596-b179-ce3843cfd465",
            "name": "Mica",
            "url": "https://haz-map.com/Agents/621",
            "category": "agents"
          },
          {
            "type": "name_match",
            "text": "phenidone",
            "confidence": 1.0,
            "uuid": "ec5fe5f3-8421-463a-80d5-423b901909e7",
            "name": "Phenidone",
            "url": "https://haz-map.com/Agents/828",
            "category": "agents"
          },
          {
            "type": "name_match",
            "text": "4-hydroxymethyl-4-methyl-1-phenyl-3-pyrazolidinone",
            "confidence": 1.0,
            "uuid": "2c87aa74-04ed-47bb-af65-bd3ba4012c17",
            "name": "4-Hydroxymethyl-4-methyl-1-phenyl-3-pyrazolidinone",
            "url": "https://haz-map.com/Agents/20050",
            "category": "agents"
          }
        ]
      },
      "biomedical_references": {
        "original_name": "Biomedical References",
        "value": "Search PubMed",
        "links": [
          {
            "text": "Search PubMed",
            "url": "https://www.ncbi.nlm.nih.gov/pubmed?term=Phenidone%20AND%20human%5Bmh%5D%20AND%20%28Occupational%20Diseases%20%5Bmh%5D%20OR%20Occupational%20Exposure%20%5Bmh%5D%29%20%20AND%20%28tox%5Bsb%5D%29&cmd=search"
          }
        ],
        "cross_references": []
      }
    },
    "exposure_assessment": {
      "vapor_pressure": {
        "original_name": "Vapor Pressure",
        "value": "1.63E-05 mm Hg",
        "links": [],
        "cross_references": []
      },
      "explanatory_notes": {
        "original_name": "Explanatory Notes",
        "value": "The Guide in the Emergency Response Guidebook is for \"Toxic solid, organic, n.o.s.\"",
        "links": [],
        "cross_references": []
      }
    },
    "adverse_effects": {
      "skin_sensitizer": {
        "original_name": "Skin Sensitizer",
        "value": "Yes",
        "links": [],
        "cross_references": []
      }
    },
    "diseases_processes_and_activities_linked_to_this_agent": {
      "diseases": {
        "original_name": "Diseases",
        "value": "Occupational diseases associated with exposure to this agent: Contact dermatitis, allergic",
        "links": [
          {
            "text": "Contact dermatitis, allergic",
            "url": "https://haz-map.com/Diseases/18"
          }
        ],
        "cross_references": [
          {
            "type": "url_match",
            "text": "Contact dermatitis, allergic",
            "url": "https://haz-map.com/Diseases/18",
            "confidence": 1.0,
            "uuid": "c9499de0-9aa1-41bf-8753-cd5b28a63e29",
            "name": "Contact dermatitis, allergic",
            "category": "diseases"
          },
          {
            "type": "name_match",
            "text": "dermatitis",
            "confidence": 1.0,
            "uuid": "fe9c05f2-b19f-4ceb-ac7a-ffb7d7a0cae0",
            "name": "dermatitis",
            "url": "https://haz-map.com/Findings/59",
            "category": "findings"
          }
        ]
      },
      "processes": {
        "original_name": "Processes",
        "value": "Industrial Processes with risk of exposure: Photographic Processing",
        "links": [
          {
            "text": "Photographic Processing",
            "url": "https://haz-map.com/Processes/231"
          }
        ],
        "cross_references": []
      }
    }
  },
  "cross_references": [
    {
      "type": "url_match",
      "text": "Contact dermatitis, allergic",
      "url": "https://haz-map.com/Diseases/18",
      "confidence": 1.0,
      "uuid": "c9499de0-9aa1-41bf-8753-cd5b28a63e29",
      "name": "Contact dermatitis, allergic",
      "category": "diseases"
    },
    {
      "type": "name_match",
      "text": "dermatitis",
      "confidence": 1.0,
      "uuid": "fe9c05f2-b19f-4ceb-ac7a-ffb7d7a0cae0",
      "name": "dermatitis",
      "url": "https://haz-map.com/Findings/59",
      "category": "findings"
    },
    {
      "type": "name_match",
      "text": "mica",
      "confidence": 1.0,
      "uuid": "433f26f1-c399-4596-b179-ce3843cfd465",
      "name": "Mica",
      "url": "https://haz-map.com/Agents/621",
      "category": "agents"
    },
    {
      "type": "name_match",
      "text": "phenidone",
      "confidence": 1.0,
      "uuid": "ec5fe5f3-8421-463a-80d5-423b901909e7",
      "name": "Phenidone",
      "url": "https://haz-map.com/Agents/828",
      "category": "agents"
    },
    {
      "type": "name_match",
      "text": "nitrogen",
      "confidence": 1.0,
      "uuid": "db5e90a9-06d2-45b9-8b81-f345a89b0bc0",
      "name": "Nitrogen",
      "url": "https://haz-map.com/Agents/1072",
      "category": "agents"
    },
    {
      "type": "name_match",
      "text": "ht",
      "confidence": 1.0,
      "uuid": "764df367-8d53-4a11-81a2-31ccfe122a8d",
      "name": "HT",
      "url": "https://haz-map.com/Agents/2168",
      "category": "agents"
    },
    {
      "type": "name_match",
      "text": "pyrazole",
      "confidence": 1.0,
      "uuid": "fb421227-9ca1-4832-91a0-448287f10e92",
      "name": "Pyrazole",
      "url": "https://haz-map.com/Agents/17016",
      "category": "agents"
    },
    {
      "type": "name_match",
      "text": "4-hydroxymethyl-4-methyl-1-phenyl-3-pyrazolidinone",
      "confidence": 1.0,
      "uuid": "2c87aa74-04ed-47bb-af65-bd3ba4012c17",
      "name": "4-Hydroxymethyl-4-methyl-1-phenyl-3-pyrazolidinone",
      "url": "https://haz-map.com/Agents/20050",
      "category": "agents"
    }
  ],
  "all_links": [
    {
      "text": "Search PubMed",
      "url": "https://www.ncbi.nlm.nih.gov/pubmed?term=Phenidone%20AND%20human%5Bmh%5D%20AND%20%28Occupational%20Diseases%20%5Bmh%5D%20OR%20Occupational%20Exposure%20%5Bmh%5D%29%20%20AND%20%28tox%5Bsb%5D%29&cmd=search"
    },
    {
      "text": "Contact dermatitis, allergic",
      "url": "https://haz-map.com/Diseases/18"
    },
    {
      "text": "Photographic Processing",
      "url": "https://haz-map.com/Processes/231"
    }
  ]
}