{
  "metadata": {
    "scraped_from": "https://haz-map.com/Agents/16285",
    "entity_name": "Orcinol",
    "category": "agents",
    "uuid": "ec7be405-d3a6-4ffe-a998-44bdf8777b2a",
    "scraped_at": "2025-07-23T21:36:02.098485"
  },
  "parsed_at": "2025-07-24T00:59:46.244896",
  "title": "Orcinol",
  "sections": {
    "general": {
      "agent_name": {
        "original_name": "Agent Name",
        "value": "Orcinol",
        "links": [],
        "cross_references": [
          {
            "type": "name_match",
            "text": "orcinol",
            "confidence": 1.0,
            "uuid": "ec7be405-d3a6-4ffe-a998-44bdf8777b2a",
            "name": "Orcinol",
            "url": "https://haz-map.com/Agents/16285",
            "category": "agents"
          }
        ]
      },
      "cas_number": {
        "original_name": "CAS Number",
        "value": "504-15-4",
        "links": [],
        "cross_references": []
      },
      "formula": {
        "original_name": "Formula",
        "value": "C7-H8-O2",
        "links": [],
        "cross_references": []
      },
      "major_category": {
        "original_name": "Major Category",
        "value": "Other Classes",
        "links": [],
        "cross_references": []
      },
      "synonyms": {
        "original_name": "Synonyms",
        "value": "1,3-Dihydroxy-5-methylbenzene; 3,5-Dihydroxytoluene; 3-Hydroxy-5-methylphenol; 5-Methyl-1,3-benzenediol; 5-Methylresorcin; 5-Methylresorcinol; Orcin; Orcinol, 5-methylresorcinol; 1,3-Benzenediol, 5-methyl-; Resorcinol, 5-methyl-; [ChemIDplus]",
        "links": [],
        "cross_references": [
          {
            "type": "name_match",
            "text": "benzene",
            "confidence": 1.0,
            "uuid": "b05124de-5f34-4c14-8f04-ccb20c3780d9",
            "name": "Benzene",
            "url": "https://haz-map.com/Agents/5",
            "category": "agents"
          },
          {
            "type": "name_match",
            "text": "toluene",
            "confidence": 1.0,
            "uuid": "0a34d5de-e924-4c47-aff5-7ae8e48c6772",
            "name": "Toluene",
            "url": "https://haz-map.com/Agents/83",
            "category": "agents"
          },
          {
            "type": "name_match",
            "text": "phenol",
            "confidence": 1.0,
            "uuid": "03141a03-a7df-4f51-9a37-adde1a7c4b31",
            "name": "Phenol",
            "url": "https://haz-map.com/Agents/84",
            "category": "agents"
          },
          {
            "type": "name_match",
            "text": "resorcinol",
            "confidence": 1.0,
            "uuid": "ae206fe4-b82a-4fe5-80a6-c479c171146e",
            "name": "Resorcinol",
            "url": "https://haz-map.com/Agents/617",
            "category": "agents"
          },
          {
            "type": "name_match",
            "text": "orcinol",
            "confidence": 1.0,
            "uuid": "ec7be405-d3a6-4ffe-a998-44bdf8777b2a",
            "name": "Orcinol",
            "url": "https://haz-map.com/Agents/16285",
            "category": "agents"
          }
        ]
      },
      "category": {
        "original_name": "Category",
        "value": "Phenols",
        "links": [],
        "cross_references": [
          {
            "type": "name_match",
            "text": "phenol",
            "confidence": 1.0,
            "uuid": "03141a03-a7df-4f51-9a37-adde1a7c4b31",
            "name": "Phenol",
            "url": "https://haz-map.com/Agents/84",
            "category": "agents"
          }
        ]
      },
      "description": {
        "original_name": "Description",
        "value": "Solid; [Sigma-Aldrich MSDS]",
        "links": [],
        "cross_references": []
      },
      "sourcesuses": {
        "original_name": "Sources/Uses",
        "value": "Found in many lichen species; Used as a reagent for pentoses, lignin, beet sugar, saccharoses, arabinose, and diastase; [Merck Index]",
        "links": [],
        "cross_references": []
      },
      "comments": {
        "original_name": "Comments",
        "value": "Causes convulsions and coma in subcutaneous lethal-dose studies of guinea pigs and rats; [RTECS] A skin and strong eye irritant; Harmful by ingestion; Prolonged or repeated exposure may cause eye injury; [Sigma-Aldrich MSDS] See \"2-Methyl-1,4-hydroquinone,\" \"1,3-Benzenediol, 2-methyl-,\" \"Resorcinol,\" and \"Cresol, all isomers.\"",
        "links": [],
        "cross_references": [
          {
            "type": "name_match",
            "text": "convulsion",
            "confidence": 1.0,
            "uuid": "af2c36f8-707a-48e3-a62b-1aa07adc9b72",
            "name": "convulsion",
            "url": "https://haz-map.com/Findings/14",
            "category": "findings"
          },
          {
            "type": "name_match",
            "text": "benzene",
            "confidence": 1.0,
            "uuid": "b05124de-5f34-4c14-8f04-ccb20c3780d9",
            "name": "Benzene",
            "url": "https://haz-map.com/Agents/5",
            "category": "agents"
          },
          {
            "type": "name_match",
            "text": "quinone",
            "confidence": 1.0,
            "uuid": "d01e66c3-ad06-4707-8d42-3c6655001c1a",
            "name": "Quinone",
            "url": "https://haz-map.com/Agents/303",
            "category": "agents"
          },
          {
            "type": "name_match",
            "text": "cresol, all isomers",
            "confidence": 1.0,
            "uuid": "2981dc61-5553-4f51-ad9b-6ad43f2673ba",
            "name": "Cresol, all isomers",
            "url": "https://haz-map.com/Agents/377",
            "category": "agents"
          },
          {
            "type": "name_match",
            "text": "hydroquinone",
            "confidence": 1.0,
            "uuid": "814158df-432a-4bfa-b22a-481088e15397",
            "name": "Hydroquinone",
            "url": "https://haz-map.com/Agents/518",
            "category": "agents"
          },
          {
            "type": "name_match",
            "text": "resorcinol",
            "confidence": 1.0,
            "uuid": "ae206fe4-b82a-4fe5-80a6-c479c171146e",
            "name": "Resorcinol",
            "url": "https://haz-map.com/Agents/617",
            "category": "agents"
          },
          {
            "type": "name_match",
            "text": "1,3-benzenediol, 2-methyl-",
            "confidence": 1.0,
            "uuid": "d76ca723-a0b7-4253-acd3-5a52fd564156",
            "name": "1,3-Benzenediol, 2-methyl-",
            "url": "https://haz-map.com/Agents/10075",
            "category": "agents"
          },
          {
            "type": "name_match",
            "text": "2-methyl-1,4-hydroquinone",
            "confidence": 1.0,
            "uuid": "efeb79fa-bfe2-4e2f-b17d-d338ef065b35",
            "name": "2-Methyl-1,4-hydroquinone",
            "url": "https://haz-map.com/Agents/10902",
            "category": "agents"
          },
          {
            "type": "name_match",
            "text": "orcinol",
            "confidence": 1.0,
            "uuid": "ec7be405-d3a6-4ffe-a998-44bdf8777b2a",
            "name": "Orcinol",
            "url": "https://haz-map.com/Agents/16285",
            "category": "agents"
          }
        ]
      },
      "biomedical_references": {
        "original_name": "Biomedical References",
        "value": "Search PubMed",
        "links": [
          {
            "text": "Search PubMed",
            "url": "https://www.ncbi.nlm.nih.gov/pubmed?term=Orcinol%20AND%20human%5Bmh%5D%20AND%20%28Occupational%20Diseases%20%5Bmh%5D%20OR%20Occupational%20Exposure%20%5Bmh%5D%29%20%20AND%20%28tox%5Bsb%5D%29&cmd=search"
          }
        ],
        "cross_references": []
      }
    },
    "exposure_assessment": {
      "vapor_pressure": {
        "original_name": "Vapor Pressure",
        "value": "0.0028 mm Hg",
        "links": [],
        "cross_references": []
      }
    },
    "diseases_processes_and_activities_linked_to_this_agent": {
      "other_information": {
        "original_name": "Other Information",
        "value": "No other related information on this agent was found.",
        "links": [],
        "cross_references": []
      }
    }
  },
  "cross_references": [
    {
      "type": "name_match",
      "text": "convulsion",
      "confidence": 1.0,
      "uuid": "af2c36f8-707a-48e3-a62b-1aa07adc9b72",
      "name": "convulsion",
      "url": "https://haz-map.com/Findings/14",
      "category": "findings"
    },
    {
      "type": "name_match",
      "text": "benzene",
      "confidence": 1.0,
      "uuid": "b05124de-5f34-4c14-8f04-ccb20c3780d9",
      "name": "Benzene",
      "url": "https://haz-map.com/Agents/5",
      "category": "agents"
    },
    {
      "type": "name_match",
      "text": "toluene",
      "confidence": 1.0,
      "uuid": "0a34d5de-e924-4c47-aff5-7ae8e48c6772",
      "name": "Toluene",
      "url": "https://haz-map.com/Agents/83",
      "category": "agents"
    },
    {
      "type": "name_match",
      "text": "phenol",
      "confidence": 1.0,
      "uuid": "03141a03-a7df-4f51-9a37-adde1a7c4b31",
      "name": "Phenol",
      "url": "https://haz-map.com/Agents/84",
      "category": "agents"
    },
    {
      "type": "name_match",
      "text": "quinone",
      "confidence": 1.0,
      "uuid": "d01e66c3-ad06-4707-8d42-3c6655001c1a",
      "name": "Quinone",
      "url": "https://haz-map.com/Agents/303",
      "category": "agents"
    },
    {
      "type": "name_match",
      "text": "cresol, all isomers",
      "confidence": 1.0,
      "uuid": "2981dc61-5553-4f51-ad9b-6ad43f2673ba",
      "name": "Cresol, all isomers",
      "url": "https://haz-map.com/Agents/377",
      "category": "agents"
    },
    {
      "type": "name_match",
      "text": "hydroquinone",
      "confidence": 1.0,
      "uuid": "814158df-432a-4bfa-b22a-481088e15397",
      "name": "Hydroquinone",
      "url": "https://haz-map.com/Agents/518",
      "category": "agents"
    },
    {
      "type": "name_match",
      "text": "resorcinol",
      "confidence": 1.0,
      "uuid": "ae206fe4-b82a-4fe5-80a6-c479c171146e",
      "name": "Resorcinol",
      "url": "https://haz-map.com/Agents/617",
      "category": "agents"
    },
    {
      "type": "name_match",
      "text": "1,3-benzenediol, 2-methyl-",
      "confidence": 1.0,
      "uuid": "d76ca723-a0b7-4253-acd3-5a52fd564156",
      "name": "1,3-Benzenediol, 2-methyl-",
      "url": "https://haz-map.com/Agents/10075",
      "category": "agents"
    },
    {
      "type": "name_match",
      "text": "2-methyl-1,4-hydroquinone",
      "confidence": 1.0,
      "uuid": "efeb79fa-bfe2-4e2f-b17d-d338ef065b35",
      "name": "2-Methyl-1,4-hydroquinone",
      "url": "https://haz-map.com/Agents/10902",
      "category": "agents"
    },
    {
      "type": "name_match",
      "text": "orcinol",
      "confidence": 1.0,
      "uuid": "ec7be405-d3a6-4ffe-a998-44bdf8777b2a",
      "name": "Orcinol",
      "url": "https://haz-map.com/Agents/16285",
      "category": "agents"
    }
  ],
  "all_links": [
    {
      "text": "Search PubMed",
      "url": "https://www.ncbi.nlm.nih.gov/pubmed?term=Orcinol%20AND%20human%5Bmh%5D%20AND%20%28Occupational%20Diseases%20%5Bmh%5D%20OR%20Occupational%20Exposure%20%5Bmh%5D%29%20%20AND%20%28tox%5Bsb%5D%29&cmd=search"
    }
  ]
}