{
  "metadata": {
    "scraped_from": "https://haz-map.com/Agents/2890",
    "entity_name": "Cetyl alcohol",
    "category": "agents",
    "uuid": "ecc78178-8f91-489b-b318-466be569eca4",
    "scraped_at": "2025-07-23T19:20:33.833940"
  },
  "parsed_at": "2025-07-24T00:55:00.972447",
  "title": "Cetyl alcohol",
  "sections": {
    "general": {
      "agent_name": {
        "original_name": "Agent Name",
        "value": "Cetyl alcohol",
        "links": [],
        "cross_references": [
          {
            "type": "name_match",
            "text": "cetyl alcohol",
            "confidence": 1.0,
            "uuid": "ecc78178-8f91-489b-b318-466be569eca4",
            "name": "Cetyl alcohol",
            "url": "https://haz-map.com/Agents/2890",
            "category": "agents"
          }
        ]
      },
      "alternative_name": {
        "original_name": "Alternative Name",
        "value": "1-Hexadecanol",
        "links": [],
        "cross_references": []
      },
      "cas_number": {
        "original_name": "CAS Number",
        "value": "36653-82-4",
        "links": [],
        "cross_references": []
      },
      "formula": {
        "original_name": "Formula",
        "value": "C16-H34-O",
        "links": [],
        "cross_references": []
      },
      "major_category": {
        "original_name": "Major Category",
        "value": "Other Classes",
        "links": [],
        "cross_references": []
      },
      "synonyms": {
        "original_name": "Synonyms",
        "value": "1-Hexadecanol; 1-Cetanol; 1-Hexadecyl alc; 1-Hexadecyl alcohol; Adol; Adol 52; Adol 52 NF; Adol 520; Adol 54; Alcohol C-16; Aldol 54; Alfol 16; Atalco C; C16 alcohol; CO-1670; CO-1695; Cachalot C-50; Cachalot C-51; Cachalot C-52; Cetaffine; Cetal; Cetalol CA; Cetanol; Cetylic alcohol; Cetylol; Crodacol C; Crodacol-CAS; Crodacol-CAT; Dytol F-11; EPAL 16NF; Elfacos C; Ethal; Ethol; Fatty alcohol(C16); Hexadecan-1-ol; Hexadecanol; Hexadecanol (VAN); Hexadecyl alcohol; Hexadecyl alcohol, normal; Hyfatol; Hyfatol 16; Lanol C; Lorol 24; Loxanol K; Loxanol K Extra; Loxanwachs SK; N-Hexadecanol; N-Hexadecyl alcohol; Normal primary hexadecyl alcohol; Palmityl alcohol; Product 308; Siponol CC; Siponol Wax-A; n-1-Hexadecanol; n-Cetyl alcohol; n-Hexadecanol; n-Hexadecyl alcohol; [ChemIDplus]",
        "links": [],
        "cross_references": [
          {
            "type": "name_match",
            "text": "cetyl alcohol",
            "confidence": 1.0,
            "uuid": "ecc78178-8f91-489b-b318-466be569eca4",
            "name": "Cetyl alcohol",
            "url": "https://haz-map.com/Agents/2890",
            "category": "agents"
          }
        ]
      },
      "category": {
        "original_name": "Category",
        "value": "Alcohols and Polyols, Other",
        "links": [],
        "cross_references": []
      },
      "description": {
        "original_name": "Description",
        "value": "White solid; [Hawley]",
        "links": [],
        "cross_references": []
      },
      "sourcesuses": {
        "original_name": "Sources/Uses",
        "value": "Used in cosmetics, pharmaceuticals, perfumes, and shampoos (emollient and emulsion modifier) and to make face creams, lotions, lipsticks, toilet preparations, and antiperspirant sticks; Also used as a coupling agent, foam stabilizer in detergents, base for making sulfonated fatty acids, monomer lubricant in suspension polymerization, and to retard evaporation of water when spread as a film on reservoirs or sprayed on growing plants; [HSDB]",
        "links": [],
        "cross_references": [
          {
            "type": "name_match",
            "text": "pharmaceuticals",
            "confidence": 1.0,
            "uuid": "713c3c30-b67e-4a2f-a90f-b32f8a306332",
            "name": "PHARMACEUTICALS",
            "url": "https://haz-map.com/Agents/1000",
            "category": "agents"
          },
          {
            "type": "name_match",
            "text": "water",
            "confidence": 1.0,
            "uuid": "6f2a7557-dfd2-49bc-9b4b-a93cd8e225d4",
            "name": "Water",
            "url": "https://haz-map.com/Agents/18668",
            "category": "agents"
          }
        ]
      },
      "comments": {
        "original_name": "Comments",
        "value": "Higher alcohols are not highly toxic in the industrial setting; Can cause liver injury, somnolence, and respiratory depression in experimental animals; [HSDB] In high-dose feeding studies, causes somnolence in rats and ataxia in dogs; [RTECS] Safe when used as a flavoring agent in food; [JECFA] An irritant; [MSDSonline]",
        "links": [],
        "cross_references": []
      },
      "biomedical_references": {
        "original_name": "Biomedical References",
        "value": "Search PubMed",
        "links": [
          {
            "text": "Search PubMed",
            "url": "https://www.ncbi.nlm.nih.gov/pubmed?term=Cetyl+alcohol%20AND%20human%5Bmh%5D%20AND%20%28Occupational%20Diseases%20%5Bmh%5D%20OR%20Occupational%20Exposure%20%5Bmh%5D%29%20%20AND%20%28tox%5Bsb%5D%29&cmd=search"
          }
        ],
        "cross_references": []
      }
    },
    "exposure_assessment": {
      "vapor_pressure": {
        "original_name": "Vapor Pressure",
        "value": "3.06E-06 mm Hg",
        "links": [],
        "cross_references": []
      },
      "lethal_concentration": {
        "original_name": "Lethal Concentration",
        "value": "LCLo (rat) = 2,220 mg/m3/6h",
        "links": [],
        "cross_references": []
      },
      "explanatory_notes": {
        "original_name": "Explanatory Notes",
        "value": "Flash point = 175 deg C; [eChemPortal: IUCLID] VP from ChemIDplus;",
        "links": [],
        "cross_references": [
          {
            "type": "name_match",
            "text": "ash",
            "confidence": 1.0,
            "uuid": "68b360f1-5ad0-4337-bea0-d7adca2961b5",
            "name": "Ash",
            "url": "https://haz-map.com/Agents/965",
            "category": "agents"
          }
        ]
      }
    },
    "adverse_effects": {
      "neurotoxin": {
        "original_name": "Neurotoxin",
        "value": "Acute solvent syndrome",
        "links": [],
        "cross_references": []
      },
      "hepatotoxin": {
        "original_name": "Hepatotoxin",
        "value": "Hepatoxic (a) from occupational exposure (secondary effect) or (b) in animal studies or in humans after ingestion",
        "links": [],
        "cross_references": []
      }
    },
    "diseases_processes_and_activities_linked_to_this_agent": {
      "diseases": {
        "original_name": "Diseases",
        "value": "Occupational diseases associated with exposure to this agent: Solvents, acute toxic effect",
        "links": [
          {
            "text": "Solvents, acute toxic effect",
            "url": "https://haz-map.com/Diseases/326"
          }
        ],
        "cross_references": [
          {
            "type": "url_match",
            "text": "Solvents, acute toxic effect",
            "url": "https://haz-map.com/Diseases/326",
            "confidence": 1.0,
            "uuid": "581e90e3-9d0c-45f0-aa6c-3468c28da129",
            "name": "Solvents, acute toxic effect",
            "category": "diseases"
          }
        ]
      },
      "processes": {
        "original_name": "Processes",
        "value": "Industrial Processes with risk of exposure: Dressing Hair",
        "links": [
          {
            "text": "Dressing Hair",
            "url": "https://haz-map.com/Processes/258"
          }
        ],
        "cross_references": []
      }
    }
  },
  "cross_references": [
    {
      "type": "url_match",
      "text": "Solvents, acute toxic effect",
      "url": "https://haz-map.com/Diseases/326",
      "confidence": 1.0,
      "uuid": "581e90e3-9d0c-45f0-aa6c-3468c28da129",
      "name": "Solvents, acute toxic effect",
      "category": "diseases"
    },
    {
      "type": "name_match",
      "text": "ash",
      "confidence": 1.0,
      "uuid": "68b360f1-5ad0-4337-bea0-d7adca2961b5",
      "name": "Ash",
      "url": "https://haz-map.com/Agents/965",
      "category": "agents"
    },
    {
      "type": "name_match",
      "text": "pharmaceuticals",
      "confidence": 1.0,
      "uuid": "713c3c30-b67e-4a2f-a90f-b32f8a306332",
      "name": "PHARMACEUTICALS",
      "url": "https://haz-map.com/Agents/1000",
      "category": "agents"
    },
    {
      "type": "name_match",
      "text": "cetyl alcohol",
      "confidence": 1.0,
      "uuid": "ecc78178-8f91-489b-b318-466be569eca4",
      "name": "Cetyl alcohol",
      "url": "https://haz-map.com/Agents/2890",
      "category": "agents"
    },
    {
      "type": "name_match",
      "text": "water",
      "confidence": 1.0,
      "uuid": "6f2a7557-dfd2-49bc-9b4b-a93cd8e225d4",
      "name": "Water",
      "url": "https://haz-map.com/Agents/18668",
      "category": "agents"
    }
  ],
  "all_links": [
    {
      "text": "Search PubMed",
      "url": "https://www.ncbi.nlm.nih.gov/pubmed?term=Cetyl+alcohol%20AND%20human%5Bmh%5D%20AND%20%28Occupational%20Diseases%20%5Bmh%5D%20OR%20Occupational%20Exposure%20%5Bmh%5D%29%20%20AND%20%28tox%5Bsb%5D%29&cmd=search"
    },
    {
      "text": "Solvents, acute toxic effect",
      "url": "https://haz-map.com/Diseases/326"
    },
    {
      "text": "Dressing Hair",
      "url": "https://haz-map.com/Processes/258"
    }
  ]
}