{
  "metadata": {
    "scraped_from": "https://haz-map.com/Agents/6671",
    "entity_name": "Phosalone",
    "category": "agents",
    "uuid": "ece13886-31d0-4497-a79a-2a59b70bf555",
    "scraped_at": "2025-07-23T20:04:16.557812"
  },
  "parsed_at": "2025-07-24T00:53:35.705524",
  "title": "Phosalone",
  "sections": {
    "general": {
      "agent_name": {
        "original_name": "Agent Name",
        "value": "Phosalone",
        "links": [],
        "cross_references": [
          {
            "type": "name_match",
            "text": "phosalone",
            "confidence": 1.0,
            "uuid": "ece13886-31d0-4497-a79a-2a59b70bf555",
            "name": "Phosalone",
            "url": "https://haz-map.com/Agents/6671",
            "category": "agents"
          }
        ]
      },
      "cas_number": {
        "original_name": "CAS Number",
        "value": "2310-17-0",
        "links": [],
        "cross_references": []
      },
      "formula": {
        "original_name": "Formula",
        "value": "C12-H15-Cl-N-O4-P-S2",
        "links": [],
        "cross_references": []
      },
      "major_category": {
        "original_name": "Major Category",
        "value": "Pesticides",
        "links": [],
        "cross_references": []
      },
      "synonyms": {
        "original_name": "Synonyms",
        "value": "Agria 1060 A; 11 974 RP; 3-(6-Chloro-2-oxobenzoxazolin-3-yl)methyl O,O-diethyl phosphorothiolothionate; 3-(6-Chloro-2-oxobenzoxazolin-3-yl)methyl-O,O-diethyl phosphorothiolothionate; 3-(O,O-Diethyldithiophosphorylmethyl)-6-chlorobenzoxazolinone; 3-(O,O-Diethyldithiophosphorylmethyl)-6-chlorobenzoxazolone; 3-Diethyldithiophosphorylmethyl-6-chlorobenzoxazolone-2; 6-Chloro-3-(O,O-diethyldithiophosphorylmethyl)benzoxazolone; 6-Chloro-3-diethoxyphosphinothioylthiomethyl-1,3-benzoxazol-2(3H)-one; Agria 1060; Azofene; Benzophosphate; Benzphos; Chipman 11974; ENT 27,163; Fosalon; Fozalon; NIA-9241; NPH-1091; Niagara 9241; O,O-Diaethyl-S-(6-chlor-2-oxo-ben(b)-1,3-oxalin-3-yl)-methyl-dithiophosphat [German]; O,O-Diethyl S-((6-chloro-2-oxobenzoxazolin-3-yl)methyl) phosphorodithioate; O,O-Diethyl phosphorodithioate, S-ester with 6-chloro-3-(mercaptomethyl)-2-benzoxazolinone; O,O-Diethyl-S-((6-chloor-2-oxo-benzoxazolin-3-yl)-methyl)-dithiofosfaat [Dutch]; O,O-Diethyl-S-(6-chloro-2-oxo-benzoxazolin-3-yl)methyl-phosphorothiolothionate; O,O-Diethyl-S-(6-chloro-2-oxobenzoxazolin-3-yl-methyl)-phosphorodithioate; O,O-Diethyl-S-(6-chlorobenzoxazonyl-3-methyl) dithiophosphate; O,O-Dietil-S-((6-cloro-2-oxo-benzossazolin-3-il)-metil)-ditiofosfato [Italian]; P 974; P-974; Phosalon; Phosalone 35 EC; Phosphorodithioic acid, O,O-diethyl ester, S-ester with 6-chloro-3-(mercaptomethyl)-2-benzoxazolinone; Phosphorodithioic acid-S-ester of 6-chloro-3-mercaptomethylbenzoxazyol-2-one; Phozalon; RP 11,974; Rhodia RP 11974; Rubitox; S-((3-Benzoxazolinyl-6-chloro-2-oxo)methyl) O,O-diethyl phosphorodithioate; S-((6-Chloro-2-oxo-3(2H)-benzoxazolyl)methyl) O,O-diethyl phosphorodithioate; S-(6-Chloro-2-oxobenzoxazolin-3-yl)methyl diethyl phosphorothiolothionate; S-(6-Chloro-3-(mercaptomethyl)-2-benzoxazolinone) O,O-diethyl phosphorodithioate; S-6-Chloro-2,3-dihydro-2-oxo-1,3-benzoxazol-3-ylmethyl O,O-diethyl phosphorodithioate; S-6-Chloro-2,3-dihydro-2-oxo-benzoxazol-3-ylmethyl O,O-diethyl phosphorodithioate; Zolone; Zolone DT; Zolone PM; Zone; [ChemIDplus] UN2783",
        "links": [],
        "cross_references": [
          {
            "type": "name_match",
            "text": "tali",
            "confidence": 1.0,
            "uuid": "8c3a0f99-2143-4122-b539-ec5cc49596b0",
            "name": "Tali",
            "url": "https://haz-map.com/Agents/1128",
            "category": "agents"
          },
          {
            "type": "name_match",
            "text": "phosalone",
            "confidence": 1.0,
            "uuid": "ece13886-31d0-4497-a79a-2a59b70bf555",
            "name": "Phosalone",
            "url": "https://haz-map.com/Agents/6671",
            "category": "agents"
          },
          {
            "type": "name_match",
            "text": "o,o-diethyl phosphorodithioate",
            "confidence": 1.0,
            "uuid": "ba11ef42-b3aa-4424-a2e7-10d0f2b38f5e",
            "name": "O,O-Diethyl phosphorodithioate",
            "url": "https://haz-map.com/Agents/6687",
            "category": "agents"
          },
          {
            "type": "name_match",
            "text": "agar",
            "confidence": 1.0,
            "uuid": "6736375b-51bf-4ffa-9f36-f145228d4f0d",
            "name": "Agar",
            "url": "https://haz-map.com/Agents/11402",
            "category": "agents"
          }
        ]
      },
      "category": {
        "original_name": "Category",
        "value": "Organophosphate Insecticides",
        "links": [],
        "cross_references": []
      },
      "description": {
        "original_name": "Description",
        "value": "Colorless or white solid; [ICSC] Odor like garlic; [HSDB] White crystals; [MSDSonline]",
        "links": [],
        "cross_references": [
          {
            "type": "name_match",
            "text": "garlic",
            "confidence": 1.0,
            "uuid": "b7d2adf7-e077-462e-ad96-e04fd354df5f",
            "name": "Garlic",
            "url": "https://haz-map.com/Agents/892",
            "category": "agents"
          }
        ]
      },
      "sourcesuses": {
        "original_name": "Sources/Uses",
        "value": "Used as insecticide and acaricide for fruits, vegetables, ornamentals, and other crops; Still used in many countries; [HSDB] Import tolerances for almonds, grapes, apples, and other fruits grown in countries with active registrations; [Reference #1]",
        "links": [],
        "cross_references": []
      },
      "comments": {
        "original_name": "Comments",
        "value": "A skin, eye, and respiratory tract irritant; Can be absorbed through skin; A weak cholinesterase inhibitor; [ICSC] Effects in animal studies include zonal hepatitis; [RTECS] May cause skin sensitization; [eChemPortal: ESIS] “The average of two baseline respective cholinesterase activity determinations three days apart, with no exposures to enzyme inhibiting pesticides for at least 30 days, is recommended for each worker prior to exposure to cholinesterase inhibitors because of large inter-individual differences in published baseline values. To be established at least once a year. Removal from workplace exposures is recommended until the cholinesterase activity returns to within 20% of baseline.” [TLVs and BEIs]",
        "links": [],
        "cross_references": [
          {
            "type": "name_match",
            "text": "choline",
            "confidence": 1.0,
            "uuid": "a21a71e9-9d67-4563-9da2-98c4dcb1b766",
            "name": "Choline",
            "url": "https://haz-map.com/Agents/12978",
            "category": "agents"
          }
        ]
      },
      "restricted": {
        "original_name": "Restricted",
        "value": "Cancelled--no longer registered as a pesticide for use in the US; [HSDB] Banned in the EU for use as pesticide for plant protection; [eChemPortal: ESIS]",
        "links": [],
        "cross_references": []
      },
      "reference_link_1": {
        "original_name": "Reference Link #1",
        "value": "EPA Pesticide Chemical Search",
        "links": [
          {
            "text": "EPA Pesticide Chemical Search",
            "url": "https://iaspub.epa.gov/apex/pesticides/f?p=CHEMICALSEARCH:1:"
          }
        ],
        "cross_references": [
          {
            "type": "name_match",
            "text": "mica",
            "confidence": 1.0,
            "uuid": "433f26f1-c399-4596-b179-ce3843cfd465",
            "name": "Mica",
            "url": "https://haz-map.com/Agents/621",
            "category": "agents"
          }
        ]
      },
      "biomedical_references": {
        "original_name": "Biomedical References",
        "value": "Search PubMed",
        "links": [
          {
            "text": "Search PubMed",
            "url": "https://www.ncbi.nlm.nih.gov/pubmed?term=Phosalone%20AND%20human%5Bmh%5D%20AND%20%28Occupational%20Diseases%20%5Bmh%5D%20OR%20Occupational%20Exposure%20%5Bmh%5D%29%20%20AND%20%28tox%5Bsb%5D%29&cmd=search"
          }
        ],
        "cross_references": []
      }
    },
    "exposure_assessment": {
      "bei": {
        "original_name": "BEI",
        "value": "Acetylcholinesterase activity in red blood cells = 70% of individual's baseline; Butylcholinesterase activity in serum or plasma = 60% of individual's baseline; Sample at end of shift; [TLVs and BEIs]",
        "links": [],
        "cross_references": [
          {
            "type": "name_match",
            "text": "choline",
            "confidence": 1.0,
            "uuid": "a21a71e9-9d67-4563-9da2-98c4dcb1b766",
            "name": "Choline",
            "url": "https://haz-map.com/Agents/12978",
            "category": "agents"
          }
        ]
      },
      "vapor_pressure": {
        "original_name": "Vapor Pressure",
        "value": "4.54E-08 mm Hg",
        "links": [],
        "cross_references": []
      },
      "explanatory_notes": {
        "original_name": "Explanatory Notes",
        "value": "The Guide in the Emergency Response Guidebook is for \"Organophosphorus pesticide, solid, toxic.\"",
        "links": [],
        "cross_references": []
      }
    },
    "adverse_effects": {
      "hepatotoxin": {
        "original_name": "Hepatotoxin",
        "value": "Hepatoxic (a) from occupational exposure (secondary effect) or (b) in animal studies or in humans after ingestion",
        "links": [],
        "cross_references": []
      },
      "other_poison": {
        "original_name": "Other Poison",
        "value": "Organophosphate",
        "links": [],
        "cross_references": []
      }
    },
    "diseases_processes_and_activities_linked_to_this_agent": {
      "diseases": {
        "original_name": "Diseases",
        "value": "Occupational diseases associated with exposure to this agent: Organophosphates & carbamates, acute poisoning",
        "links": [
          {
            "text": "Organophosphates & carbamates, acute poisoning",
            "url": "https://haz-map.com/Diseases/66"
          }
        ],
        "cross_references": [
          {
            "type": "url_match",
            "text": "Organophosphates & carbamates, acute poisoning",
            "url": "https://haz-map.com/Diseases/66",
            "confidence": 1.0,
            "uuid": "aea2cba9-fb36-463f-84d8-b819551bb327",
            "name": "Organophosphates & carbamates, acute poisoning",
            "category": "diseases"
          },
          {
            "type": "name_match",
            "text": "organophosphates",
            "confidence": 1.0,
            "uuid": "8d2d239c-20f9-4f02-9916-5e7667b9990c",
            "name": "ORGANOPHOSPHATES",
            "url": "https://haz-map.com/Agents/702",
            "category": "agents"
          }
        ]
      },
      "processes": {
        "original_name": "Processes",
        "value": "Industrial Processes with risk of exposure: Farming (Pesticides)",
        "links": [
          {
            "text": "Farming (Pesticides)",
            "url": "https://haz-map.com/Processes/218"
          }
        ],
        "cross_references": [
          {
            "type": "url_match",
            "text": "Farming (Pesticides)",
            "url": "https://haz-map.com/Processes/218",
            "confidence": 1.0,
            "uuid": "cf1e5815-c9bb-4917-82a5-391848170b7e",
            "name": "Farming (Pesticides)",
            "category": "processes"
          }
        ]
      }
    }
  },
  "cross_references": [
    {
      "type": "url_match",
      "text": "Organophosphates & carbamates, acute poisoning",
      "url": "https://haz-map.com/Diseases/66",
      "confidence": 1.0,
      "uuid": "aea2cba9-fb36-463f-84d8-b819551bb327",
      "name": "Organophosphates & carbamates, acute poisoning",
      "category": "diseases"
    },
    {
      "type": "url_match",
      "text": "Farming (Pesticides)",
      "url": "https://haz-map.com/Processes/218",
      "confidence": 1.0,
      "uuid": "cf1e5815-c9bb-4917-82a5-391848170b7e",
      "name": "Farming (Pesticides)",
      "category": "processes"
    },
    {
      "type": "name_match",
      "text": "mica",
      "confidence": 1.0,
      "uuid": "433f26f1-c399-4596-b179-ce3843cfd465",
      "name": "Mica",
      "url": "https://haz-map.com/Agents/621",
      "category": "agents"
    },
    {
      "type": "name_match",
      "text": "organophosphates",
      "confidence": 1.0,
      "uuid": "8d2d239c-20f9-4f02-9916-5e7667b9990c",
      "name": "ORGANOPHOSPHATES",
      "url": "https://haz-map.com/Agents/702",
      "category": "agents"
    },
    {
      "type": "name_match",
      "text": "garlic",
      "confidence": 1.0,
      "uuid": "b7d2adf7-e077-462e-ad96-e04fd354df5f",
      "name": "Garlic",
      "url": "https://haz-map.com/Agents/892",
      "category": "agents"
    },
    {
      "type": "name_match",
      "text": "tali",
      "confidence": 1.0,
      "uuid": "8c3a0f99-2143-4122-b539-ec5cc49596b0",
      "name": "Tali",
      "url": "https://haz-map.com/Agents/1128",
      "category": "agents"
    },
    {
      "type": "name_match",
      "text": "phosalone",
      "confidence": 1.0,
      "uuid": "ece13886-31d0-4497-a79a-2a59b70bf555",
      "name": "Phosalone",
      "url": "https://haz-map.com/Agents/6671",
      "category": "agents"
    },
    {
      "type": "name_match",
      "text": "o,o-diethyl phosphorodithioate",
      "confidence": 1.0,
      "uuid": "ba11ef42-b3aa-4424-a2e7-10d0f2b38f5e",
      "name": "O,O-Diethyl phosphorodithioate",
      "url": "https://haz-map.com/Agents/6687",
      "category": "agents"
    },
    {
      "type": "name_match",
      "text": "agar",
      "confidence": 1.0,
      "uuid": "6736375b-51bf-4ffa-9f36-f145228d4f0d",
      "name": "Agar",
      "url": "https://haz-map.com/Agents/11402",
      "category": "agents"
    },
    {
      "type": "name_match",
      "text": "choline",
      "confidence": 1.0,
      "uuid": "a21a71e9-9d67-4563-9da2-98c4dcb1b766",
      "name": "Choline",
      "url": "https://haz-map.com/Agents/12978",
      "category": "agents"
    }
  ],
  "all_links": [
    {
      "text": "EPA Pesticide Chemical Search",
      "url": "https://iaspub.epa.gov/apex/pesticides/f?p=CHEMICALSEARCH:1:"
    },
    {
      "text": "Search PubMed",
      "url": "https://www.ncbi.nlm.nih.gov/pubmed?term=Phosalone%20AND%20human%5Bmh%5D%20AND%20%28Occupational%20Diseases%20%5Bmh%5D%20OR%20Occupational%20Exposure%20%5Bmh%5D%29%20%20AND%20%28tox%5Bsb%5D%29&cmd=search"
    },
    {
      "text": "Organophosphates & carbamates, acute poisoning",
      "url": "https://haz-map.com/Diseases/66"
    },
    {
      "text": "Farming (Pesticides)",
      "url": "https://haz-map.com/Processes/218"
    }
  ]
}