{
  "metadata": {
    "scraped_from": "https://haz-map.com/Agents/20127",
    "entity_name": "7,8-Benzoquinoline",
    "category": "agents",
    "uuid": "ecf04ab1-8b58-440e-9988-84a9bba5e1a2",
    "scraped_at": "2025-07-23T22:19:33.684365"
  },
  "parsed_at": "2025-07-24T00:55:22.741625",
  "title": "7,8-Benzoquinoline",
  "sections": {
    "general": {
      "agent_name": {
        "original_name": "Agent Name",
        "value": "7,8-Benzoquinoline",
        "links": [],
        "cross_references": [
          {
            "type": "name_match",
            "text": "quinoline",
            "confidence": 1.0,
            "uuid": "ba9097a5-8299-4dfd-a74a-f179b7d465d1",
            "name": "Quinoline",
            "url": "https://haz-map.com/Agents/6937",
            "category": "agents"
          },
          {
            "type": "name_match",
            "text": "benzoquinoline",
            "confidence": 1.0,
            "uuid": "ff633d21-881d-407f-8e49-4b8e6d0a2534",
            "name": "Benzoquinoline",
            "url": "https://haz-map.com/Agents/12227",
            "category": "agents"
          },
          {
            "type": "name_match",
            "text": "7,8-benzoquinoline",
            "confidence": 1.0,
            "uuid": "ecf04ab1-8b58-440e-9988-84a9bba5e1a2",
            "name": "7,8-Benzoquinoline",
            "url": "https://haz-map.com/Agents/20127",
            "category": "agents"
          }
        ]
      },
      "cas_number": {
        "original_name": "CAS Number",
        "value": "230-27-3",
        "links": [],
        "cross_references": []
      },
      "formula": {
        "original_name": "Formula",
        "value": "C13-H9-N",
        "links": [],
        "cross_references": []
      },
      "major_category": {
        "original_name": "Major Category",
        "value": "Nitrogen Compounds",
        "links": [],
        "cross_references": [
          {
            "type": "name_match",
            "text": "nitrogen",
            "confidence": 1.0,
            "uuid": "db5e90a9-06d2-45b9-8b81-f345a89b0bc0",
            "name": "Nitrogen",
            "url": "https://haz-map.com/Agents/1072",
            "category": "agents"
          }
        ]
      },
      "synonyms": {
        "original_name": "Synonyms",
        "value": "4-Azaphenanthrene; 7,8-Benzo(h)quinoline; alpha-Benzoquinoline; alpha-Naphthoquinoline; Benzo(h)quinoline; [ChemIDplus] 1-Naphthoquinoline; [Sigma-Aldrich MSDS]",
        "links": [],
        "cross_references": [
          {
            "type": "name_match",
            "text": "ht",
            "confidence": 1.0,
            "uuid": "764df367-8d53-4a11-81a2-31ccfe122a8d",
            "name": "HT",
            "url": "https://haz-map.com/Agents/2168",
            "category": "agents"
          },
          {
            "type": "name_match",
            "text": "quinoline",
            "confidence": 1.0,
            "uuid": "ba9097a5-8299-4dfd-a74a-f179b7d465d1",
            "name": "Quinoline",
            "url": "https://haz-map.com/Agents/6937",
            "category": "agents"
          },
          {
            "type": "name_match",
            "text": "phenanthrene",
            "confidence": 1.0,
            "uuid": "46b9b367-bbde-4453-9fc0-b85eea1ca31a",
            "name": "Phenanthrene",
            "url": "https://haz-map.com/Agents/7861",
            "category": "agents"
          },
          {
            "type": "name_match",
            "text": "benzoquinoline",
            "confidence": 1.0,
            "uuid": "ff633d21-881d-407f-8e49-4b8e6d0a2534",
            "name": "Benzoquinoline",
            "url": "https://haz-map.com/Agents/12227",
            "category": "agents"
          }
        ]
      },
      "category": {
        "original_name": "Category",
        "value": "Quinolines",
        "links": [],
        "cross_references": [
          {
            "type": "name_match",
            "text": "quinoline",
            "confidence": 1.0,
            "uuid": "ba9097a5-8299-4dfd-a74a-f179b7d465d1",
            "name": "Quinoline",
            "url": "https://haz-map.com/Agents/6937",
            "category": "agents"
          }
        ]
      },
      "description": {
        "original_name": "Description",
        "value": "Dark yellow crystalline solid; [Sigma-Aldrich MSDS]",
        "links": [],
        "cross_references": [
          {
            "type": "fuzzy_match",
            "text": "crystalline",
            "matched_name": "Silica, crystalline",
            "confidence": 0.7061403508771931,
            "uuid": "f920e8a2-46df-41b7-af8d-0368a777251e",
            "category": "agents",
            "url": "https://haz-map.com/Agents/427"
          }
        ]
      },
      "comments": {
        "original_name": "Comments",
        "value": "May cause irritation; [Sigma-Aldrich MSDS]",
        "links": [],
        "cross_references": []
      },
      "biomedical_references": {
        "original_name": "Biomedical References",
        "value": "Search PubMed",
        "links": [
          {
            "text": "Search PubMed",
            "url": "https://www.ncbi.nlm.nih.gov/pubmed?term=7%2c8-Benzoquinoline%20AND%20human%5Bmh%5D%20AND%20%28Occupational%20Diseases%20%5Bmh%5D%20OR%20Occupational%20Exposure%20%5Bmh%5D%29%20%20AND%20%28tox%5Bsb%5D%29&cmd=search"
          }
        ],
        "cross_references": []
      }
    },
    "exposure_assessment": {
      "vapor_pressure": {
        "original_name": "Vapor Pressure",
        "value": "0.000218 mm Hg",
        "links": [],
        "cross_references": []
      }
    },
    "diseases_processes_and_activities_linked_to_this_agent": {
      "other_information": {
        "original_name": "Other Information",
        "value": "No other related information on this agent was found.",
        "links": [],
        "cross_references": []
      }
    }
  },
  "cross_references": [
    {
      "type": "name_match",
      "text": "nitrogen",
      "confidence": 1.0,
      "uuid": "db5e90a9-06d2-45b9-8b81-f345a89b0bc0",
      "name": "Nitrogen",
      "url": "https://haz-map.com/Agents/1072",
      "category": "agents"
    },
    {
      "type": "name_match",
      "text": "ht",
      "confidence": 1.0,
      "uuid": "764df367-8d53-4a11-81a2-31ccfe122a8d",
      "name": "HT",
      "url": "https://haz-map.com/Agents/2168",
      "category": "agents"
    },
    {
      "type": "name_match",
      "text": "quinoline",
      "confidence": 1.0,
      "uuid": "ba9097a5-8299-4dfd-a74a-f179b7d465d1",
      "name": "Quinoline",
      "url": "https://haz-map.com/Agents/6937",
      "category": "agents"
    },
    {
      "type": "name_match",
      "text": "phenanthrene",
      "confidence": 1.0,
      "uuid": "46b9b367-bbde-4453-9fc0-b85eea1ca31a",
      "name": "Phenanthrene",
      "url": "https://haz-map.com/Agents/7861",
      "category": "agents"
    },
    {
      "type": "name_match",
      "text": "benzoquinoline",
      "confidence": 1.0,
      "uuid": "ff633d21-881d-407f-8e49-4b8e6d0a2534",
      "name": "Benzoquinoline",
      "url": "https://haz-map.com/Agents/12227",
      "category": "agents"
    },
    {
      "type": "name_match",
      "text": "7,8-benzoquinoline",
      "confidence": 1.0,
      "uuid": "ecf04ab1-8b58-440e-9988-84a9bba5e1a2",
      "name": "7,8-Benzoquinoline",
      "url": "https://haz-map.com/Agents/20127",
      "category": "agents"
    },
    {
      "type": "fuzzy_match",
      "text": "crystalline",
      "matched_name": "Silica, crystalline",
      "confidence": 0.7061403508771931,
      "uuid": "f920e8a2-46df-41b7-af8d-0368a777251e",
      "category": "agents",
      "url": "https://haz-map.com/Agents/427"
    }
  ],
  "all_links": [
    {
      "text": "Search PubMed",
      "url": "https://www.ncbi.nlm.nih.gov/pubmed?term=7%2c8-Benzoquinoline%20AND%20human%5Bmh%5D%20AND%20%28Occupational%20Diseases%20%5Bmh%5D%20OR%20Occupational%20Exposure%20%5Bmh%5D%29%20%20AND%20%28tox%5Bsb%5D%29&cmd=search"
    }
  ]
}