{
  "metadata": {
    "scraped_from": "https://haz-map.com/Agents/19525",
    "entity_name": "2-Benzimidazolethiol",
    "category": "agents",
    "uuid": "ecf1219b-4759-41ad-ade3-06147f0be9a9",
    "scraped_at": "2025-07-23T22:07:53.926888"
  },
  "parsed_at": "2025-07-24T01:03:58.077503",
  "title": "2-Benzimidazolethiol",
  "sections": {
    "general": {
      "agent_name": {
        "original_name": "Agent Name",
        "value": "2-Benzimidazolethiol",
        "links": [],
        "cross_references": [
          {
            "type": "name_match",
            "text": "benzimidazole",
            "confidence": 1.0,
            "uuid": "c4af891e-415a-4fdf-bd5d-ad91665b9cca",
            "name": "Benzimidazole",
            "url": "https://haz-map.com/Agents/3848",
            "category": "agents"
          },
          {
            "type": "name_match",
            "text": "imidazole",
            "confidence": 1.0,
            "uuid": "c328c03e-2b26-487b-8c01-799a91dd318e",
            "name": "Imidazole",
            "url": "https://haz-map.com/Agents/18775",
            "category": "agents"
          },
          {
            "type": "name_match",
            "text": "2-benzimidazolethiol",
            "confidence": 1.0,
            "uuid": "ecf1219b-4759-41ad-ade3-06147f0be9a9",
            "name": "2-Benzimidazolethiol",
            "url": "https://haz-map.com/Agents/19525",
            "category": "agents"
          }
        ]
      },
      "cas_number": {
        "original_name": "CAS Number",
        "value": "583-39-1",
        "links": [],
        "cross_references": []
      },
      "formula": {
        "original_name": "Formula",
        "value": "C7-H6-N2-S",
        "links": [],
        "cross_references": []
      },
      "major_category": {
        "original_name": "Major Category",
        "value": "Nitrogen Compounds",
        "links": [],
        "cross_references": [
          {
            "type": "name_match",
            "text": "nitrogen",
            "confidence": 1.0,
            "uuid": "db5e90a9-06d2-45b9-8b81-f345a89b0bc0",
            "name": "Nitrogen",
            "url": "https://haz-map.com/Agents/1072",
            "category": "agents"
          }
        ]
      },
      "synonyms": {
        "original_name": "Synonyms",
        "value": "Benzimidazoline-2-thione; 1H-Benzimidazole-2-thiol; 2-Benzimidazolinethione; 2-Benzimidazolinthion [Czech]; 2-Mercaptobenzimidazole; 2-Mercaptobenzoimidazole; 2-Merkaptobenzimidazol [Czech]; 2-Thiobenzimidazole; 2-Thiol benzimidazole; Antiegene MB; Antigen MB; Antigene MB; Antioxidant MB [Czech]; AOMB; ASM MB; Benzimidazolethiol; Mercaptobenzimidazole; Mercaptobenzoimidazole; Merkaptobenzimidazol [Czech]; o-Phenylenethiourea; Permanax 21; 2H-Benzimidazole-2-thione, 1,3-dihydro-; Benzimidazole-2-thiol; [ChemIDplus] Antage MB; Antioxidant MB/K; AO-MB; 2-Benzimidazolethione; 2,3-Dihydro-1H-benzimidazole-2-thione; 1,3-Dihydro-2H-benzimidazole-2-thione; G 580; MB; MB/K; 2-Mercapto-1H-benzimidazole; Nocrac MB; Nonflex MB; Sumilizer MB; Vulkanox MB; Vulkanox MBI; [CAMEO] UN2811",
        "links": [],
        "cross_references": [
          {
            "type": "name_match",
            "text": "ethion",
            "confidence": 1.0,
            "uuid": "939737fc-7aa4-4626-9118-8460c75d6bda",
            "name": "Ethion",
            "url": "https://haz-map.com/Agents/265",
            "category": "agents"
          },
          {
            "type": "name_match",
            "text": "thiourea",
            "confidence": 1.0,
            "uuid": "9d84caab-5d53-428a-985f-be88dd4db13f",
            "name": "Thiourea",
            "url": "https://haz-map.com/Agents/998",
            "category": "agents"
          },
          {
            "type": "name_match",
            "text": "urea",
            "confidence": 1.0,
            "uuid": "a92a6129-bddd-4f79-9a78-136812ae610f",
            "name": "Urea",
            "url": "https://haz-map.com/Agents/2078",
            "category": "agents"
          },
          {
            "type": "name_match",
            "text": "benzimidazole",
            "confidence": 1.0,
            "uuid": "c4af891e-415a-4fdf-bd5d-ad91665b9cca",
            "name": "Benzimidazole",
            "url": "https://haz-map.com/Agents/3848",
            "category": "agents"
          },
          {
            "type": "name_match",
            "text": "imidazole",
            "confidence": 1.0,
            "uuid": "c328c03e-2b26-487b-8c01-799a91dd318e",
            "name": "Imidazole",
            "url": "https://haz-map.com/Agents/18775",
            "category": "agents"
          }
        ]
      },
      "category": {
        "original_name": "Category",
        "value": "Imidazoles",
        "links": [],
        "cross_references": [
          {
            "type": "name_match",
            "text": "imidazole",
            "confidence": 1.0,
            "uuid": "c328c03e-2b26-487b-8c01-799a91dd318e",
            "name": "Imidazole",
            "url": "https://haz-map.com/Agents/18775",
            "category": "agents"
          }
        ]
      },
      "description": {
        "original_name": "Description",
        "value": "Glistening solid; [Merck Index] White to yellow or cream solid with a mild odor; [CAMEO] Beige crystalline solid; [Sigma-Aldrich MSDS]",
        "links": [],
        "cross_references": [
          {
            "type": "fuzzy_match",
            "text": "crystalline",
            "matched_name": "Silica, crystalline",
            "confidence": 0.7061403508771931,
            "uuid": "f920e8a2-46df-41b7-af8d-0368a777251e",
            "category": "agents",
            "url": "https://haz-map.com/Agents/427"
          }
        ]
      },
      "sourcesuses": {
        "original_name": "Sources/Uses",
        "value": "\"Purine synthesis antimetabolite.\" [ChemIDplus] Used as an intermediate, in rubber product manufacturing, and electroplating, [ExPub: ECHA REACH Registrations]",
        "links": [],
        "cross_references": [
          {
            "type": "name_match",
            "text": "electroplating",
            "confidence": 1.0,
            "uuid": "ae1bd2c1-37de-4b26-82b6-47ee206af837",
            "name": "Electroplating",
            "url": "https://haz-map.com/Processes/66",
            "category": "processes"
          }
        ]
      },
      "comments": {
        "original_name": "Comments",
        "value": "A mild skin and eye irritant; Causes somnolence, ataxia, coma, changes in liver weight, and evidence of thyroid hypofunction in acute oral studies of rats; Causes changes in thymus and thyroid weights and changes in erythrocyte count in 13-week intermittent inhalation studies of rats; [RTECS] A skin and strong eye irritant; Toxic by ingestion; Harmful by inhalation and skin absorption; [Sigma-Aldrich MSDS] See \"Benzimidazole.\"",
        "links": [],
        "cross_references": [
          {
            "type": "name_match",
            "text": "ht",
            "confidence": 1.0,
            "uuid": "764df367-8d53-4a11-81a2-31ccfe122a8d",
            "name": "HT",
            "url": "https://haz-map.com/Agents/2168",
            "category": "agents"
          },
          {
            "type": "name_match",
            "text": "benzimidazole",
            "confidence": 1.0,
            "uuid": "c4af891e-415a-4fdf-bd5d-ad91665b9cca",
            "name": "Benzimidazole",
            "url": "https://haz-map.com/Agents/3848",
            "category": "agents"
          },
          {
            "type": "name_match",
            "text": "imidazole",
            "confidence": 1.0,
            "uuid": "c328c03e-2b26-487b-8c01-799a91dd318e",
            "name": "Imidazole",
            "url": "https://haz-map.com/Agents/18775",
            "category": "agents"
          }
        ]
      },
      "biomedical_references": {
        "original_name": "Biomedical References",
        "value": "Search PubMed",
        "links": [
          {
            "text": "Search PubMed",
            "url": "https://www.ncbi.nlm.nih.gov/pubmed?term=2-Benzimidazolethiol%20AND%20human%5Bmh%5D%20AND%20%28Occupational%20Diseases%20%5Bmh%5D%20OR%20Occupational%20Exposure%20%5Bmh%5D%29%20%20AND%20%28tox%5Bsb%5D%29&cmd=search"
          }
        ],
        "cross_references": []
      }
    },
    "exposure_assessment": {
      "vapor_pressure": {
        "original_name": "Vapor Pressure",
        "value": "4.66E-06 mm Hg",
        "links": [],
        "cross_references": []
      },
      "explanatory_notes": {
        "original_name": "Explanatory Notes",
        "value": "The Guide in the Emergency Response Guidebook is for \"Toxic solid, organic, n.o.s.\"",
        "links": [],
        "cross_references": []
      }
    },
    "diseases_processes_and_activities_linked_to_this_agent": {
      "processes": {
        "original_name": "Processes",
        "value": "Industrial Processes with risk of exposure: Electroplating",
        "links": [
          {
            "text": "Electroplating",
            "url": "https://haz-map.com/Processes/66"
          }
        ],
        "cross_references": [
          {
            "type": "url_match",
            "text": "Electroplating",
            "url": "https://haz-map.com/Processes/66",
            "confidence": 1.0,
            "uuid": "ae1bd2c1-37de-4b26-82b6-47ee206af837",
            "name": "Electroplating",
            "category": "processes"
          }
        ]
      }
    }
  },
  "cross_references": [
    {
      "type": "url_match",
      "text": "Electroplating",
      "url": "https://haz-map.com/Processes/66",
      "confidence": 1.0,
      "uuid": "ae1bd2c1-37de-4b26-82b6-47ee206af837",
      "name": "Electroplating",
      "category": "processes"
    },
    {
      "type": "name_match",
      "text": "ethion",
      "confidence": 1.0,
      "uuid": "939737fc-7aa4-4626-9118-8460c75d6bda",
      "name": "Ethion",
      "url": "https://haz-map.com/Agents/265",
      "category": "agents"
    },
    {
      "type": "name_match",
      "text": "thiourea",
      "confidence": 1.0,
      "uuid": "9d84caab-5d53-428a-985f-be88dd4db13f",
      "name": "Thiourea",
      "url": "https://haz-map.com/Agents/998",
      "category": "agents"
    },
    {
      "type": "name_match",
      "text": "nitrogen",
      "confidence": 1.0,
      "uuid": "db5e90a9-06d2-45b9-8b81-f345a89b0bc0",
      "name": "Nitrogen",
      "url": "https://haz-map.com/Agents/1072",
      "category": "agents"
    },
    {
      "type": "name_match",
      "text": "urea",
      "confidence": 1.0,
      "uuid": "a92a6129-bddd-4f79-9a78-136812ae610f",
      "name": "Urea",
      "url": "https://haz-map.com/Agents/2078",
      "category": "agents"
    },
    {
      "type": "name_match",
      "text": "ht",
      "confidence": 1.0,
      "uuid": "764df367-8d53-4a11-81a2-31ccfe122a8d",
      "name": "HT",
      "url": "https://haz-map.com/Agents/2168",
      "category": "agents"
    },
    {
      "type": "name_match",
      "text": "benzimidazole",
      "confidence": 1.0,
      "uuid": "c4af891e-415a-4fdf-bd5d-ad91665b9cca",
      "name": "Benzimidazole",
      "url": "https://haz-map.com/Agents/3848",
      "category": "agents"
    },
    {
      "type": "name_match",
      "text": "imidazole",
      "confidence": 1.0,
      "uuid": "c328c03e-2b26-487b-8c01-799a91dd318e",
      "name": "Imidazole",
      "url": "https://haz-map.com/Agents/18775",
      "category": "agents"
    },
    {
      "type": "name_match",
      "text": "2-benzimidazolethiol",
      "confidence": 1.0,
      "uuid": "ecf1219b-4759-41ad-ade3-06147f0be9a9",
      "name": "2-Benzimidazolethiol",
      "url": "https://haz-map.com/Agents/19525",
      "category": "agents"
    },
    {
      "type": "fuzzy_match",
      "text": "crystalline",
      "matched_name": "Silica, crystalline",
      "confidence": 0.7061403508771931,
      "uuid": "f920e8a2-46df-41b7-af8d-0368a777251e",
      "category": "agents",
      "url": "https://haz-map.com/Agents/427"
    }
  ],
  "all_links": [
    {
      "text": "Search PubMed",
      "url": "https://www.ncbi.nlm.nih.gov/pubmed?term=2-Benzimidazolethiol%20AND%20human%5Bmh%5D%20AND%20%28Occupational%20Diseases%20%5Bmh%5D%20OR%20Occupational%20Exposure%20%5Bmh%5D%29%20%20AND%20%28tox%5Bsb%5D%29&cmd=search"
    },
    {
      "text": "Electroplating",
      "url": "https://haz-map.com/Processes/66"
    }
  ]
}