{
  "metadata": {
    "scraped_from": "https://haz-map.com/Agents/5728",
    "entity_name": "Isopropyl palmitate",
    "category": "agents",
    "uuid": "ecf1ce67-0c53-4ed6-aa9b-27d94b8326c5",
    "scraped_at": "2025-07-23T19:55:34.965585"
  },
  "parsed_at": "2025-07-24T01:11:34.030274",
  "title": "Isopropyl palmitate",
  "sections": {
    "general": {
      "agent_name": {
        "original_name": "Agent Name",
        "value": "Isopropyl palmitate",
        "links": [],
        "cross_references": [
          {
            "type": "name_match",
            "text": "isopropyl palmitate",
            "confidence": 1.0,
            "uuid": "ecf1ce67-0c53-4ed6-aa9b-27d94b8326c5",
            "name": "Isopropyl palmitate",
            "url": "https://haz-map.com/Agents/5728",
            "category": "agents"
          }
        ]
      },
      "cas_number": {
        "original_name": "CAS Number",
        "value": "142-91-6",
        "links": [],
        "cross_references": []
      },
      "formula": {
        "original_name": "Formula",
        "value": "C19-H38-O2",
        "links": [],
        "cross_references": []
      },
      "major_category": {
        "original_name": "Major Category",
        "value": "Other Uses",
        "links": [],
        "cross_references": []
      },
      "synonyms": {
        "original_name": "Synonyms",
        "value": "1-Methylethyl hexadecanoate; Crodamol IPP; Deltyl; Deltyl Prime; Emcol-IP; Emerest 2316; Estol 103; Hexadecanoic acid, 1-methylethyl ester; Hexadecanoic acid, isopropyl ester; Isopal; Isopalm; Isopropyl hexadecanoate; Isopropyl n-hexadecanoate; JA-FA IPP; JA-FA IPPKessco; Kessco IPP; Kessco isopropyl palmitate; Nikkol IPP; Palmitic acid, isopropyl ester; Plymouth IPP; Propal; Sinnoester PIT; Starfol IPP; Stepan D-70; Tegester isopalm; Unimate IPP; Wickenol 111; [ChemIDplus]",
        "links": [],
        "cross_references": [
          {
            "type": "name_match",
            "text": "isopropyl palmitate",
            "confidence": 1.0,
            "uuid": "ecf1ce67-0c53-4ed6-aa9b-27d94b8326c5",
            "name": "Isopropyl palmitate",
            "url": "https://haz-map.com/Agents/5728",
            "category": "agents"
          },
          {
            "type": "name_match",
            "text": "palmitic acid",
            "confidence": 1.0,
            "uuid": "9a0987be-5bc6-483b-8daf-6ed89325a82c",
            "name": "Palmitic acid",
            "url": "https://haz-map.com/Agents/6518",
            "category": "agents"
          }
        ]
      },
      "category": {
        "original_name": "Category",
        "value": "Emulsifiers/Surfactants",
        "links": [],
        "cross_references": []
      },
      "description": {
        "original_name": "Description",
        "value": "Colorless liquid; mp = 14 deg C; [Hawley] Colorless liquid; mp = 11-13 deg C; [MSDSonline]",
        "links": [],
        "cross_references": []
      },
      "sourcesuses": {
        "original_name": "Sources/Uses",
        "value": "Used as emollient and emulsifier (cosmetics and topical medicines) and as plasticizer; [HSDB] Used for chemical synthesis, metal extraction or refining and processing of metals, textile processing, and in lubricants and additives; [IUCLID]",
        "links": [],
        "cross_references": [
          {
            "type": "name_match",
            "text": "mica",
            "confidence": 1.0,
            "uuid": "433f26f1-c399-4596-b179-ce3843cfd465",
            "name": "Mica",
            "url": "https://haz-map.com/Agents/621",
            "category": "agents"
          }
        ]
      },
      "comments": {
        "original_name": "Comments",
        "value": "A skin irritant; [SAX] An irritant; [MSDSonline]",
        "links": [],
        "cross_references": []
      },
      "biomedical_references": {
        "original_name": "Biomedical References",
        "value": "Search PubMed",
        "links": [
          {
            "text": "Search PubMed",
            "url": "https://www.ncbi.nlm.nih.gov/pubmed?term=Isopropyl+palmitate%20AND%20human%5Bmh%5D%20AND%20%28Occupational%20Diseases%20%5Bmh%5D%20OR%20Occupational%20Exposure%20%5Bmh%5D%29%20%20AND%20%28tox%5Bsb%5D%29&cmd=search"
          }
        ],
        "cross_references": []
      }
    },
    "exposure_assessment": {
      "vapor_pressure": {
        "original_name": "Vapor Pressure",
        "value": "5.59E-05 mm Hg",
        "links": [],
        "cross_references": []
      }
    },
    "diseases_processes_and_activities_linked_to_this_agent": {
      "processes": {
        "original_name": "Processes",
        "value": "Industrial Processes with risk of exposure: Metal Extraction and Refining Textiles (Fiber & Fabric Manufacturing)",
        "links": [
          {
            "text": "Metal Extraction and Refining",
            "url": "https://haz-map.com/Processes/261"
          },
          {
            "text": "Textiles (Fiber & Fabric Manufacturing)",
            "url": "https://haz-map.com/Processes/135"
          }
        ],
        "cross_references": [
          {
            "type": "url_match",
            "text": "Textiles (Fiber & Fabric Manufacturing)",
            "url": "https://haz-map.com/Processes/135",
            "confidence": 1.0,
            "uuid": "43ebdcdb-bb09-4402-87b6-ae8cf169dddd",
            "name": "Textiles (Fiber & Fabric Manufacturing)",
            "category": "processes"
          }
        ]
      }
    }
  },
  "cross_references": [
    {
      "type": "url_match",
      "text": "Textiles (Fiber & Fabric Manufacturing)",
      "url": "https://haz-map.com/Processes/135",
      "confidence": 1.0,
      "uuid": "43ebdcdb-bb09-4402-87b6-ae8cf169dddd",
      "name": "Textiles (Fiber & Fabric Manufacturing)",
      "category": "processes"
    },
    {
      "type": "name_match",
      "text": "mica",
      "confidence": 1.0,
      "uuid": "433f26f1-c399-4596-b179-ce3843cfd465",
      "name": "Mica",
      "url": "https://haz-map.com/Agents/621",
      "category": "agents"
    },
    {
      "type": "name_match",
      "text": "isopropyl palmitate",
      "confidence": 1.0,
      "uuid": "ecf1ce67-0c53-4ed6-aa9b-27d94b8326c5",
      "name": "Isopropyl palmitate",
      "url": "https://haz-map.com/Agents/5728",
      "category": "agents"
    },
    {
      "type": "name_match",
      "text": "palmitic acid",
      "confidence": 1.0,
      "uuid": "9a0987be-5bc6-483b-8daf-6ed89325a82c",
      "name": "Palmitic acid",
      "url": "https://haz-map.com/Agents/6518",
      "category": "agents"
    }
  ],
  "all_links": [
    {
      "text": "Search PubMed",
      "url": "https://www.ncbi.nlm.nih.gov/pubmed?term=Isopropyl+palmitate%20AND%20human%5Bmh%5D%20AND%20%28Occupational%20Diseases%20%5Bmh%5D%20OR%20Occupational%20Exposure%20%5Bmh%5D%29%20%20AND%20%28tox%5Bsb%5D%29&cmd=search"
    },
    {
      "text": "Metal Extraction and Refining",
      "url": "https://haz-map.com/Processes/261"
    },
    {
      "text": "Textiles (Fiber & Fabric Manufacturing)",
      "url": "https://haz-map.com/Processes/135"
    }
  ]
}