{
  "metadata": {
    "scraped_from": "https://haz-map.com/Agents/4889",
    "entity_name": "Diisobutyl carbinol",
    "category": "agents",
    "uuid": "ecf65f87-2e38-4cc4-b8e0-07c3bd882b15",
    "scraped_at": "2025-07-23T19:46:12.652448"
  },
  "parsed_at": "2025-07-24T01:05:01.692667",
  "title": "Diisobutyl carbinol",
  "sections": {
    "general": {
      "agent_name": {
        "original_name": "Agent Name",
        "value": "Diisobutyl carbinol",
        "links": [],
        "cross_references": [
          {
            "type": "name_match",
            "text": "diisobutyl carbinol",
            "confidence": 1.0,
            "uuid": "ecf65f87-2e38-4cc4-b8e0-07c3bd882b15",
            "name": "Diisobutyl carbinol",
            "url": "https://haz-map.com/Agents/4889",
            "category": "agents"
          }
        ]
      },
      "cas_number": {
        "original_name": "CAS Number",
        "value": "108-82-7",
        "links": [],
        "cross_references": []
      },
      "formula": {
        "original_name": "Formula",
        "value": "C9-H20-O",
        "links": [],
        "cross_references": []
      },
      "major_category": {
        "original_name": "Major Category",
        "value": "Solvents",
        "links": [],
        "cross_references": []
      },
      "synonyms": {
        "original_name": "Synonyms",
        "value": "2,6-Dimethyl heptanol-4; 2,6-Dimethyl-4-heptanol; 4-Heptanol, 2,6-dimethyl-; 4-Hydroxy-2,6-dimethyl heptane; Diisobutylcarbinol; Nonyl alcohol, secondary; sec-Nonyl alcohol; [ChemIDplus] UN1987",
        "links": [],
        "cross_references": [
          {
            "type": "name_match",
            "text": "4-heptanol",
            "confidence": 1.0,
            "uuid": "20510bff-b10c-48d1-b450-3bb88f699f27",
            "name": "4-Heptanol",
            "url": "https://haz-map.com/Agents/11102",
            "category": "agents"
          }
        ]
      },
      "category": {
        "original_name": "Category",
        "value": "Alcohols (<C12)",
        "links": [],
        "cross_references": []
      },
      "description": {
        "original_name": "Description",
        "value": "Colorless liquid; [HSDB]",
        "links": [],
        "cross_references": []
      },
      "sourcesuses": {
        "original_name": "Sources/Uses",
        "value": "Used as solvent for coating compositions of urea or melamine resins and to make lubricant additives and plasticizers; Also used in surface-active agents, rubber chemicals, flotation agents, antifoam agents, and flavors; [HSDB]",
        "links": [],
        "cross_references": [
          {
            "type": "name_match",
            "text": "mica",
            "confidence": 1.0,
            "uuid": "433f26f1-c399-4596-b179-ce3843cfd465",
            "name": "Mica",
            "url": "https://haz-map.com/Agents/621",
            "category": "agents"
          },
          {
            "type": "name_match",
            "text": "urea",
            "confidence": 1.0,
            "uuid": "a92a6129-bddd-4f79-9a78-136812ae610f",
            "name": "Urea",
            "url": "https://haz-map.com/Agents/2078",
            "category": "agents"
          },
          {
            "type": "name_match",
            "text": "melamine",
            "confidence": 1.0,
            "uuid": "1af502ac-9bf4-4fc2-8142-c9c7ed98b8ef",
            "name": "Melamine",
            "url": "https://haz-map.com/Agents/5935",
            "category": "agents"
          }
        ]
      },
      "comments": {
        "original_name": "Comments",
        "value": "An eye irritant; [HSDB] Effects in animal experiments include general anesthesia; Causes changes to liver after administration to rabbits by skin absorption; [RTECS] May cause irritation; [MSDSonline]",
        "links": [],
        "cross_references": []
      },
      "biomedical_references": {
        "original_name": "Biomedical References",
        "value": "Search PubMed",
        "links": [
          {
            "text": "Search PubMed",
            "url": "https://www.ncbi.nlm.nih.gov/pubmed?term=Diisobutyl+carbinol%20AND%20human%5Bmh%5D%20AND%20%28Occupational%20Diseases%20%5Bmh%5D%20OR%20Occupational%20Exposure%20%5Bmh%5D%29%20%20AND%20%28tox%5Bsb%5D%29&cmd=search"
          }
        ],
        "cross_references": []
      }
    },
    "exposure_assessment": {
      "vapor_pressure": {
        "original_name": "Vapor Pressure",
        "value": "0.303 mm Hg",
        "links": [],
        "cross_references": []
      },
      "explanatory_notes": {
        "original_name": "Explanatory Notes",
        "value": "The Guide in the Emergency Response Guidebook is for \"Alcohols, n.o.s.\" VP from ChemIDplus;",
        "links": [],
        "cross_references": []
      },
      "nfpa": {
        "original_name": "NFPA",
        "value": "high ambient temp required",
        "links": [],
        "cross_references": []
      }
    },
    "adverse_effects": {
      "neurotoxin": {
        "original_name": "Neurotoxin",
        "value": "Acute solvent syndrome",
        "links": [],
        "cross_references": []
      },
      "hepatotoxin": {
        "original_name": "Hepatotoxin",
        "value": "Hepatoxic (a) from occupational exposure (secondary effect) or (b) in animal studies or in humans after ingestion",
        "links": [],
        "cross_references": []
      }
    },
    "diseases_processes_and_activities_linked_to_this_agent": {
      "diseases": {
        "original_name": "Diseases",
        "value": "Occupational diseases associated with exposure to this agent: Solvents, acute toxic effect",
        "links": [
          {
            "text": "Solvents, acute toxic effect",
            "url": "https://haz-map.com/Diseases/326"
          }
        ],
        "cross_references": [
          {
            "type": "url_match",
            "text": "Solvents, acute toxic effect",
            "url": "https://haz-map.com/Diseases/326",
            "confidence": 1.0,
            "uuid": "581e90e3-9d0c-45f0-aa6c-3468c28da129",
            "name": "Solvents, acute toxic effect",
            "category": "diseases"
          }
        ]
      }
    }
  },
  "cross_references": [
    {
      "type": "url_match",
      "text": "Solvents, acute toxic effect",
      "url": "https://haz-map.com/Diseases/326",
      "confidence": 1.0,
      "uuid": "581e90e3-9d0c-45f0-aa6c-3468c28da129",
      "name": "Solvents, acute toxic effect",
      "category": "diseases"
    },
    {
      "type": "name_match",
      "text": "mica",
      "confidence": 1.0,
      "uuid": "433f26f1-c399-4596-b179-ce3843cfd465",
      "name": "Mica",
      "url": "https://haz-map.com/Agents/621",
      "category": "agents"
    },
    {
      "type": "name_match",
      "text": "urea",
      "confidence": 1.0,
      "uuid": "a92a6129-bddd-4f79-9a78-136812ae610f",
      "name": "Urea",
      "url": "https://haz-map.com/Agents/2078",
      "category": "agents"
    },
    {
      "type": "name_match",
      "text": "diisobutyl carbinol",
      "confidence": 1.0,
      "uuid": "ecf65f87-2e38-4cc4-b8e0-07c3bd882b15",
      "name": "Diisobutyl carbinol",
      "url": "https://haz-map.com/Agents/4889",
      "category": "agents"
    },
    {
      "type": "name_match",
      "text": "melamine",
      "confidence": 1.0,
      "uuid": "1af502ac-9bf4-4fc2-8142-c9c7ed98b8ef",
      "name": "Melamine",
      "url": "https://haz-map.com/Agents/5935",
      "category": "agents"
    },
    {
      "type": "name_match",
      "text": "4-heptanol",
      "confidence": 1.0,
      "uuid": "20510bff-b10c-48d1-b450-3bb88f699f27",
      "name": "4-Heptanol",
      "url": "https://haz-map.com/Agents/11102",
      "category": "agents"
    }
  ],
  "all_links": [
    {
      "text": "Search PubMed",
      "url": "https://www.ncbi.nlm.nih.gov/pubmed?term=Diisobutyl+carbinol%20AND%20human%5Bmh%5D%20AND%20%28Occupational%20Diseases%20%5Bmh%5D%20OR%20Occupational%20Exposure%20%5Bmh%5D%29%20%20AND%20%28tox%5Bsb%5D%29&cmd=search"
    },
    {
      "text": "Solvents, acute toxic effect",
      "url": "https://haz-map.com/Diseases/326"
    }
  ]
}