{
  "metadata": {
    "scraped_from": "https://haz-map.com/Agents/12877",
    "entity_name": "Cetyl vinyl ether",
    "category": "agents",
    "uuid": "ed116091-e9d0-4bec-9ea2-81f99575cdbc",
    "scraped_at": "2025-07-23T21:10:50.557831"
  },
  "parsed_at": "2025-07-24T01:04:51.607723",
  "title": "Cetyl vinyl ether",
  "sections": {
    "general": {
      "agent_name": {
        "original_name": "Agent Name",
        "value": "Cetyl vinyl ether",
        "links": [],
        "cross_references": [
          {
            "type": "name_match",
            "text": "cetyl vinyl ether",
            "confidence": 1.0,
            "uuid": "ed116091-e9d0-4bec-9ea2-81f99575cdbc",
            "name": "Cetyl vinyl ether",
            "url": "https://haz-map.com/Agents/12877",
            "category": "agents"
          }
        ]
      },
      "cas_number": {
        "original_name": "CAS Number",
        "value": "822-28-6",
        "links": [],
        "cross_references": []
      },
      "formula": {
        "original_name": "Formula",
        "value": "C18-H36-O",
        "links": [],
        "cross_references": []
      },
      "major_category": {
        "original_name": "Major Category",
        "value": "Other Classes",
        "links": [],
        "cross_references": []
      },
      "synonyms": {
        "original_name": "Synonyms",
        "value": "Vinyl cetyl ether; 1-Vinyloxyhexadecane; Ether, hexadecyl vinyl (8CI); Hexadecane, 1-(ethenyloxy)-; [ChemIDplus]",
        "links": [],
        "cross_references": [
          {
            "type": "name_match",
            "text": "hexadecane",
            "confidence": 1.0,
            "uuid": "c9e4222f-5899-4172-ab9b-49efb6c2ce75",
            "name": "Hexadecane",
            "url": "https://haz-map.com/Agents/1904",
            "category": "agents"
          }
        ]
      },
      "category": {
        "original_name": "Category",
        "value": "Ethers, Other",
        "links": [],
        "cross_references": []
      },
      "description": {
        "original_name": "Description",
        "value": "Melting point = 16 deg C; [ChemIDplus]",
        "links": [],
        "cross_references": []
      },
      "biomedical_references": {
        "original_name": "Biomedical References",
        "value": "Search PubMed",
        "links": [
          {
            "text": "Search PubMed",
            "url": "https://www.ncbi.nlm.nih.gov/pubmed?term=Cetyl+vinyl+ether%20AND%20human%5Bmh%5D%20AND%20%28Occupational%20Diseases%20%5Bmh%5D%20OR%20Occupational%20Exposure%20%5Bmh%5D%29%20%20AND%20%28tox%5Bsb%5D%29&cmd=search"
          }
        ],
        "cross_references": []
      }
    },
    "diseases_processes_and_activities_linked_to_this_agent": {
      "other_information": {
        "original_name": "Other Information",
        "value": "No other related information on this agent was found.",
        "links": [],
        "cross_references": []
      }
    }
  },
  "cross_references": [
    {
      "type": "name_match",
      "text": "hexadecane",
      "confidence": 1.0,
      "uuid": "c9e4222f-5899-4172-ab9b-49efb6c2ce75",
      "name": "Hexadecane",
      "url": "https://haz-map.com/Agents/1904",
      "category": "agents"
    },
    {
      "type": "name_match",
      "text": "cetyl vinyl ether",
      "confidence": 1.0,
      "uuid": "ed116091-e9d0-4bec-9ea2-81f99575cdbc",
      "name": "Cetyl vinyl ether",
      "url": "https://haz-map.com/Agents/12877",
      "category": "agents"
    }
  ],
  "all_links": [
    {
      "text": "Search PubMed",
      "url": "https://www.ncbi.nlm.nih.gov/pubmed?term=Cetyl+vinyl+ether%20AND%20human%5Bmh%5D%20AND%20%28Occupational%20Diseases%20%5Bmh%5D%20OR%20Occupational%20Exposure%20%5Bmh%5D%29%20%20AND%20%28tox%5Bsb%5D%29&cmd=search"
    }
  ]
}