{
  "metadata": {
    "scraped_from": "https://haz-map.com/Agents/2721",
    "entity_name": "1,2,3,5-Tetrachlorobenzene",
    "category": "agents",
    "uuid": "ed987ae3-d79b-499d-8137-8c1bc4d2f4fe",
    "scraped_at": "2025-07-23T19:18:04.570335"
  },
  "parsed_at": "2025-07-24T00:59:18.835671",
  "title": "1,2,3,5-Tetrachlorobenzene",
  "sections": {
    "general": {
      "agent_name": {
        "original_name": "Agent Name",
        "value": "1,2,3,5-Tetrachlorobenzene",
        "links": [],
        "cross_references": [
          {
            "type": "name_match",
            "text": "benzene",
            "confidence": 1.0,
            "uuid": "b05124de-5f34-4c14-8f04-ccb20c3780d9",
            "name": "Benzene",
            "url": "https://haz-map.com/Agents/5",
            "category": "agents"
          },
          {
            "type": "name_match",
            "text": "chlorobenzene",
            "confidence": 1.0,
            "uuid": "7e598eca-f35d-493c-aa78-93bb67744c4c",
            "name": "Chlorobenzene",
            "url": "https://haz-map.com/Agents/85",
            "category": "agents"
          },
          {
            "type": "name_match",
            "text": "1,2,3,5-tetrachlorobenzene",
            "confidence": 1.0,
            "uuid": "ed987ae3-d79b-499d-8137-8c1bc4d2f4fe",
            "name": "1,2,3,5-Tetrachlorobenzene",
            "url": "https://haz-map.com/Agents/2721",
            "category": "agents"
          },
          {
            "type": "name_match",
            "text": "tetrachlorobenzene",
            "confidence": 1.0,
            "uuid": "701f600c-c6da-4dcd-89fd-4fa91ea6938e",
            "name": "Tetrachlorobenzene",
            "url": "https://haz-map.com/Agents/19835",
            "category": "agents"
          },
          {
            "type": "fuzzy_match",
            "text": "5-tetrachlorobenzene",
            "matched_name": "1,2,4,5-Tetrachlorobenzene",
            "confidence": 0.7669683257918551,
            "uuid": "1f7f5834-196a-49da-b6f7-54a1b43003f1",
            "category": "agents",
            "url": "https://haz-map.com/Agents/1580"
          }
        ]
      },
      "cas_number": {
        "original_name": "CAS Number",
        "value": "634-90-2; 63697-21-2",
        "links": [],
        "cross_references": []
      },
      "formula": {
        "original_name": "Formula",
        "value": "C6-H2-Cl4",
        "links": [],
        "cross_references": []
      },
      "major_category": {
        "original_name": "Major Category",
        "value": "Other Classes",
        "links": [],
        "cross_references": []
      },
      "synonyms": {
        "original_name": "Synonyms",
        "value": "Benzene, 1,2,3,5-tetrachloro-; [ChemIDplus] 1,2,3,5-Benzene tetrachloride; 1,2,4,6-Tetrachlorobenzene; [CAMEO]",
        "links": [],
        "cross_references": [
          {
            "type": "name_match",
            "text": "benzene",
            "confidence": 1.0,
            "uuid": "b05124de-5f34-4c14-8f04-ccb20c3780d9",
            "name": "Benzene",
            "url": "https://haz-map.com/Agents/5",
            "category": "agents"
          },
          {
            "type": "name_match",
            "text": "chlorobenzene",
            "confidence": 1.0,
            "uuid": "7e598eca-f35d-493c-aa78-93bb67744c4c",
            "name": "Chlorobenzene",
            "url": "https://haz-map.com/Agents/85",
            "category": "agents"
          },
          {
            "type": "name_match",
            "text": "tetrachlorobenzene",
            "confidence": 1.0,
            "uuid": "701f600c-c6da-4dcd-89fd-4fa91ea6938e",
            "name": "Tetrachlorobenzene",
            "url": "https://haz-map.com/Agents/19835",
            "category": "agents"
          }
        ]
      },
      "category": {
        "original_name": "Category",
        "value": "Halogenated Monoaromatics",
        "links": [],
        "cross_references": []
      },
      "description": {
        "original_name": "Description",
        "value": "Colorless solid; [HSDB] White or off-white solid; [CAMEO]",
        "links": [],
        "cross_references": []
      },
      "sourcesuses": {
        "original_name": "Sources/Uses",
        "value": "Used as an intermediate for herbicides and defoliants; as an insecticide; as an impregnant for moisture resistance; for electrical insulation; for temporary protection in packing; Not commercially produced in the US; [HSDB] Used for electrical insulating fluids in transformers; A break-down product of the pesticide Lindane; [CHEMINFO]",
        "links": [],
        "cross_references": [
          {
            "type": "name_match",
            "text": "lindane",
            "confidence": 1.0,
            "uuid": "19252c2d-d3f7-459f-ae99-e081be2534c9",
            "name": "Lindane",
            "url": "https://haz-map.com/Agents/237",
            "category": "agents"
          },
          {
            "type": "name_match",
            "text": "herbicides",
            "confidence": 1.0,
            "uuid": "195f29ae-3f15-47c5-836d-0a9791db3fc1",
            "name": "HERBICIDES",
            "url": "https://haz-map.com/Agents/703",
            "category": "agents"
          },
          {
            "type": "name_match",
            "text": "tempo",
            "confidence": 1.0,
            "uuid": "55930a45-7786-4f0a-a7e8-bd4064508b68",
            "name": "TEMPO",
            "url": "https://haz-map.com/Agents/17879",
            "category": "agents"
          },
          {
            "type": "name_match",
            "text": "indan",
            "confidence": 1.0,
            "uuid": "ebba867b-a993-436a-85fb-f7d1183da941",
            "name": "Indan",
            "url": "https://haz-map.com/Agents/19450",
            "category": "agents"
          }
        ]
      },
      "comments": {
        "original_name": "Comments",
        "value": "A decrease in the number of fetuses was the only significant effect observed at the highest dose level (200 mg/kg) in a study with pregnant rats (no teratogenic effects or histopathological changes in mothers or fetuses); Caused histological changes to liver and kidney in 13 week feeding study with rats; Effects in two month feeding study include altered liver function, prothrombin index, blood cholesterol, and adrenal hypertrophy; [HSDB] May cause irritation to skin, eyes, nose, throat, and respiratory tract; Long term exposure may cause kidney and liver injury; [CHEMINFO] Effects to the liver in short term gavage studies with rats include porphyria, enlargement, and focal necrosis; Histopathological changes observed to kidney and liver in 90 day feeding study with rats; [INCHEM]",
        "links": [],
        "cross_references": [
          {
            "type": "name_match",
            "text": "moth",
            "confidence": 1.0,
            "uuid": "14a33a40-8ea5-4ef5-b71a-3731a9d4ba32",
            "name": "Moth",
            "url": "https://haz-map.com/Agents/907",
            "category": "agents"
          },
          {
            "type": "name_match",
            "text": "cholesterol",
            "confidence": 1.0,
            "uuid": "3e9e7ae0-82d3-48a0-b599-722a89aa7bfc",
            "name": "Cholesterol",
            "url": "https://haz-map.com/Agents/12966",
            "category": "agents"
          },
          {
            "type": "name_match",
            "text": "thrombin",
            "confidence": 1.0,
            "uuid": "c6e73d30-0602-49b0-b1d5-e528c848ba9e",
            "name": "Thrombin",
            "url": "https://haz-map.com/Agents/18002",
            "category": "agents"
          }
        ]
      },
      "biomedical_references": {
        "original_name": "Biomedical References",
        "value": "Search PubMed",
        "links": [
          {
            "text": "Search PubMed",
            "url": "https://www.ncbi.nlm.nih.gov/pubmed?term=1%2c2%2c3%2c5-Tetrachlorobenzene%20AND%20human%5Bmh%5D%20AND%20%28Occupational%20Diseases%20%5Bmh%5D%20OR%20Occupational%20Exposure%20%5Bmh%5D%29%20%20AND%20%28tox%5Bsb%5D%29&cmd=search"
          }
        ],
        "cross_references": []
      }
    },
    "exposure_assessment": {
      "vapor_pressure": {
        "original_name": "Vapor Pressure",
        "value": "0.073 mm Hg",
        "links": [],
        "cross_references": []
      },
      "explanatory_notes": {
        "original_name": "Explanatory Notes",
        "value": "Flash point > 113 deg C; [CAMEO]",
        "links": [],
        "cross_references": [
          {
            "type": "name_match",
            "text": "ash",
            "confidence": 1.0,
            "uuid": "68b360f1-5ad0-4337-bea0-d7adca2961b5",
            "name": "Ash",
            "url": "https://haz-map.com/Agents/965",
            "category": "agents"
          }
        ]
      }
    },
    "adverse_effects": {
      "hepatotoxin": {
        "original_name": "Hepatotoxin",
        "value": "Hepatoxic (a) from occupational exposure (secondary effect) or (b) in animal studies or in humans after ingestion",
        "links": [],
        "cross_references": []
      }
    },
    "diseases_processes_and_activities_linked_to_this_agent": {
      "processes": {
        "original_name": "Processes",
        "value": "Industrial Processes with risk of exposure: Farming (Pesticides)",
        "links": [
          {
            "text": "Farming (Pesticides)",
            "url": "https://haz-map.com/Processes/218"
          }
        ],
        "cross_references": [
          {
            "type": "url_match",
            "text": "Farming (Pesticides)",
            "url": "https://haz-map.com/Processes/218",
            "confidence": 1.0,
            "uuid": "cf1e5815-c9bb-4917-82a5-391848170b7e",
            "name": "Farming (Pesticides)",
            "category": "processes"
          }
        ]
      }
    }
  },
  "cross_references": [
    {
      "type": "url_match",
      "text": "Farming (Pesticides)",
      "url": "https://haz-map.com/Processes/218",
      "confidence": 1.0,
      "uuid": "cf1e5815-c9bb-4917-82a5-391848170b7e",
      "name": "Farming (Pesticides)",
      "category": "processes"
    },
    {
      "type": "name_match",
      "text": "benzene",
      "confidence": 1.0,
      "uuid": "b05124de-5f34-4c14-8f04-ccb20c3780d9",
      "name": "Benzene",
      "url": "https://haz-map.com/Agents/5",
      "category": "agents"
    },
    {
      "type": "name_match",
      "text": "chlorobenzene",
      "confidence": 1.0,
      "uuid": "7e598eca-f35d-493c-aa78-93bb67744c4c",
      "name": "Chlorobenzene",
      "url": "https://haz-map.com/Agents/85",
      "category": "agents"
    },
    {
      "type": "name_match",
      "text": "lindane",
      "confidence": 1.0,
      "uuid": "19252c2d-d3f7-459f-ae99-e081be2534c9",
      "name": "Lindane",
      "url": "https://haz-map.com/Agents/237",
      "category": "agents"
    },
    {
      "type": "name_match",
      "text": "herbicides",
      "confidence": 1.0,
      "uuid": "195f29ae-3f15-47c5-836d-0a9791db3fc1",
      "name": "HERBICIDES",
      "url": "https://haz-map.com/Agents/703",
      "category": "agents"
    },
    {
      "type": "name_match",
      "text": "moth",
      "confidence": 1.0,
      "uuid": "14a33a40-8ea5-4ef5-b71a-3731a9d4ba32",
      "name": "Moth",
      "url": "https://haz-map.com/Agents/907",
      "category": "agents"
    },
    {
      "type": "name_match",
      "text": "ash",
      "confidence": 1.0,
      "uuid": "68b360f1-5ad0-4337-bea0-d7adca2961b5",
      "name": "Ash",
      "url": "https://haz-map.com/Agents/965",
      "category": "agents"
    },
    {
      "type": "name_match",
      "text": "1,2,3,5-tetrachlorobenzene",
      "confidence": 1.0,
      "uuid": "ed987ae3-d79b-499d-8137-8c1bc4d2f4fe",
      "name": "1,2,3,5-Tetrachlorobenzene",
      "url": "https://haz-map.com/Agents/2721",
      "category": "agents"
    },
    {
      "type": "name_match",
      "text": "cholesterol",
      "confidence": 1.0,
      "uuid": "3e9e7ae0-82d3-48a0-b599-722a89aa7bfc",
      "name": "Cholesterol",
      "url": "https://haz-map.com/Agents/12966",
      "category": "agents"
    },
    {
      "type": "name_match",
      "text": "tempo",
      "confidence": 1.0,
      "uuid": "55930a45-7786-4f0a-a7e8-bd4064508b68",
      "name": "TEMPO",
      "url": "https://haz-map.com/Agents/17879",
      "category": "agents"
    },
    {
      "type": "name_match",
      "text": "thrombin",
      "confidence": 1.0,
      "uuid": "c6e73d30-0602-49b0-b1d5-e528c848ba9e",
      "name": "Thrombin",
      "url": "https://haz-map.com/Agents/18002",
      "category": "agents"
    },
    {
      "type": "name_match",
      "text": "indan",
      "confidence": 1.0,
      "uuid": "ebba867b-a993-436a-85fb-f7d1183da941",
      "name": "Indan",
      "url": "https://haz-map.com/Agents/19450",
      "category": "agents"
    },
    {
      "type": "name_match",
      "text": "tetrachlorobenzene",
      "confidence": 1.0,
      "uuid": "701f600c-c6da-4dcd-89fd-4fa91ea6938e",
      "name": "Tetrachlorobenzene",
      "url": "https://haz-map.com/Agents/19835",
      "category": "agents"
    },
    {
      "type": "fuzzy_match",
      "text": "5-tetrachlorobenzene",
      "matched_name": "1,2,4,5-Tetrachlorobenzene",
      "confidence": 0.7669683257918551,
      "uuid": "1f7f5834-196a-49da-b6f7-54a1b43003f1",
      "category": "agents",
      "url": "https://haz-map.com/Agents/1580"
    }
  ],
  "all_links": [
    {
      "text": "Search PubMed",
      "url": "https://www.ncbi.nlm.nih.gov/pubmed?term=1%2c2%2c3%2c5-Tetrachlorobenzene%20AND%20human%5Bmh%5D%20AND%20%28Occupational%20Diseases%20%5Bmh%5D%20OR%20Occupational%20Exposure%20%5Bmh%5D%29%20%20AND%20%28tox%5Bsb%5D%29&cmd=search"
    },
    {
      "text": "Farming (Pesticides)",
      "url": "https://haz-map.com/Processes/218"
    }
  ]
}