{
  "metadata": {
    "scraped_from": "https://haz-map.com/Agents/6147",
    "entity_name": "Desmeninol",
    "category": "agents",
    "uuid": "edb5a459-b376-4aed-a661-43ca2bc35e35",
    "scraped_at": "2025-07-23T19:59:01.922155"
  },
  "parsed_at": "2025-07-24T00:58:19.461080",
  "title": "Desmeninol",
  "sections": {
    "general": {
      "agent_name": {
        "original_name": "Agent Name",
        "value": "Desmeninol",
        "links": [],
        "cross_references": [
          {
            "type": "name_match",
            "text": "desmeninol",
            "confidence": 1.0,
            "uuid": "edb5a459-b376-4aed-a661-43ca2bc35e35",
            "name": "Desmeninol",
            "url": "https://haz-map.com/Agents/6147",
            "category": "agents"
          }
        ]
      },
      "cas_number": {
        "original_name": "CAS Number",
        "value": "583-91-5",
        "links": [],
        "cross_references": []
      },
      "formula": {
        "original_name": "Formula",
        "value": "C5-H10-O3-S",
        "links": [],
        "cross_references": []
      },
      "major_category": {
        "original_name": "Major Category",
        "value": "Other Uses",
        "links": [],
        "cross_references": []
      },
      "synonyms": {
        "original_name": "Synonyms",
        "value": "alpha-Hydroxy-gamma-methylmercaptobutyric acid; 2-Hydroxy-4-(methylthio) butanoic acid; 2-Hydroxy-4-(methylthio)butyric acid; Alimet; Butanoic acid, 2-hydroxy-4-(methylthio)-; Butyric acid, 2-hydroxy-4-(methylthio)-; 2-Hydroxy-4-methylthiobuttersaeure; MHA; MHA acid; MHA-FA; Methionine hydroxy analog; alpha-Hydroxy-gamma-(methylmercapto)butyric acid; alpha-Hydroxy-gamma-(methylthio)butyric acid; gamma-(Methylthio)-alpha-hydroxybutyric acid; [ChemIDplus]",
        "links": [],
        "cross_references": [
          {
            "type": "name_match",
            "text": "ethion",
            "confidence": 1.0,
            "uuid": "939737fc-7aa4-4626-9118-8460c75d6bda",
            "name": "Ethion",
            "url": "https://haz-map.com/Agents/265",
            "category": "agents"
          },
          {
            "type": "name_match",
            "text": "butyric acid",
            "confidence": 1.0,
            "uuid": "a59c4184-bd52-40af-8450-80d14bbee018",
            "name": "Butyric acid",
            "url": "https://haz-map.com/Agents/1391",
            "category": "agents"
          },
          {
            "type": "name_match",
            "text": "ethionine",
            "confidence": 1.0,
            "uuid": "fbc468ed-f614-49a0-a6ab-8e5d22730c65",
            "name": "Ethionine",
            "url": "https://haz-map.com/Agents/14172",
            "category": "agents"
          },
          {
            "type": "name_match",
            "text": "methionine",
            "confidence": 1.0,
            "uuid": "af201003-4553-40fa-b3f3-d5aad68fddc1",
            "name": "Methionine",
            "url": "https://haz-map.com/Agents/15470",
            "category": "agents"
          }
        ]
      },
      "category": {
        "original_name": "Category",
        "value": "Animal Feed Additives",
        "links": [],
        "cross_references": []
      },
      "description": {
        "original_name": "Description",
        "value": "Light brown liquid; [CAMEO] Light brown to brown liquid with an odor of sulfur; [MSDSonline]",
        "links": [],
        "cross_references": [
          {
            "type": "name_match",
            "text": "sulfur",
            "confidence": 1.0,
            "uuid": "5aabdef6-71c8-44c8-b762-feaabff50696",
            "name": "Sulfur",
            "url": "https://haz-map.com/Agents/1942",
            "category": "agents"
          },
          {
            "type": "name_match",
            "text": "ht",
            "confidence": 1.0,
            "uuid": "764df367-8d53-4a11-81a2-31ccfe122a8d",
            "name": "HT",
            "url": "https://haz-map.com/Agents/2168",
            "category": "agents"
          }
        ]
      },
      "sourcesuses": {
        "original_name": "Sources/Uses",
        "value": "Methionine hydroxy analog is used as a livestock dietary supplement; [Merck Index]",
        "links": [],
        "cross_references": [
          {
            "type": "name_match",
            "text": "ethion",
            "confidence": 1.0,
            "uuid": "939737fc-7aa4-4626-9118-8460c75d6bda",
            "name": "Ethion",
            "url": "https://haz-map.com/Agents/265",
            "category": "agents"
          },
          {
            "type": "name_match",
            "text": "ethionine",
            "confidence": 1.0,
            "uuid": "fbc468ed-f614-49a0-a6ab-8e5d22730c65",
            "name": "Ethionine",
            "url": "https://haz-map.com/Agents/14172",
            "category": "agents"
          },
          {
            "type": "name_match",
            "text": "methionine",
            "confidence": 1.0,
            "uuid": "af201003-4553-40fa-b3f3-d5aad68fddc1",
            "name": "Methionine",
            "url": "https://haz-map.com/Agents/15470",
            "category": "agents"
          }
        ]
      },
      "comments": {
        "original_name": "Comments",
        "value": "An irritant; [HSDB] A moderate skin irritant; Corrosive to eyes; [CAMEO] An irritant; Causes burns to eyes; [MSDSonline]",
        "links": [],
        "cross_references": [
          {
            "type": "name_match",
            "text": "burn",
            "confidence": 1.0,
            "uuid": "63665de5-6376-4918-8dbf-4c10c4d63837",
            "name": "burn",
            "url": "https://haz-map.com/Findings/204",
            "category": "findings"
          }
        ]
      },
      "biomedical_references": {
        "original_name": "Biomedical References",
        "value": "Search PubMed",
        "links": [
          {
            "text": "Search PubMed",
            "url": "https://www.ncbi.nlm.nih.gov/pubmed?term=Desmeninol%20AND%20human%5Bmh%5D%20AND%20%28Occupational%20Diseases%20%5Bmh%5D%20OR%20Occupational%20Exposure%20%5Bmh%5D%29%20%20AND%20%28tox%5Bsb%5D%29&cmd=search"
          }
        ],
        "cross_references": []
      }
    },
    "exposure_assessment": {
      "vapor_pressure": {
        "original_name": "Vapor Pressure",
        "value": "16 mm Hg",
        "links": [],
        "cross_references": []
      }
    },
    "diseases_processes_and_activities_linked_to_this_agent": {
      "processes": {
        "original_name": "Processes",
        "value": "Industrial Processes with risk of exposure: Farming (Feed Additives) Farming (Pesticides)",
        "links": [
          {
            "text": "Farming (Feed Additives)",
            "url": "https://haz-map.com/Processes/262"
          },
          {
            "text": "Farming (Pesticides)",
            "url": "https://haz-map.com/Processes/218"
          }
        ],
        "cross_references": [
          {
            "type": "url_match",
            "text": "Farming (Pesticides)",
            "url": "https://haz-map.com/Processes/218",
            "confidence": 1.0,
            "uuid": "cf1e5815-c9bb-4917-82a5-391848170b7e",
            "name": "Farming (Pesticides)",
            "category": "processes"
          }
        ]
      }
    }
  },
  "cross_references": [
    {
      "type": "url_match",
      "text": "Farming (Pesticides)",
      "url": "https://haz-map.com/Processes/218",
      "confidence": 1.0,
      "uuid": "cf1e5815-c9bb-4917-82a5-391848170b7e",
      "name": "Farming (Pesticides)",
      "category": "processes"
    },
    {
      "type": "name_match",
      "text": "burn",
      "confidence": 1.0,
      "uuid": "63665de5-6376-4918-8dbf-4c10c4d63837",
      "name": "burn",
      "url": "https://haz-map.com/Findings/204",
      "category": "findings"
    },
    {
      "type": "name_match",
      "text": "ethion",
      "confidence": 1.0,
      "uuid": "939737fc-7aa4-4626-9118-8460c75d6bda",
      "name": "Ethion",
      "url": "https://haz-map.com/Agents/265",
      "category": "agents"
    },
    {
      "type": "name_match",
      "text": "butyric acid",
      "confidence": 1.0,
      "uuid": "a59c4184-bd52-40af-8450-80d14bbee018",
      "name": "Butyric acid",
      "url": "https://haz-map.com/Agents/1391",
      "category": "agents"
    },
    {
      "type": "name_match",
      "text": "sulfur",
      "confidence": 1.0,
      "uuid": "5aabdef6-71c8-44c8-b762-feaabff50696",
      "name": "Sulfur",
      "url": "https://haz-map.com/Agents/1942",
      "category": "agents"
    },
    {
      "type": "name_match",
      "text": "ht",
      "confidence": 1.0,
      "uuid": "764df367-8d53-4a11-81a2-31ccfe122a8d",
      "name": "HT",
      "url": "https://haz-map.com/Agents/2168",
      "category": "agents"
    },
    {
      "type": "name_match",
      "text": "desmeninol",
      "confidence": 1.0,
      "uuid": "edb5a459-b376-4aed-a661-43ca2bc35e35",
      "name": "Desmeninol",
      "url": "https://haz-map.com/Agents/6147",
      "category": "agents"
    },
    {
      "type": "name_match",
      "text": "ethionine",
      "confidence": 1.0,
      "uuid": "fbc468ed-f614-49a0-a6ab-8e5d22730c65",
      "name": "Ethionine",
      "url": "https://haz-map.com/Agents/14172",
      "category": "agents"
    },
    {
      "type": "name_match",
      "text": "methionine",
      "confidence": 1.0,
      "uuid": "af201003-4553-40fa-b3f3-d5aad68fddc1",
      "name": "Methionine",
      "url": "https://haz-map.com/Agents/15470",
      "category": "agents"
    }
  ],
  "all_links": [
    {
      "text": "Search PubMed",
      "url": "https://www.ncbi.nlm.nih.gov/pubmed?term=Desmeninol%20AND%20human%5Bmh%5D%20AND%20%28Occupational%20Diseases%20%5Bmh%5D%20OR%20Occupational%20Exposure%20%5Bmh%5D%29%20%20AND%20%28tox%5Bsb%5D%29&cmd=search"
    },
    {
      "text": "Farming (Feed Additives)",
      "url": "https://haz-map.com/Processes/262"
    },
    {
      "text": "Farming (Pesticides)",
      "url": "https://haz-map.com/Processes/218"
    }
  ]
}