{
  "metadata": {
    "scraped_from": "https://haz-map.com/Agents/21197",
    "entity_name": "1-(2-Hydroxyethyl)-2-pyrrolidinone",
    "category": "agents",
    "uuid": "edede365-efed-40a6-a2ef-07ce3ed11394",
    "scraped_at": "2025-07-23T22:39:20.069532"
  },
  "parsed_at": "2025-07-24T01:00:20.786821",
  "title": "1-(2-Hydroxyethyl)-2-pyrrolidinone",
  "sections": {
    "general": {
      "agent_name": {
        "original_name": "Agent Name",
        "value": "1-(2-Hydroxyethyl)-2-pyrrolidinone",
        "links": [],
        "cross_references": [
          {
            "type": "name_match",
            "text": "1-(2-hydroxyethyl)-2-pyrrolidinone",
            "confidence": 1.0,
            "uuid": "edede365-efed-40a6-a2ef-07ce3ed11394",
            "name": "1-(2-Hydroxyethyl)-2-pyrrolidinone",
            "url": "https://haz-map.com/Agents/21197",
            "category": "agents"
          }
        ]
      },
      "cas_number": {
        "original_name": "CAS Number",
        "value": "3445-11-2",
        "links": [],
        "cross_references": []
      },
      "formula": {
        "original_name": "Formula",
        "value": "C6-H11-N-O2",
        "links": [],
        "cross_references": []
      },
      "major_category": {
        "original_name": "Major Category",
        "value": "Nitrogen Compounds",
        "links": [],
        "cross_references": [
          {
            "type": "name_match",
            "text": "nitrogen",
            "confidence": 1.0,
            "uuid": "db5e90a9-06d2-45b9-8b81-f345a89b0bc0",
            "name": "Nitrogen",
            "url": "https://haz-map.com/Agents/1072",
            "category": "agents"
          }
        ]
      },
      "synonyms": {
        "original_name": "Synonyms",
        "value": "N-(2-Hydroxyethyl)-2-pyrrolidone; N-2-Hydroxyethylpyrrolidin-2-one; 1-(2-Hydroxyethyl)pyrrolidin-2-one; 2-Pyrrolidinone, 1-(2-hydroxyethyl)-; [ChemIDplus] 1-(2-Hydroxyethyl)-2-pyrrolidone; [Sigma-Aldrich MSDS]",
        "links": [],
        "cross_references": [
          {
            "type": "name_match",
            "text": "2-pyrrolidone",
            "confidence": 1.0,
            "uuid": "ab75cab5-f15f-40b0-a980-1e25509d9727",
            "name": "2-Pyrrolidone",
            "url": "https://haz-map.com/Agents/3166",
            "category": "agents"
          }
        ]
      },
      "category": {
        "original_name": "Category",
        "value": "Other Nitrogen Compounds",
        "links": [],
        "cross_references": [
          {
            "type": "name_match",
            "text": "nitrogen",
            "confidence": 1.0,
            "uuid": "db5e90a9-06d2-45b9-8b81-f345a89b0bc0",
            "name": "Nitrogen",
            "url": "https://haz-map.com/Agents/1072",
            "category": "agents"
          }
        ]
      },
      "description": {
        "original_name": "Description",
        "value": "Melting point = 20 deg C; [ChemIDplus] Clear dark brown viscous liquid; [Sigma-Aldrich MSDS]",
        "links": [],
        "cross_references": []
      },
      "sourcesuses": {
        "original_name": "Sources/Uses",
        "value": "Used as an intermediate, laboratory reagent, in coatings, and agrochemicals; [ExPub: ECHA REACH Registrations]",
        "links": [],
        "cross_references": [
          {
            "type": "name_match",
            "text": "mica",
            "confidence": 1.0,
            "uuid": "433f26f1-c399-4596-b179-ce3843cfd465",
            "name": "Mica",
            "url": "https://haz-map.com/Agents/621",
            "category": "agents"
          }
        ]
      },
      "comments": {
        "original_name": "Comments",
        "value": "A mild eye irritant; [RTECS] A skin and strong eye irritant; [Sigma-Aldrich MSDS] See \"N-Ethyl-2-pyrrolidone\" and \"Methylpyrrolidinone.\"",
        "links": [],
        "cross_references": [
          {
            "type": "name_match",
            "text": "2-pyrrolidone",
            "confidence": 1.0,
            "uuid": "ab75cab5-f15f-40b0-a980-1e25509d9727",
            "name": "2-Pyrrolidone",
            "url": "https://haz-map.com/Agents/3166",
            "category": "agents"
          },
          {
            "type": "name_match",
            "text": "n-ethyl-2-pyrrolidone",
            "confidence": 1.0,
            "uuid": "b285f912-8afc-4701-b6ec-2c63edc687b6",
            "name": "N-Ethyl-2-pyrrolidone",
            "url": "https://haz-map.com/Agents/19359",
            "category": "agents"
          }
        ]
      },
      "biomedical_references": {
        "original_name": "Biomedical References",
        "value": "Search PubMed",
        "links": [
          {
            "text": "Search PubMed",
            "url": "https://www.ncbi.nlm.nih.gov/pubmed?term=1-(2-Hydroxyethyl)-2-pyrrolidinone%20AND%20human%5Bmh%5D%20AND%20%28Occupational%20Diseases%20%5Bmh%5D%20OR%20Occupational%20Exposure%20%5Bmh%5D%29%20%20AND%20%28tox%5Bsb%5D%29&cmd=search"
          }
        ],
        "cross_references": []
      }
    },
    "diseases_processes_and_activities_linked_to_this_agent": {
      "processes": {
        "original_name": "Processes",
        "value": "Industrial Processes with risk of exposure: Painting (Pigments, Binders, and Biocides)",
        "links": [
          {
            "text": "Painting (Pigments, Binders, and Biocides)",
            "url": "https://haz-map.com/Processes/145"
          }
        ],
        "cross_references": [
          {
            "type": "url_match",
            "text": "Painting (Pigments, Binders, and Biocides)",
            "url": "https://haz-map.com/Processes/145",
            "confidence": 1.0,
            "uuid": "25867878-e178-4c21-906f-d392d86b76de",
            "name": "Painting (Pigments, Binders, and Biocides)",
            "category": "processes"
          },
          {
            "type": "name_match",
            "text": "painting",
            "confidence": 1.0,
            "uuid": "19816ce9-9edf-4a86-8e64-b0cbf7dcf520",
            "name": "Painting",
            "url": "https://haz-map.com/Activities/9",
            "category": "activities"
          }
        ]
      }
    }
  },
  "cross_references": [
    {
      "type": "url_match",
      "text": "Painting (Pigments, Binders, and Biocides)",
      "url": "https://haz-map.com/Processes/145",
      "confidence": 1.0,
      "uuid": "25867878-e178-4c21-906f-d392d86b76de",
      "name": "Painting (Pigments, Binders, and Biocides)",
      "category": "processes"
    },
    {
      "type": "name_match",
      "text": "painting",
      "confidence": 1.0,
      "uuid": "19816ce9-9edf-4a86-8e64-b0cbf7dcf520",
      "name": "Painting",
      "url": "https://haz-map.com/Activities/9",
      "category": "activities"
    },
    {
      "type": "name_match",
      "text": "mica",
      "confidence": 1.0,
      "uuid": "433f26f1-c399-4596-b179-ce3843cfd465",
      "name": "Mica",
      "url": "https://haz-map.com/Agents/621",
      "category": "agents"
    },
    {
      "type": "name_match",
      "text": "nitrogen",
      "confidence": 1.0,
      "uuid": "db5e90a9-06d2-45b9-8b81-f345a89b0bc0",
      "name": "Nitrogen",
      "url": "https://haz-map.com/Agents/1072",
      "category": "agents"
    },
    {
      "type": "name_match",
      "text": "2-pyrrolidone",
      "confidence": 1.0,
      "uuid": "ab75cab5-f15f-40b0-a980-1e25509d9727",
      "name": "2-Pyrrolidone",
      "url": "https://haz-map.com/Agents/3166",
      "category": "agents"
    },
    {
      "type": "name_match",
      "text": "n-ethyl-2-pyrrolidone",
      "confidence": 1.0,
      "uuid": "b285f912-8afc-4701-b6ec-2c63edc687b6",
      "name": "N-Ethyl-2-pyrrolidone",
      "url": "https://haz-map.com/Agents/19359",
      "category": "agents"
    },
    {
      "type": "name_match",
      "text": "1-(2-hydroxyethyl)-2-pyrrolidinone",
      "confidence": 1.0,
      "uuid": "edede365-efed-40a6-a2ef-07ce3ed11394",
      "name": "1-(2-Hydroxyethyl)-2-pyrrolidinone",
      "url": "https://haz-map.com/Agents/21197",
      "category": "agents"
    }
  ],
  "all_links": [
    {
      "text": "Search PubMed",
      "url": "https://www.ncbi.nlm.nih.gov/pubmed?term=1-(2-Hydroxyethyl)-2-pyrrolidinone%20AND%20human%5Bmh%5D%20AND%20%28Occupational%20Diseases%20%5Bmh%5D%20OR%20Occupational%20Exposure%20%5Bmh%5D%29%20%20AND%20%28tox%5Bsb%5D%29&cmd=search"
    },
    {
      "text": "Painting (Pigments, Binders, and Biocides)",
      "url": "https://haz-map.com/Processes/145"
    }
  ]
}