{
  "metadata": {
    "scraped_from": "https://haz-map.com/Agents/7425",
    "entity_name": "Thioquinox",
    "category": "agents",
    "uuid": "ee070e1e-7eb9-4096-a4ab-66a8702c4de5",
    "scraped_at": "2025-07-23T20:12:40.951401"
  },
  "parsed_at": "2025-07-24T00:55:24.362977",
  "title": "Thioquinox",
  "sections": {
    "general": {
      "agent_name": {
        "original_name": "Agent Name",
        "value": "Thioquinox",
        "links": [],
        "cross_references": [
          {
            "type": "name_match",
            "text": "thioquinox",
            "confidence": 1.0,
            "uuid": "ee070e1e-7eb9-4096-a4ab-66a8702c4de5",
            "name": "Thioquinox",
            "url": "https://haz-map.com/Agents/7425",
            "category": "agents"
          }
        ]
      },
      "cas_number": {
        "original_name": "CAS Number",
        "value": "93-75-4",
        "links": [],
        "cross_references": []
      },
      "formula": {
        "original_name": "Formula",
        "value": "C9-H4-N2-S3",
        "links": [],
        "cross_references": []
      },
      "major_category": {
        "original_name": "Major Category",
        "value": "Pesticides",
        "links": [],
        "cross_references": []
      },
      "synonyms": {
        "original_name": "Synonyms",
        "value": "1,3-Dithiolo(4,5-b)quinoxaline-2-thione; 2,3-Quinoxalinedithiol cyclic-trithiocarbonate; 2,3-Quinoxalinedithiol, cyclic trithiocarbonate; 2-Thio-1,3-dithio(4,5-b)quinoxaline; 2-Thioxo-1,3-dithiolo(4,5-b)quinoxaline; BAY 30686; Bayer 30686; Carbonic acid, trithio-, cyclic 2,3-quinoxalinediyl ester; Carbonic acid, trithio-, cyclic ester with 2,3-quinoxalinedithiol; Chinothionat; Chinoxalin-2,3-dithiol-cyclo-thio-carbonat [German]; Chinoxalin-2,3-diyl-trithiocarbonat [German]; ENT 25,579; Eradex; Quinothionate; Quinoxaline-2,3-diyl trithiocarbonate; Readex; SS 1451; Thiaquinox; Thioquinox [ISO]; Trithiocarbonic acid, cyclic ester with 2,3-quinoxalinedithiol; [ChemIDplus]",
        "links": [],
        "cross_references": [
          {
            "type": "name_match",
            "text": "carbon",
            "confidence": 1.0,
            "uuid": "b53f8815-ee80-40ef-b4aa-3b000e17dab5",
            "name": "Carbon",
            "url": "https://haz-map.com/Agents/1891",
            "category": "agents"
          },
          {
            "type": "name_match",
            "text": "thioquinox",
            "confidence": 1.0,
            "uuid": "ee070e1e-7eb9-4096-a4ab-66a8702c4de5",
            "name": "Thioquinox",
            "url": "https://haz-map.com/Agents/7425",
            "category": "agents"
          },
          {
            "type": "name_match",
            "text": "2,3-quinoxalinedithiol",
            "confidence": 1.0,
            "uuid": "c86bf536-2c6a-4dc7-8a08-56a1332ec06b",
            "name": "2,3-Quinoxalinedithiol",
            "url": "https://haz-map.com/Agents/9088",
            "category": "agents"
          },
          {
            "type": "name_match",
            "text": "carbonic acid",
            "confidence": 1.0,
            "uuid": "3ab00515-332f-4177-a200-79dd593298a4",
            "name": "Carbonic acid",
            "url": "https://haz-map.com/Agents/12760",
            "category": "agents"
          }
        ]
      },
      "category": {
        "original_name": "Category",
        "value": "Other Insecticides",
        "links": [],
        "cross_references": []
      },
      "description": {
        "original_name": "Description",
        "value": "Brownish-yellow odorless solid; [HSDB]",
        "links": [],
        "cross_references": []
      },
      "sourcesuses": {
        "original_name": "Sources/Uses",
        "value": "Used as a non-systemic acaricide (effective against eggs) and fungicide (specific against powdery mildews); Not currently registered with the EPA for use in the US; [HSDB]",
        "links": [],
        "cross_references": [
          {
            "type": "name_match",
            "text": "fungi",
            "confidence": 1.0,
            "uuid": "e0d489cb-bfee-4aee-b665-999c017268a2",
            "name": "Fungi",
            "url": "https://haz-map.com/Agents/1988",
            "category": "agents"
          }
        ]
      },
      "comments": {
        "original_name": "Comments",
        "value": "Technical product caused skin irritation in 2 of 8 people tested; No adverse effects in rats after skin applications of 3000 mg/kg; Rats fed 100 mg/kg/day for 2 weeks had weakness, weight loss, and one death; Lethal human dose is probably 1 ounce to 1 pint; [HSDB]",
        "links": [],
        "cross_references": [
          {
            "type": "name_match",
            "text": "weight loss",
            "confidence": 1.0,
            "uuid": "9b7baca4-cf1b-4e78-99d2-2377fbac8f8b",
            "name": "weight loss",
            "url": "https://haz-map.com/Findings/3",
            "category": "findings"
          },
          {
            "type": "name_match",
            "text": "weakness",
            "confidence": 1.0,
            "uuid": "44bfccd5-0f7a-48f7-b4eb-de9a6ef23064",
            "name": "weakness",
            "url": "https://haz-map.com/Findings/83",
            "category": "findings"
          },
          {
            "type": "name_match",
            "text": "ht",
            "confidence": 1.0,
            "uuid": "764df367-8d53-4a11-81a2-31ccfe122a8d",
            "name": "HT",
            "url": "https://haz-map.com/Agents/2168",
            "category": "agents"
          }
        ]
      },
      "biomedical_references": {
        "original_name": "Biomedical References",
        "value": "Search PubMed",
        "links": [
          {
            "text": "Search PubMed",
            "url": "https://www.ncbi.nlm.nih.gov/pubmed?term=Thioquinox%20AND%20human%5Bmh%5D%20AND%20%28Occupational%20Diseases%20%5Bmh%5D%20OR%20Occupational%20Exposure%20%5Bmh%5D%29%20%20AND%20%28tox%5Bsb%5D%29&cmd=search"
          }
        ],
        "cross_references": []
      }
    },
    "exposure_assessment": {
      "vapor_pressure": {
        "original_name": "Vapor Pressure",
        "value": "6.33E-08 mm Hg",
        "links": [],
        "cross_references": []
      }
    },
    "diseases_processes_and_activities_linked_to_this_agent": {
      "processes": {
        "original_name": "Processes",
        "value": "Industrial Processes with risk of exposure: Farming (Pesticides)",
        "links": [
          {
            "text": "Farming (Pesticides)",
            "url": "https://haz-map.com/Processes/218"
          }
        ],
        "cross_references": [
          {
            "type": "url_match",
            "text": "Farming (Pesticides)",
            "url": "https://haz-map.com/Processes/218",
            "confidence": 1.0,
            "uuid": "cf1e5815-c9bb-4917-82a5-391848170b7e",
            "name": "Farming (Pesticides)",
            "category": "processes"
          }
        ]
      }
    }
  },
  "cross_references": [
    {
      "type": "url_match",
      "text": "Farming (Pesticides)",
      "url": "https://haz-map.com/Processes/218",
      "confidence": 1.0,
      "uuid": "cf1e5815-c9bb-4917-82a5-391848170b7e",
      "name": "Farming (Pesticides)",
      "category": "processes"
    },
    {
      "type": "name_match",
      "text": "weight loss",
      "confidence": 1.0,
      "uuid": "9b7baca4-cf1b-4e78-99d2-2377fbac8f8b",
      "name": "weight loss",
      "url": "https://haz-map.com/Findings/3",
      "category": "findings"
    },
    {
      "type": "name_match",
      "text": "weakness",
      "confidence": 1.0,
      "uuid": "44bfccd5-0f7a-48f7-b4eb-de9a6ef23064",
      "name": "weakness",
      "url": "https://haz-map.com/Findings/83",
      "category": "findings"
    },
    {
      "type": "name_match",
      "text": "carbon",
      "confidence": 1.0,
      "uuid": "b53f8815-ee80-40ef-b4aa-3b000e17dab5",
      "name": "Carbon",
      "url": "https://haz-map.com/Agents/1891",
      "category": "agents"
    },
    {
      "type": "name_match",
      "text": "fungi",
      "confidence": 1.0,
      "uuid": "e0d489cb-bfee-4aee-b665-999c017268a2",
      "name": "Fungi",
      "url": "https://haz-map.com/Agents/1988",
      "category": "agents"
    },
    {
      "type": "name_match",
      "text": "ht",
      "confidence": 1.0,
      "uuid": "764df367-8d53-4a11-81a2-31ccfe122a8d",
      "name": "HT",
      "url": "https://haz-map.com/Agents/2168",
      "category": "agents"
    },
    {
      "type": "name_match",
      "text": "thioquinox",
      "confidence": 1.0,
      "uuid": "ee070e1e-7eb9-4096-a4ab-66a8702c4de5",
      "name": "Thioquinox",
      "url": "https://haz-map.com/Agents/7425",
      "category": "agents"
    },
    {
      "type": "name_match",
      "text": "2,3-quinoxalinedithiol",
      "confidence": 1.0,
      "uuid": "c86bf536-2c6a-4dc7-8a08-56a1332ec06b",
      "name": "2,3-Quinoxalinedithiol",
      "url": "https://haz-map.com/Agents/9088",
      "category": "agents"
    },
    {
      "type": "name_match",
      "text": "carbonic acid",
      "confidence": 1.0,
      "uuid": "3ab00515-332f-4177-a200-79dd593298a4",
      "name": "Carbonic acid",
      "url": "https://haz-map.com/Agents/12760",
      "category": "agents"
    }
  ],
  "all_links": [
    {
      "text": "Search PubMed",
      "url": "https://www.ncbi.nlm.nih.gov/pubmed?term=Thioquinox%20AND%20human%5Bmh%5D%20AND%20%28Occupational%20Diseases%20%5Bmh%5D%20OR%20Occupational%20Exposure%20%5Bmh%5D%29%20%20AND%20%28tox%5Bsb%5D%29&cmd=search"
    },
    {
      "text": "Farming (Pesticides)",
      "url": "https://haz-map.com/Processes/218"
    }
  ]
}