{
  "metadata": {
    "scraped_from": "https://haz-map.com/Agents/20818",
    "entity_name": "Methyl 3-bromobenzoate",
    "category": "agents",
    "uuid": "ef842965-7e0b-4286-92b2-b8ab1fe167ff",
    "scraped_at": "2025-07-23T22:32:23.084487"
  },
  "parsed_at": "2025-07-24T01:04:32.293577",
  "title": "Methyl 3-bromobenzoate",
  "sections": {
    "general": {
      "agent_name": {
        "original_name": "Agent Name",
        "value": "Methyl 3-bromobenzoate",
        "links": [],
        "cross_references": [
          {
            "type": "name_match",
            "text": "methyl 3-bromobenzoate",
            "confidence": 1.0,
            "uuid": "ef842965-7e0b-4286-92b2-b8ab1fe167ff",
            "name": "Methyl 3-bromobenzoate",
            "url": "https://haz-map.com/Agents/20818",
            "category": "agents"
          }
        ]
      },
      "cas_number": {
        "original_name": "CAS Number",
        "value": "618-89-3",
        "links": [],
        "cross_references": []
      },
      "formula": {
        "original_name": "Formula",
        "value": "C8-H7-Br-O2",
        "links": [],
        "cross_references": []
      },
      "major_category": {
        "original_name": "Major Category",
        "value": "Other Classes",
        "links": [],
        "cross_references": []
      },
      "synonyms": {
        "original_name": "Synonyms",
        "value": "3-Bromobenzoic acid, methyl ester; Benzoic acid, m-bromo-, methyl ester; Methyl m-bromobenzoate; Benzoic acid, 3-bromo-, methyl ester; [ChemIDplus]",
        "links": [],
        "cross_references": [
          {
            "type": "name_match",
            "text": "benzoic acid",
            "confidence": 1.0,
            "uuid": "d2c5d3be-d826-4f55-bc32-7b16821aef40",
            "name": "Benzoic acid",
            "url": "https://haz-map.com/Agents/1883",
            "category": "agents"
          },
          {
            "type": "name_match",
            "text": "3-bromobenzoic acid",
            "confidence": 1.0,
            "uuid": "64d675bb-e9ab-4c1a-beab-98dc02a241b6",
            "name": "3-Bromobenzoic acid",
            "url": "https://haz-map.com/Agents/19764",
            "category": "agents"
          }
        ]
      },
      "category": {
        "original_name": "Category",
        "value": "Halogenated Esters",
        "links": [],
        "cross_references": []
      },
      "description": {
        "original_name": "Description",
        "value": "Crystalline solid; mp = 29-30 deg C; [Alfa Aesar MSDS]",
        "links": [],
        "cross_references": [
          {
            "type": "fuzzy_match",
            "text": "crystalline",
            "matched_name": "Silica, crystalline",
            "confidence": 0.7061403508771931,
            "uuid": "f920e8a2-46df-41b7-af8d-0368a777251e",
            "category": "agents",
            "url": "https://haz-map.com/Agents/427"
          }
        ]
      },
      "comments": {
        "original_name": "Comments",
        "value": "May cause irritation; [Alfa Aesar MSDS]",
        "links": [],
        "cross_references": []
      },
      "biomedical_references": {
        "original_name": "Biomedical References",
        "value": "Search PubMed",
        "links": [
          {
            "text": "Search PubMed",
            "url": "https://www.ncbi.nlm.nih.gov/pubmed?term=Methyl+3-bromobenzoate%20AND%20human%5Bmh%5D%20AND%20%28Occupational%20Diseases%20%5Bmh%5D%20OR%20Occupational%20Exposure%20%5Bmh%5D%29%20%20AND%20%28tox%5Bsb%5D%29&cmd=search"
          }
        ],
        "cross_references": []
      }
    },
    "exposure_assessment": {
      "vapor_pressure": {
        "original_name": "Vapor Pressure",
        "value": "0.025 mm Hg",
        "links": [],
        "cross_references": []
      }
    },
    "diseases_processes_and_activities_linked_to_this_agent": {
      "other_information": {
        "original_name": "Other Information",
        "value": "No other related information on this agent was found.",
        "links": [],
        "cross_references": []
      }
    }
  },
  "cross_references": [
    {
      "type": "name_match",
      "text": "benzoic acid",
      "confidence": 1.0,
      "uuid": "d2c5d3be-d826-4f55-bc32-7b16821aef40",
      "name": "Benzoic acid",
      "url": "https://haz-map.com/Agents/1883",
      "category": "agents"
    },
    {
      "type": "name_match",
      "text": "3-bromobenzoic acid",
      "confidence": 1.0,
      "uuid": "64d675bb-e9ab-4c1a-beab-98dc02a241b6",
      "name": "3-Bromobenzoic acid",
      "url": "https://haz-map.com/Agents/19764",
      "category": "agents"
    },
    {
      "type": "name_match",
      "text": "methyl 3-bromobenzoate",
      "confidence": 1.0,
      "uuid": "ef842965-7e0b-4286-92b2-b8ab1fe167ff",
      "name": "Methyl 3-bromobenzoate",
      "url": "https://haz-map.com/Agents/20818",
      "category": "agents"
    },
    {
      "type": "fuzzy_match",
      "text": "crystalline",
      "matched_name": "Silica, crystalline",
      "confidence": 0.7061403508771931,
      "uuid": "f920e8a2-46df-41b7-af8d-0368a777251e",
      "category": "agents",
      "url": "https://haz-map.com/Agents/427"
    }
  ],
  "all_links": [
    {
      "text": "Search PubMed",
      "url": "https://www.ncbi.nlm.nih.gov/pubmed?term=Methyl+3-bromobenzoate%20AND%20human%5Bmh%5D%20AND%20%28Occupational%20Diseases%20%5Bmh%5D%20OR%20Occupational%20Exposure%20%5Bmh%5D%29%20%20AND%20%28tox%5Bsb%5D%29&cmd=search"
    }
  ]
}