{
  "metadata": {
    "scraped_from": "https://haz-map.com/Agents/3250",
    "entity_name": "Cinnamyl alcohol",
    "category": "agents",
    "uuid": "ef950229-7bfc-43b0-b55d-e02336d1bb19",
    "scraped_at": "2025-07-23T19:26:22.755182"
  },
  "parsed_at": "2025-07-24T00:55:41.125920",
  "title": "Cinnamyl alcohol",
  "sections": {
    "general": {
      "agent_name": {
        "original_name": "Agent Name",
        "value": "Cinnamyl alcohol",
        "links": [],
        "cross_references": [
          {
            "type": "name_match",
            "text": "cinnamyl alcohol",
            "confidence": 1.0,
            "uuid": "ef950229-7bfc-43b0-b55d-e02336d1bb19",
            "name": "Cinnamyl alcohol",
            "url": "https://haz-map.com/Agents/3250",
            "category": "agents"
          }
        ]
      },
      "cas_number": {
        "original_name": "CAS Number",
        "value": "104-54-1",
        "links": [],
        "cross_references": []
      },
      "formula": {
        "original_name": "Formula",
        "value": "C9-H10-O",
        "links": [],
        "cross_references": []
      },
      "major_category": {
        "original_name": "Major Category",
        "value": "Other Classes",
        "links": [],
        "cross_references": []
      },
      "synonyms": {
        "original_name": "Synonyms",
        "value": "1-Phenylprop-1-en-3-ol; 2-Propen-1-ol, 3-phenyl-; 3-Fenyl-2-propen-1-ol [Czech]; 3-Phenyl-2-propen-1-ol; 3-Phenyl-2-propenol; 3-Phenylallyl alcohol; Alkohol skoricovy [Czech]; Cinnamic alcohol; Cinnamic alcohol (natural); Phenyl-2-propen-1-ol; Styrone; Styryl alcohol; Styryl carbinol; Zimtalcohol; gamma-Phenylallyl alcohol; [ChemIDplus]",
        "links": [],
        "cross_references": [
          {
            "type": "name_match",
            "text": "allyl alcohol",
            "confidence": 1.0,
            "uuid": "c235e99a-777b-43d1-94df-f6ede137022d",
            "name": "Allyl alcohol",
            "url": "https://haz-map.com/Agents/242",
            "category": "agents"
          }
        ]
      },
      "category": {
        "original_name": "Category",
        "value": "Other Aromatic Compounds",
        "links": [],
        "cross_references": []
      },
      "description": {
        "original_name": "Description",
        "value": "White solid with a hyacinth-like odor; [Hawley] Pale yellow crystalline solid; mp = 33-35 deg C; [MSDSonline]",
        "links": [],
        "cross_references": [
          {
            "type": "fuzzy_match",
            "text": "crystalline",
            "matched_name": "Silica, crystalline",
            "confidence": 0.7061403508771931,
            "uuid": "f920e8a2-46df-41b7-af8d-0368a777251e",
            "category": "agents",
            "url": "https://haz-map.com/Agents/427"
          }
        ]
      },
      "sourcesuses": {
        "original_name": "Sources/Uses",
        "value": "Used as a fragrance, flavoring agent, deodorant, and chemical intermediate (chemical resistant coatings, photosensitive polymers, and lithographic plates); [HSDB]",
        "links": [],
        "cross_references": [
          {
            "type": "name_match",
            "text": "mica",
            "confidence": 1.0,
            "uuid": "433f26f1-c399-4596-b179-ce3843cfd465",
            "name": "Mica",
            "url": "https://haz-map.com/Agents/621",
            "category": "agents"
          }
        ]
      },
      "comments": {
        "original_name": "Comments",
        "value": "\"Cinnamic alcohol was an allergen in 15 of 20 perfume-sensitive patients patch tested.\" [HSDB] An irritant; [MSDSonline] Positive patch tests reported in perfume industry and food handlers; One of the chemicals in the \"fragrance mix\"; [Kanerva, p. 1771] Included in list of \"established contact allergens in humans\"; [EC: Scientific Committee on Consumer Safety: Fragrance allergens in cosmetic products (2011)] Danger of skin sensitization; [MAK]",
        "links": [],
        "cross_references": [
          {
            "type": "name_match",
            "text": "mica",
            "confidence": 1.0,
            "uuid": "433f26f1-c399-4596-b179-ce3843cfd465",
            "name": "Mica",
            "url": "https://haz-map.com/Agents/621",
            "category": "agents"
          }
        ]
      },
      "reference_link_1": {
        "original_name": "Reference Link #1",
        "value": "Occupational dermatitis in food handlers and baker... [J Am Acad Dermatol. 1989] - PubMed result",
        "links": [
          {
            "text": "Occupational dermatitis in food handlers and baker... [J Am Acad Dermatol. 1989] - PubMed result",
            "url": "http://www.ncbi.nlm.nih.gov/pubmed/2528571?itool=EntrezSystem2.PEntrez.Pubmed.Pubmed_ResultsPanel.Pubmed_RVDocSum&ordinalpos=17"
          }
        ],
        "cross_references": [
          {
            "type": "name_match",
            "text": "dermatitis",
            "confidence": 1.0,
            "uuid": "fe9c05f2-b19f-4ceb-ac7a-ffb7d7a0cae0",
            "name": "dermatitis",
            "url": "https://haz-map.com/Findings/59",
            "category": "findings"
          }
        ]
      },
      "biomedical_references": {
        "original_name": "Biomedical References",
        "value": "Search PubMed",
        "links": [
          {
            "text": "Search PubMed",
            "url": "https://www.ncbi.nlm.nih.gov/pubmed?term=Cinnamyl+alcohol%20AND%20human%5Bmh%5D%20AND%20%28Occupational%20Diseases%20%5Bmh%5D%20OR%20Occupational%20Exposure%20%5Bmh%5D%29%20%20AND%20%28tox%5Bsb%5D%29&cmd=search"
          }
        ],
        "cross_references": []
      }
    },
    "exposure_assessment": {
      "explanatory_notes": {
        "original_name": "Explanatory Notes",
        "value": "Flash point = 126 deg C; [HSDB]",
        "links": [],
        "cross_references": [
          {
            "type": "name_match",
            "text": "ash",
            "confidence": 1.0,
            "uuid": "68b360f1-5ad0-4337-bea0-d7adca2961b5",
            "name": "Ash",
            "url": "https://haz-map.com/Agents/965",
            "category": "agents"
          }
        ]
      }
    },
    "adverse_effects": {
      "skin_sensitizer": {
        "original_name": "Skin Sensitizer",
        "value": "Yes",
        "links": [],
        "cross_references": []
      }
    },
    "diseases_processes_and_activities_linked_to_this_agent": {
      "diseases": {
        "original_name": "Diseases",
        "value": "Occupational diseases associated with exposure to this agent: Contact dermatitis, allergic",
        "links": [
          {
            "text": "Contact dermatitis, allergic",
            "url": "https://haz-map.com/Diseases/18"
          }
        ],
        "cross_references": [
          {
            "type": "url_match",
            "text": "Contact dermatitis, allergic",
            "url": "https://haz-map.com/Diseases/18",
            "confidence": 1.0,
            "uuid": "c9499de0-9aa1-41bf-8753-cd5b28a63e29",
            "name": "Contact dermatitis, allergic",
            "category": "diseases"
          },
          {
            "type": "name_match",
            "text": "dermatitis",
            "confidence": 1.0,
            "uuid": "fe9c05f2-b19f-4ceb-ac7a-ffb7d7a0cae0",
            "name": "dermatitis",
            "url": "https://haz-map.com/Findings/59",
            "category": "findings"
          }
        ]
      }
    }
  },
  "cross_references": [
    {
      "type": "url_match",
      "text": "Contact dermatitis, allergic",
      "url": "https://haz-map.com/Diseases/18",
      "confidence": 1.0,
      "uuid": "c9499de0-9aa1-41bf-8753-cd5b28a63e29",
      "name": "Contact dermatitis, allergic",
      "category": "diseases"
    },
    {
      "type": "name_match",
      "text": "dermatitis",
      "confidence": 1.0,
      "uuid": "fe9c05f2-b19f-4ceb-ac7a-ffb7d7a0cae0",
      "name": "dermatitis",
      "url": "https://haz-map.com/Findings/59",
      "category": "findings"
    },
    {
      "type": "name_match",
      "text": "allyl alcohol",
      "confidence": 1.0,
      "uuid": "c235e99a-777b-43d1-94df-f6ede137022d",
      "name": "Allyl alcohol",
      "url": "https://haz-map.com/Agents/242",
      "category": "agents"
    },
    {
      "type": "name_match",
      "text": "mica",
      "confidence": 1.0,
      "uuid": "433f26f1-c399-4596-b179-ce3843cfd465",
      "name": "Mica",
      "url": "https://haz-map.com/Agents/621",
      "category": "agents"
    },
    {
      "type": "name_match",
      "text": "ash",
      "confidence": 1.0,
      "uuid": "68b360f1-5ad0-4337-bea0-d7adca2961b5",
      "name": "Ash",
      "url": "https://haz-map.com/Agents/965",
      "category": "agents"
    },
    {
      "type": "name_match",
      "text": "cinnamyl alcohol",
      "confidence": 1.0,
      "uuid": "ef950229-7bfc-43b0-b55d-e02336d1bb19",
      "name": "Cinnamyl alcohol",
      "url": "https://haz-map.com/Agents/3250",
      "category": "agents"
    },
    {
      "type": "fuzzy_match",
      "text": "crystalline",
      "matched_name": "Silica, crystalline",
      "confidence": 0.7061403508771931,
      "uuid": "f920e8a2-46df-41b7-af8d-0368a777251e",
      "category": "agents",
      "url": "https://haz-map.com/Agents/427"
    }
  ],
  "all_links": [
    {
      "text": "Occupational dermatitis in food handlers and baker... [J Am Acad Dermatol. 1989] - PubMed result",
      "url": "http://www.ncbi.nlm.nih.gov/pubmed/2528571?itool=EntrezSystem2.PEntrez.Pubmed.Pubmed_ResultsPanel.Pubmed_RVDocSum&ordinalpos=17"
    },
    {
      "text": "Search PubMed",
      "url": "https://www.ncbi.nlm.nih.gov/pubmed?term=Cinnamyl+alcohol%20AND%20human%5Bmh%5D%20AND%20%28Occupational%20Diseases%20%5Bmh%5D%20OR%20Occupational%20Exposure%20%5Bmh%5D%29%20%20AND%20%28tox%5Bsb%5D%29&cmd=search"
    },
    {
      "text": "Contact dermatitis, allergic",
      "url": "https://haz-map.com/Diseases/18"
    }
  ]
}