{
  "metadata": {
    "scraped_from": "https://haz-map.com/Agents/16567",
    "entity_name": "Phenylglyceryl ether",
    "category": "agents",
    "uuid": "ef965282-3fed-48bc-aefa-c48a1a470772",
    "scraped_at": "2025-07-23T21:38:34.829233"
  },
  "parsed_at": "2025-07-24T01:16:12.563750",
  "title": "Phenylglyceryl ether",
  "sections": {
    "general": {
      "agent_name": {
        "original_name": "Agent Name",
        "value": "Phenylglyceryl ether",
        "links": [],
        "cross_references": [
          {
            "type": "name_match",
            "text": "phenylglyceryl ether",
            "confidence": 1.0,
            "uuid": "ef965282-3fed-48bc-aefa-c48a1a470772",
            "name": "Phenylglyceryl ether",
            "url": "https://haz-map.com/Agents/16567",
            "category": "agents"
          }
        ]
      },
      "cas_number": {
        "original_name": "CAS Number",
        "value": "538-43-2",
        "links": [],
        "cross_references": []
      },
      "formula": {
        "original_name": "Formula",
        "value": "C9-H12-O3",
        "links": [],
        "cross_references": []
      },
      "major_category": {
        "original_name": "Major Category",
        "value": "Other Classes",
        "links": [],
        "cross_references": []
      },
      "synonyms": {
        "original_name": "Synonyms",
        "value": "1-Fenoxy-2,3-propandiol [Czech]; 1-Phenoxy-2,3-propanediol; 3-Phenoxy-1,2-propanediol; Antodyn; Antodyne; Glycerol alpha-monophenyl ether; Glycerol alpha-phenyl ether; Phenol glycerol ether; Phenol glyceryl ether; Phenol-glycerinaether [German]; Phenyl-alpha-glycerol ether; U 27,462; alpha-Phenyl monoglyceryl ether; 1,2-Propanediol, 3-phenoxy-; 1,2-Propanediol,3-phenoxy-; 3-Phenoxypropane-1,2-diol; [ChemIDplus]",
        "links": [],
        "cross_references": [
          {
            "type": "name_match",
            "text": "phenol",
            "confidence": 1.0,
            "uuid": "03141a03-a7df-4f51-9a37-adde1a7c4b31",
            "name": "Phenol",
            "url": "https://haz-map.com/Agents/84",
            "category": "agents"
          },
          {
            "type": "name_match",
            "text": "glycerin",
            "confidence": 1.0,
            "uuid": "28d55633-4d0d-446a-82c8-ed15a611f2bd",
            "name": "Glycerin",
            "url": "https://haz-map.com/Agents/501",
            "category": "agents"
          },
          {
            "type": "name_match",
            "text": "phenyl ether",
            "confidence": 1.0,
            "uuid": "063d5590-1868-48d4-a62d-7f1f2e8cf6d4",
            "name": "Phenyl ether",
            "url": "https://haz-map.com/Agents/591",
            "category": "agents"
          },
          {
            "type": "name_match",
            "text": "propane",
            "confidence": 1.0,
            "uuid": "563a611b-46ea-4bdc-b77b-17d8f7646283",
            "name": "Propane",
            "url": "https://haz-map.com/Agents/607",
            "category": "agents"
          },
          {
            "type": "fuzzy_match",
            "text": "3-propanediol",
            "matched_name": "1,3-Propanediol",
            "confidence": 0.8564102564102565,
            "uuid": "363c509c-abea-46ca-9e07-a05fe05d1854",
            "category": "agents",
            "url": "https://haz-map.com/Agents/9616"
          }
        ]
      },
      "category": {
        "original_name": "Category",
        "value": "Other Organic Compounds",
        "links": [],
        "cross_references": [
          {
            "type": "fuzzy_match",
            "text": "organic compounds",
            "matched_name": "Tin, organic compounds",
            "confidence": 0.8196969696969697,
            "uuid": "e027d413-8869-4308-9eb2-27d768b011ea",
            "category": "agents",
            "url": "https://haz-map.com/Agents/656"
          }
        ]
      },
      "description": {
        "original_name": "Description",
        "value": "Solid; [Merck Index] White powder; [Alfa Aesar MSDS]",
        "links": [],
        "cross_references": []
      },
      "comments": {
        "original_name": "Comments",
        "value": "An eye irritant; Causes flaccid paralysis and respiratory depression in oral lethal-dose studies of mice; [RTECS] May cause irritation; [Alfa Aesar MSDS] See \"3-Methoxy-1,2-propanediol.\"",
        "links": [],
        "cross_references": [
          {
            "type": "name_match",
            "text": "propane",
            "confidence": 1.0,
            "uuid": "563a611b-46ea-4bdc-b77b-17d8f7646283",
            "name": "Propane",
            "url": "https://haz-map.com/Agents/607",
            "category": "agents"
          },
          {
            "type": "name_match",
            "text": "3-methoxy-1,2-propanediol",
            "confidence": 1.0,
            "uuid": "4bc2ef12-ff92-415b-b310-85ca7afd9eb2",
            "name": "3-Methoxy-1,2-propanediol",
            "url": "https://haz-map.com/Agents/10788",
            "category": "agents"
          }
        ]
      },
      "biomedical_references": {
        "original_name": "Biomedical References",
        "value": "Search PubMed",
        "links": [
          {
            "text": "Search PubMed",
            "url": "https://www.ncbi.nlm.nih.gov/pubmed?term=Phenylglyceryl+ether%20AND%20human%5Bmh%5D%20AND%20%28Occupational%20Diseases%20%5Bmh%5D%20OR%20Occupational%20Exposure%20%5Bmh%5D%29%20%20AND%20%28tox%5Bsb%5D%29&cmd=search"
          }
        ],
        "cross_references": []
      }
    },
    "exposure_assessment": {
      "vapor_pressure": {
        "original_name": "Vapor Pressure",
        "value": "2E-05 mm Hg",
        "links": [],
        "cross_references": []
      }
    },
    "diseases_processes_and_activities_linked_to_this_agent": {
      "other_information": {
        "original_name": "Other Information",
        "value": "No other related information on this agent was found.",
        "links": [],
        "cross_references": []
      }
    }
  },
  "cross_references": [
    {
      "type": "name_match",
      "text": "phenol",
      "confidence": 1.0,
      "uuid": "03141a03-a7df-4f51-9a37-adde1a7c4b31",
      "name": "Phenol",
      "url": "https://haz-map.com/Agents/84",
      "category": "agents"
    },
    {
      "type": "name_match",
      "text": "glycerin",
      "confidence": 1.0,
      "uuid": "28d55633-4d0d-446a-82c8-ed15a611f2bd",
      "name": "Glycerin",
      "url": "https://haz-map.com/Agents/501",
      "category": "agents"
    },
    {
      "type": "name_match",
      "text": "phenyl ether",
      "confidence": 1.0,
      "uuid": "063d5590-1868-48d4-a62d-7f1f2e8cf6d4",
      "name": "Phenyl ether",
      "url": "https://haz-map.com/Agents/591",
      "category": "agents"
    },
    {
      "type": "name_match",
      "text": "propane",
      "confidence": 1.0,
      "uuid": "563a611b-46ea-4bdc-b77b-17d8f7646283",
      "name": "Propane",
      "url": "https://haz-map.com/Agents/607",
      "category": "agents"
    },
    {
      "type": "name_match",
      "text": "3-methoxy-1,2-propanediol",
      "confidence": 1.0,
      "uuid": "4bc2ef12-ff92-415b-b310-85ca7afd9eb2",
      "name": "3-Methoxy-1,2-propanediol",
      "url": "https://haz-map.com/Agents/10788",
      "category": "agents"
    },
    {
      "type": "name_match",
      "text": "phenylglyceryl ether",
      "confidence": 1.0,
      "uuid": "ef965282-3fed-48bc-aefa-c48a1a470772",
      "name": "Phenylglyceryl ether",
      "url": "https://haz-map.com/Agents/16567",
      "category": "agents"
    },
    {
      "type": "fuzzy_match",
      "text": "3-propanediol",
      "matched_name": "1,3-Propanediol",
      "confidence": 0.8564102564102565,
      "uuid": "363c509c-abea-46ca-9e07-a05fe05d1854",
      "category": "agents",
      "url": "https://haz-map.com/Agents/9616"
    },
    {
      "type": "fuzzy_match",
      "text": "organic compounds",
      "matched_name": "Tin, organic compounds",
      "confidence": 0.8196969696969697,
      "uuid": "e027d413-8869-4308-9eb2-27d768b011ea",
      "category": "agents",
      "url": "https://haz-map.com/Agents/656"
    }
  ],
  "all_links": [
    {
      "text": "Search PubMed",
      "url": "https://www.ncbi.nlm.nih.gov/pubmed?term=Phenylglyceryl+ether%20AND%20human%5Bmh%5D%20AND%20%28Occupational%20Diseases%20%5Bmh%5D%20OR%20Occupational%20Exposure%20%5Bmh%5D%29%20%20AND%20%28tox%5Bsb%5D%29&cmd=search"
    }
  ]
}