{
  "metadata": {
    "scraped_from": "https://haz-map.com/Agents/4703",
    "entity_name": "Diacetone acrylamide",
    "category": "agents",
    "uuid": "efb4ca32-36d0-496c-a041-ffe059800cee",
    "scraped_at": "2025-07-23T19:43:40.895881"
  },
  "parsed_at": "2025-07-24T01:00:20.591970",
  "title": "Diacetone acrylamide",
  "sections": {
    "general": {
      "agent_name": {
        "original_name": "Agent Name",
        "value": "Diacetone acrylamide",
        "links": [],
        "cross_references": [
          {
            "type": "name_match",
            "text": "acrylamide",
            "confidence": 1.0,
            "uuid": "d3df7c05-3ce6-4db9-98d8-978d9ceacf02",
            "name": "Acrylamide",
            "url": "https://haz-map.com/Agents/57",
            "category": "agents"
          },
          {
            "type": "name_match",
            "text": "acetone",
            "confidence": 1.0,
            "uuid": "31b7bdae-eb37-44cc-9c56-b6dfc1908d64",
            "name": "Acetone",
            "url": "https://haz-map.com/Agents/138",
            "category": "agents"
          },
          {
            "type": "name_match",
            "text": "diacetone acrylamide",
            "confidence": 1.0,
            "uuid": "efb4ca32-36d0-496c-a041-ffe059800cee",
            "name": "Diacetone acrylamide",
            "url": "https://haz-map.com/Agents/4703",
            "category": "agents"
          }
        ]
      },
      "cas_number": {
        "original_name": "CAS Number",
        "value": "2873-97-4",
        "links": [],
        "cross_references": []
      },
      "formula": {
        "original_name": "Formula",
        "value": "C9-H15-N-O2",
        "links": [],
        "cross_references": []
      },
      "major_category": {
        "original_name": "Major Category",
        "value": "Other Classes",
        "links": [],
        "cross_references": []
      },
      "synonyms": {
        "original_name": "Synonyms",
        "value": "2-Propenamide, N-(1,1-dimethyl-3-oxobutyl)-; Acrylamide, N,N-diacetonyl-; Acrylamide, N-(1,1-dimethyl-3-oxobutyl)-; Diacetoneacrylamide; N-(1,1-Dimethyl-3-oxobutyl)-2-propenamide; N-(1,1-Dimethyl-3-oxobutyl)acrylamide; N-(2-(2-Methyl-4-oxopentyl))acrylamide; [ChemIDplus]",
        "links": [],
        "cross_references": [
          {
            "type": "name_match",
            "text": "acrylamide",
            "confidence": 1.0,
            "uuid": "d3df7c05-3ce6-4db9-98d8-978d9ceacf02",
            "name": "Acrylamide",
            "url": "https://haz-map.com/Agents/57",
            "category": "agents"
          },
          {
            "type": "name_match",
            "text": "acetone",
            "confidence": 1.0,
            "uuid": "31b7bdae-eb37-44cc-9c56-b6dfc1908d64",
            "name": "Acetone",
            "url": "https://haz-map.com/Agents/138",
            "category": "agents"
          }
        ]
      },
      "category": {
        "original_name": "Category",
        "value": "Other Organic Compounds",
        "links": [],
        "cross_references": [
          {
            "type": "fuzzy_match",
            "text": "organic compounds",
            "matched_name": "Tin, organic compounds",
            "confidence": 0.8196969696969697,
            "uuid": "e027d413-8869-4308-9eb2-27d768b011ea",
            "category": "agents",
            "url": "https://haz-map.com/Agents/656"
          }
        ]
      },
      "description": {
        "original_name": "Description",
        "value": "White hygroscopic solid; [Merck Index] White or yellow crystalline solid; [MSDSonline]",
        "links": [],
        "cross_references": [
          {
            "type": "fuzzy_match",
            "text": "crystalline",
            "matched_name": "Silica, crystalline",
            "confidence": 0.7061403508771931,
            "uuid": "f920e8a2-46df-41b7-af8d-0368a777251e",
            "category": "agents",
            "url": "https://haz-map.com/Agents/427"
          }
        ]
      },
      "sourcesuses": {
        "original_name": "Sources/Uses",
        "value": "Used to make coatings, laminates, sealers, adhesives, and lubricating oils; to impart water tolerance and vapor permeability to copolymer films; as cross-linking agent in polyester resins; in color photography; in orthopedic bandages; in air sprays; [HSDB] Used as adhesion improver for cellulosics, concrete, and glass; [Hawley]",
        "links": [],
        "cross_references": [
          {
            "type": "name_match",
            "text": "water",
            "confidence": 1.0,
            "uuid": "6f2a7557-dfd2-49bc-9b4b-a93cd8e225d4",
            "name": "Water",
            "url": "https://haz-map.com/Agents/18668",
            "category": "agents"
          }
        ]
      },
      "comments": {
        "original_name": "Comments",
        "value": "Toxic by ingestion; [HSDB] Causes somnolence and convulsions in lethal-dose feeding studies of rats; [RTECS] An irritant; [CAMEO] An irritant; Effects in high-dose animal studies include convulsions; [MSDSonline]",
        "links": [],
        "cross_references": [
          {
            "type": "name_match",
            "text": "convulsion",
            "confidence": 1.0,
            "uuid": "af2c36f8-707a-48e3-a62b-1aa07adc9b72",
            "name": "convulsion",
            "url": "https://haz-map.com/Findings/14",
            "category": "findings"
          }
        ]
      },
      "biomedical_references": {
        "original_name": "Biomedical References",
        "value": "Search PubMed",
        "links": [
          {
            "text": "Search PubMed",
            "url": "https://www.ncbi.nlm.nih.gov/pubmed?term=Diacetone+acrylamide%20AND%20human%5Bmh%5D%20AND%20%28Occupational%20Diseases%20%5Bmh%5D%20OR%20Occupational%20Exposure%20%5Bmh%5D%29%20%20AND%20%28tox%5Bsb%5D%29&cmd=search"
          }
        ],
        "cross_references": []
      }
    },
    "exposure_assessment": {
      "vapor_pressure": {
        "original_name": "Vapor Pressure",
        "value": "0.000579 mm Hg",
        "links": [],
        "cross_references": []
      }
    },
    "adverse_effects": {
      "neurotoxin": {
        "original_name": "Neurotoxin",
        "value": "Other CNS neurotoxin",
        "links": [],
        "cross_references": []
      }
    },
    "diseases_processes_and_activities_linked_to_this_agent": {
      "processes": {
        "original_name": "Processes",
        "value": "Industrial Processes with risk of exposure: Cement Producing Glass Manufacturing Photographic Processing Plastic Composites Manufacturing Textiles (Fiber & Fabric Manufacturing)",
        "links": [
          {
            "text": "Cement Producing",
            "url": "https://haz-map.com/Processes/234"
          },
          {
            "text": "Glass Manufacturing",
            "url": "https://haz-map.com/Processes/260"
          },
          {
            "text": "Photographic Processing",
            "url": "https://haz-map.com/Processes/231"
          },
          {
            "text": "Plastic Composites Manufacturing",
            "url": "https://haz-map.com/Processes/222"
          },
          {
            "text": "Textiles (Fiber & Fabric Manufacturing)",
            "url": "https://haz-map.com/Processes/135"
          }
        ],
        "cross_references": [
          {
            "type": "url_match",
            "text": "Plastic Composites Manufacturing",
            "url": "https://haz-map.com/Processes/222",
            "confidence": 1.0,
            "uuid": "d4461b82-dc77-4172-8e3d-0a5e3b213911",
            "name": "Plastic Composites Manufacturing",
            "category": "processes"
          },
          {
            "type": "url_match",
            "text": "Textiles (Fiber & Fabric Manufacturing)",
            "url": "https://haz-map.com/Processes/135",
            "confidence": 1.0,
            "uuid": "43ebdcdb-bb09-4402-87b6-ae8cf169dddd",
            "name": "Textiles (Fiber & Fabric Manufacturing)",
            "category": "processes"
          }
        ]
      }
    }
  },
  "cross_references": [
    {
      "type": "url_match",
      "text": "Plastic Composites Manufacturing",
      "url": "https://haz-map.com/Processes/222",
      "confidence": 1.0,
      "uuid": "d4461b82-dc77-4172-8e3d-0a5e3b213911",
      "name": "Plastic Composites Manufacturing",
      "category": "processes"
    },
    {
      "type": "url_match",
      "text": "Textiles (Fiber & Fabric Manufacturing)",
      "url": "https://haz-map.com/Processes/135",
      "confidence": 1.0,
      "uuid": "43ebdcdb-bb09-4402-87b6-ae8cf169dddd",
      "name": "Textiles (Fiber & Fabric Manufacturing)",
      "category": "processes"
    },
    {
      "type": "name_match",
      "text": "convulsion",
      "confidence": 1.0,
      "uuid": "af2c36f8-707a-48e3-a62b-1aa07adc9b72",
      "name": "convulsion",
      "url": "https://haz-map.com/Findings/14",
      "category": "findings"
    },
    {
      "type": "name_match",
      "text": "acrylamide",
      "confidence": 1.0,
      "uuid": "d3df7c05-3ce6-4db9-98d8-978d9ceacf02",
      "name": "Acrylamide",
      "url": "https://haz-map.com/Agents/57",
      "category": "agents"
    },
    {
      "type": "name_match",
      "text": "acetone",
      "confidence": 1.0,
      "uuid": "31b7bdae-eb37-44cc-9c56-b6dfc1908d64",
      "name": "Acetone",
      "url": "https://haz-map.com/Agents/138",
      "category": "agents"
    },
    {
      "type": "name_match",
      "text": "diacetone acrylamide",
      "confidence": 1.0,
      "uuid": "efb4ca32-36d0-496c-a041-ffe059800cee",
      "name": "Diacetone acrylamide",
      "url": "https://haz-map.com/Agents/4703",
      "category": "agents"
    },
    {
      "type": "name_match",
      "text": "water",
      "confidence": 1.0,
      "uuid": "6f2a7557-dfd2-49bc-9b4b-a93cd8e225d4",
      "name": "Water",
      "url": "https://haz-map.com/Agents/18668",
      "category": "agents"
    },
    {
      "type": "fuzzy_match",
      "text": "organic compounds",
      "matched_name": "Tin, organic compounds",
      "confidence": 0.8196969696969697,
      "uuid": "e027d413-8869-4308-9eb2-27d768b011ea",
      "category": "agents",
      "url": "https://haz-map.com/Agents/656"
    },
    {
      "type": "fuzzy_match",
      "text": "crystalline",
      "matched_name": "Silica, crystalline",
      "confidence": 0.7061403508771931,
      "uuid": "f920e8a2-46df-41b7-af8d-0368a777251e",
      "category": "agents",
      "url": "https://haz-map.com/Agents/427"
    }
  ],
  "all_links": [
    {
      "text": "Search PubMed",
      "url": "https://www.ncbi.nlm.nih.gov/pubmed?term=Diacetone+acrylamide%20AND%20human%5Bmh%5D%20AND%20%28Occupational%20Diseases%20%5Bmh%5D%20OR%20Occupational%20Exposure%20%5Bmh%5D%29%20%20AND%20%28tox%5Bsb%5D%29&cmd=search"
    },
    {
      "text": "Cement Producing",
      "url": "https://haz-map.com/Processes/234"
    },
    {
      "text": "Glass Manufacturing",
      "url": "https://haz-map.com/Processes/260"
    },
    {
      "text": "Photographic Processing",
      "url": "https://haz-map.com/Processes/231"
    },
    {
      "text": "Plastic Composites Manufacturing",
      "url": "https://haz-map.com/Processes/222"
    },
    {
      "text": "Textiles (Fiber & Fabric Manufacturing)",
      "url": "https://haz-map.com/Processes/135"
    }
  ]
}