{
  "metadata": {
    "scraped_from": "https://haz-map.com/Agents/10430",
    "entity_name": "2-Bromoacetophenone",
    "category": "agents",
    "uuid": "efe4a801-ff27-4c2f-95b9-67de752482bd",
    "scraped_at": "2025-07-23T20:47:20.867483"
  },
  "parsed_at": "2025-07-24T01:16:48.231679",
  "title": "2-Bromoacetophenone",
  "sections": {
    "general": {
      "agent_name": {
        "original_name": "Agent Name",
        "value": "2-Bromoacetophenone",
        "links": [],
        "cross_references": [
          {
            "type": "name_match",
            "text": "acetophenone",
            "confidence": 1.0,
            "uuid": "ea2f7a13-5a06-4d04-88db-0d365933a3ec",
            "name": "Acetophenone",
            "url": "https://haz-map.com/Agents/2193",
            "category": "agents"
          },
          {
            "type": "name_match",
            "text": "2-bromoacetophenone",
            "confidence": 1.0,
            "uuid": "efe4a801-ff27-4c2f-95b9-67de752482bd",
            "name": "2-Bromoacetophenone",
            "url": "https://haz-map.com/Agents/10430",
            "category": "agents"
          }
        ]
      },
      "alternative_name": {
        "original_name": "Alternative Name",
        "value": "Phenacyl bromide",
        "links": [],
        "cross_references": []
      },
      "cas_number": {
        "original_name": "CAS Number",
        "value": "70-11-1",
        "links": [],
        "cross_references": []
      },
      "formula": {
        "original_name": "Formula",
        "value": "C8-H7-Br-O",
        "links": [],
        "cross_references": []
      },
      "major_category": {
        "original_name": "Major Category",
        "value": "Other Classes",
        "links": [],
        "cross_references": []
      },
      "synonyms": {
        "original_name": "Synonyms",
        "value": "Phenacyl bromide; Bromomethyl phenyl ketone; Stauffer 4644; omega-Bromacetophenone; Acetophenone, 2-bromo- (8CI); Bromoacetophenone; Ethanone, 2-bromo-1-phenyl-; [ChemIDplus] 2-Bromo-1-phenylethanone; [Merck Index] UN2645",
        "links": [],
        "cross_references": [
          {
            "type": "name_match",
            "text": "acetophenone",
            "confidence": 1.0,
            "uuid": "ea2f7a13-5a06-4d04-88db-0d365933a3ec",
            "name": "Acetophenone",
            "url": "https://haz-map.com/Agents/2193",
            "category": "agents"
          }
        ]
      },
      "category": {
        "original_name": "Category",
        "value": "Aromatic Ketones, Halogenated",
        "links": [],
        "cross_references": []
      },
      "description": {
        "original_name": "Description",
        "value": "Solid; [Merck Index] Beige crystalline solid; [Aldrich MSDS]",
        "links": [],
        "cross_references": [
          {
            "type": "fuzzy_match",
            "text": "crystalline",
            "matched_name": "Silica, crystalline",
            "confidence": 0.7061403508771931,
            "uuid": "f920e8a2-46df-41b7-af8d-0368a777251e",
            "category": "agents",
            "url": "https://haz-map.com/Agents/427"
          }
        ]
      },
      "sourcesuses": {
        "original_name": "Sources/Uses",
        "value": "Used to make other chemicals; [CAMEO]",
        "links": [],
        "cross_references": [
          {
            "type": "name_match",
            "text": "mica",
            "confidence": 1.0,
            "uuid": "433f26f1-c399-4596-b179-ce3843cfd465",
            "name": "Mica",
            "url": "https://haz-map.com/Agents/621",
            "category": "agents"
          }
        ]
      },
      "comments": {
        "original_name": "Comments",
        "value": "A lachrymator; A severe skin, eye, and mucous membrane irritant; [Merck Index] Slowly reacts with moisture producing hydrogen bromide; A lachrymator; Toxic by ingestion, inhalation, and skin absorption; [CAMEO] Causes burns and lachrymation; Inhalation may cause corrosive injuries to upper respiratory tract and lungs; [Aldrich MSDS] See \"alpha-Chloroacetophenone.\"",
        "links": [],
        "cross_references": [
          {
            "type": "name_match",
            "text": "burn",
            "confidence": 1.0,
            "uuid": "63665de5-6376-4918-8dbf-4c10c4d63837",
            "name": "burn",
            "url": "https://haz-map.com/Findings/204",
            "category": "findings"
          },
          {
            "type": "name_match",
            "text": "alpha-chloroacetophenone",
            "confidence": 1.0,
            "uuid": "dd56f1fb-0e88-4c49-912f-2ff304fa8d18",
            "name": "alpha-Chloroacetophenone",
            "url": "https://haz-map.com/Agents/353",
            "category": "agents"
          },
          {
            "type": "name_match",
            "text": "hydrogen bromide",
            "confidence": 1.0,
            "uuid": "a7d11015-8697-4476-912b-80e3da6e7bcb",
            "name": "Hydrogen bromide",
            "url": "https://haz-map.com/Agents/512",
            "category": "agents"
          },
          {
            "type": "name_match",
            "text": "hydrogen",
            "confidence": 1.0,
            "uuid": "e2d9645f-5559-4d88-b820-fc4710c154f2",
            "name": "Hydrogen",
            "url": "https://haz-map.com/Agents/1070",
            "category": "agents"
          },
          {
            "type": "name_match",
            "text": "acetophenone",
            "confidence": 1.0,
            "uuid": "ea2f7a13-5a06-4d04-88db-0d365933a3ec",
            "name": "Acetophenone",
            "url": "https://haz-map.com/Agents/2193",
            "category": "agents"
          }
        ]
      },
      "biomedical_references": {
        "original_name": "Biomedical References",
        "value": "Search PubMed",
        "links": [
          {
            "text": "Search PubMed",
            "url": "https://www.ncbi.nlm.nih.gov/pubmed?term=2-Bromoacetophenone%20AND%20human%5Bmh%5D%20AND%20%28Occupational%20Diseases%20%5Bmh%5D%20OR%20Occupational%20Exposure%20%5Bmh%5D%29%20%20AND%20%28tox%5Bsb%5D%29&cmd=search"
          }
        ],
        "cross_references": []
      }
    },
    "exposure_assessment": {
      "vapor_pressure": {
        "original_name": "Vapor Pressure",
        "value": "0.019 mm Hg",
        "links": [],
        "cross_references": []
      },
      "explanatory_notes": {
        "original_name": "Explanatory Notes",
        "value": "VP from ChemIDplus;",
        "links": [],
        "cross_references": []
      }
    },
    "adverse_effects": {
      "lachrymator": {
        "original_name": "Lachrymator",
        "value": "Yes",
        "links": [],
        "cross_references": []
      },
      "toxic_pneumonitis": {
        "original_name": "Toxic Pneumonitis",
        "value": "Yes",
        "links": [],
        "cross_references": []
      },
      "dermatotoxin": {
        "original_name": "Dermatotoxin",
        "value": "Skin burns",
        "links": [],
        "cross_references": [
          {
            "type": "name_match",
            "text": "burn",
            "confidence": 1.0,
            "uuid": "63665de5-6376-4918-8dbf-4c10c4d63837",
            "name": "burn",
            "url": "https://haz-map.com/Findings/204",
            "category": "findings"
          }
        ]
      }
    },
    "diseases_processes_and_activities_linked_to_this_agent": {
      "other_information": {
        "original_name": "Other Information",
        "value": "No other related information on this agent was found.",
        "links": [],
        "cross_references": []
      }
    }
  },
  "cross_references": [
    {
      "type": "name_match",
      "text": "burn",
      "confidence": 1.0,
      "uuid": "63665de5-6376-4918-8dbf-4c10c4d63837",
      "name": "burn",
      "url": "https://haz-map.com/Findings/204",
      "category": "findings"
    },
    {
      "type": "name_match",
      "text": "alpha-chloroacetophenone",
      "confidence": 1.0,
      "uuid": "dd56f1fb-0e88-4c49-912f-2ff304fa8d18",
      "name": "alpha-Chloroacetophenone",
      "url": "https://haz-map.com/Agents/353",
      "category": "agents"
    },
    {
      "type": "name_match",
      "text": "hydrogen bromide",
      "confidence": 1.0,
      "uuid": "a7d11015-8697-4476-912b-80e3da6e7bcb",
      "name": "Hydrogen bromide",
      "url": "https://haz-map.com/Agents/512",
      "category": "agents"
    },
    {
      "type": "name_match",
      "text": "mica",
      "confidence": 1.0,
      "uuid": "433f26f1-c399-4596-b179-ce3843cfd465",
      "name": "Mica",
      "url": "https://haz-map.com/Agents/621",
      "category": "agents"
    },
    {
      "type": "name_match",
      "text": "hydrogen",
      "confidence": 1.0,
      "uuid": "e2d9645f-5559-4d88-b820-fc4710c154f2",
      "name": "Hydrogen",
      "url": "https://haz-map.com/Agents/1070",
      "category": "agents"
    },
    {
      "type": "name_match",
      "text": "acetophenone",
      "confidence": 1.0,
      "uuid": "ea2f7a13-5a06-4d04-88db-0d365933a3ec",
      "name": "Acetophenone",
      "url": "https://haz-map.com/Agents/2193",
      "category": "agents"
    },
    {
      "type": "name_match",
      "text": "2-bromoacetophenone",
      "confidence": 1.0,
      "uuid": "efe4a801-ff27-4c2f-95b9-67de752482bd",
      "name": "2-Bromoacetophenone",
      "url": "https://haz-map.com/Agents/10430",
      "category": "agents"
    },
    {
      "type": "fuzzy_match",
      "text": "crystalline",
      "matched_name": "Silica, crystalline",
      "confidence": 0.7061403508771931,
      "uuid": "f920e8a2-46df-41b7-af8d-0368a777251e",
      "category": "agents",
      "url": "https://haz-map.com/Agents/427"
    }
  ],
  "all_links": [
    {
      "text": "Search PubMed",
      "url": "https://www.ncbi.nlm.nih.gov/pubmed?term=2-Bromoacetophenone%20AND%20human%5Bmh%5D%20AND%20%28Occupational%20Diseases%20%5Bmh%5D%20OR%20Occupational%20Exposure%20%5Bmh%5D%29%20%20AND%20%28tox%5Bsb%5D%29&cmd=search"
    }
  ]
}