{
  "metadata": {
    "scraped_from": "https://haz-map.com/Agents/21157",
    "entity_name": "Methylglyoxal dimethyl acetal",
    "category": "agents",
    "uuid": "f014112f-4463-43d4-8eab-89cd8aad2b20",
    "scraped_at": "2025-07-23T22:38:35.217460"
  },
  "parsed_at": "2025-07-24T01:11:53.671550",
  "title": "Methylglyoxal dimethyl acetal",
  "sections": {
    "general": {
      "agent_name": {
        "original_name": "Agent Name",
        "value": "Methylglyoxal dimethyl acetal",
        "links": [],
        "cross_references": [
          {
            "type": "name_match",
            "text": "glyoxal",
            "confidence": 1.0,
            "uuid": "2b9e6427-9bb5-4761-a203-976d2bf6ac36",
            "name": "Glyoxal",
            "url": "https://haz-map.com/Agents/98",
            "category": "agents"
          },
          {
            "type": "name_match",
            "text": "acetal",
            "confidence": 1.0,
            "uuid": "1ee09b5b-04fd-47c0-ab34-a2d9db740bcb",
            "name": "Acetal",
            "url": "https://haz-map.com/Agents/3381",
            "category": "agents"
          },
          {
            "type": "name_match",
            "text": "methylglyoxal",
            "confidence": 1.0,
            "uuid": "64afec5d-50f3-460b-8441-55bf57ebebca",
            "name": "Methylglyoxal",
            "url": "https://haz-map.com/Agents/6108",
            "category": "agents"
          },
          {
            "type": "name_match",
            "text": "methylglyoxal dimethyl acetal",
            "confidence": 1.0,
            "uuid": "f014112f-4463-43d4-8eab-89cd8aad2b20",
            "name": "Methylglyoxal dimethyl acetal",
            "url": "https://haz-map.com/Agents/21157",
            "category": "agents"
          }
        ]
      },
      "cas_number": {
        "original_name": "CAS Number",
        "value": "6342-56-9",
        "links": [],
        "cross_references": []
      },
      "formula": {
        "original_name": "Formula",
        "value": "C5-H10-O3",
        "links": [],
        "cross_references": []
      },
      "major_category": {
        "original_name": "Major Category",
        "value": "Other Classes",
        "links": [],
        "cross_references": []
      },
      "synonyms": {
        "original_name": "Synonyms",
        "value": "1,1-Dimethoxy-2-propanone; 1,1-Dimethoxyacetone; Dimethoxymethyl methyl ketone; Pyruvaldehyde dimethyl acetal; Pyruvaldehyde, 1-(dimethyl acetal); 2-Propanone, 1,1-dimethoxy-; [ChemIDplus] Methylglyoxal 1,1-dimethyl acetal; [Sigma-Aldrich MSDS] UN1224",
        "links": [],
        "cross_references": [
          {
            "type": "name_match",
            "text": "glyoxal",
            "confidence": 1.0,
            "uuid": "2b9e6427-9bb5-4761-a203-976d2bf6ac36",
            "name": "Glyoxal",
            "url": "https://haz-map.com/Agents/98",
            "category": "agents"
          },
          {
            "type": "name_match",
            "text": "acetone",
            "confidence": 1.0,
            "uuid": "31b7bdae-eb37-44cc-9c56-b6dfc1908d64",
            "name": "Acetone",
            "url": "https://haz-map.com/Agents/138",
            "category": "agents"
          },
          {
            "type": "name_match",
            "text": "acetal",
            "confidence": 1.0,
            "uuid": "1ee09b5b-04fd-47c0-ab34-a2d9db740bcb",
            "name": "Acetal",
            "url": "https://haz-map.com/Agents/3381",
            "category": "agents"
          },
          {
            "type": "name_match",
            "text": "methylglyoxal",
            "confidence": 1.0,
            "uuid": "64afec5d-50f3-460b-8441-55bf57ebebca",
            "name": "Methylglyoxal",
            "url": "https://haz-map.com/Agents/6108",
            "category": "agents"
          }
        ]
      },
      "category": {
        "original_name": "Category",
        "value": "Acetals",
        "links": [],
        "cross_references": [
          {
            "type": "name_match",
            "text": "acetal",
            "confidence": 1.0,
            "uuid": "1ee09b5b-04fd-47c0-ab34-a2d9db740bcb",
            "name": "Acetal",
            "url": "https://haz-map.com/Agents/3381",
            "category": "agents"
          }
        ]
      },
      "description": {
        "original_name": "Description",
        "value": "Clear dark yellow liquid; [Sigma-Aldrich MSDS]",
        "links": [],
        "cross_references": []
      },
      "comments": {
        "original_name": "Comments",
        "value": "A skin and strong eye irritant; [Sigma-Aldrich MSDS] See \"Methyl propyl ketone.\"",
        "links": [],
        "cross_references": [
          {
            "type": "name_match",
            "text": "methyl propyl ketone",
            "confidence": 1.0,
            "uuid": "32c51e3e-d4a6-45dc-a688-8dea39b19c67",
            "name": "Methyl propyl ketone",
            "url": "https://haz-map.com/Agents/148",
            "category": "agents"
          }
        ]
      },
      "biomedical_references": {
        "original_name": "Biomedical References",
        "value": "Search PubMed",
        "links": [
          {
            "text": "Search PubMed",
            "url": "https://www.ncbi.nlm.nih.gov/pubmed?term=Methylglyoxal+dimethyl+acetal%20AND%20human%5Bmh%5D%20AND%20%28Occupational%20Diseases%20%5Bmh%5D%20OR%20Occupational%20Exposure%20%5Bmh%5D%29%20%20AND%20%28tox%5Bsb%5D%29&cmd=search"
          }
        ],
        "cross_references": []
      }
    },
    "exposure_assessment": {
      "vapor_pressure": {
        "original_name": "Vapor Pressure",
        "value": "8.48 mm Hg",
        "links": [],
        "cross_references": []
      },
      "explanatory_notes": {
        "original_name": "Explanatory Notes",
        "value": "The Guide in the Emergency Response Guidebook is for \"Ketones, liquid, n.o.s.\"",
        "links": [],
        "cross_references": []
      }
    },
    "diseases_processes_and_activities_linked_to_this_agent": {
      "other_information": {
        "original_name": "Other Information",
        "value": "No other related information on this agent was found.",
        "links": [],
        "cross_references": []
      }
    }
  },
  "cross_references": [
    {
      "type": "name_match",
      "text": "glyoxal",
      "confidence": 1.0,
      "uuid": "2b9e6427-9bb5-4761-a203-976d2bf6ac36",
      "name": "Glyoxal",
      "url": "https://haz-map.com/Agents/98",
      "category": "agents"
    },
    {
      "type": "name_match",
      "text": "acetone",
      "confidence": 1.0,
      "uuid": "31b7bdae-eb37-44cc-9c56-b6dfc1908d64",
      "name": "Acetone",
      "url": "https://haz-map.com/Agents/138",
      "category": "agents"
    },
    {
      "type": "name_match",
      "text": "methyl propyl ketone",
      "confidence": 1.0,
      "uuid": "32c51e3e-d4a6-45dc-a688-8dea39b19c67",
      "name": "Methyl propyl ketone",
      "url": "https://haz-map.com/Agents/148",
      "category": "agents"
    },
    {
      "type": "name_match",
      "text": "acetal",
      "confidence": 1.0,
      "uuid": "1ee09b5b-04fd-47c0-ab34-a2d9db740bcb",
      "name": "Acetal",
      "url": "https://haz-map.com/Agents/3381",
      "category": "agents"
    },
    {
      "type": "name_match",
      "text": "methylglyoxal",
      "confidence": 1.0,
      "uuid": "64afec5d-50f3-460b-8441-55bf57ebebca",
      "name": "Methylglyoxal",
      "url": "https://haz-map.com/Agents/6108",
      "category": "agents"
    },
    {
      "type": "name_match",
      "text": "methylglyoxal dimethyl acetal",
      "confidence": 1.0,
      "uuid": "f014112f-4463-43d4-8eab-89cd8aad2b20",
      "name": "Methylglyoxal dimethyl acetal",
      "url": "https://haz-map.com/Agents/21157",
      "category": "agents"
    }
  ],
  "all_links": [
    {
      "text": "Search PubMed",
      "url": "https://www.ncbi.nlm.nih.gov/pubmed?term=Methylglyoxal+dimethyl+acetal%20AND%20human%5Bmh%5D%20AND%20%28Occupational%20Diseases%20%5Bmh%5D%20OR%20Occupational%20Exposure%20%5Bmh%5D%29%20%20AND%20%28tox%5Bsb%5D%29&cmd=search"
    }
  ]
}