{
  "metadata": {
    "scraped_from": "https://haz-map.com/Agents/11541",
    "entity_name": "3-Dodecanol",
    "category": "agents",
    "uuid": "f052e16b-1547-470a-af81-731cf7b43dfc",
    "scraped_at": "2025-07-23T21:00:50.567029"
  },
  "parsed_at": "2025-07-24T01:08:56.363486",
  "title": "3-Dodecanol",
  "sections": {
    "general": {
      "agent_name": {
        "original_name": "Agent Name",
        "value": "3-Dodecanol",
        "links": [],
        "cross_references": [
          {
            "type": "name_match",
            "text": "dodecanol",
            "confidence": 1.0,
            "uuid": "b19cf65b-9315-49e2-86ca-26e6a262da05",
            "name": "Dodecanol",
            "url": "https://haz-map.com/Agents/5047",
            "category": "agents"
          },
          {
            "type": "name_match",
            "text": "3-dodecanol",
            "confidence": 1.0,
            "uuid": "f052e16b-1547-470a-af81-731cf7b43dfc",
            "name": "3-Dodecanol",
            "url": "https://haz-map.com/Agents/11541",
            "category": "agents"
          }
        ]
      },
      "cas_number": {
        "original_name": "CAS Number",
        "value": "10203-30-2",
        "links": [],
        "cross_references": []
      },
      "formula": {
        "original_name": "Formula",
        "value": "C12-H26-O",
        "links": [],
        "cross_references": []
      },
      "major_category": {
        "original_name": "Major Category",
        "value": "Other Classes",
        "links": [],
        "cross_references": []
      },
      "category": {
        "original_name": "Category",
        "value": "Alcohols and Polyols, Other",
        "links": [],
        "cross_references": []
      },
      "description": {
        "original_name": "Description",
        "value": "Melting point = 25 deg C; [ChemIDplus] Melting point = 12 deg C; [ChemSampCo MSDS]",
        "links": [],
        "cross_references": []
      },
      "comments": {
        "original_name": "Comments",
        "value": "An irritant; [ChemSampCo MSDS] See \"Dodecanol.\"",
        "links": [],
        "cross_references": [
          {
            "type": "name_match",
            "text": "dodecanol",
            "confidence": 1.0,
            "uuid": "b19cf65b-9315-49e2-86ca-26e6a262da05",
            "name": "Dodecanol",
            "url": "https://haz-map.com/Agents/5047",
            "category": "agents"
          }
        ]
      },
      "biomedical_references": {
        "original_name": "Biomedical References",
        "value": "Search PubMed",
        "links": [
          {
            "text": "Search PubMed",
            "url": "https://www.ncbi.nlm.nih.gov/pubmed?term=3-Dodecanol%20AND%20human%5Bmh%5D%20AND%20%28Occupational%20Diseases%20%5Bmh%5D%20OR%20Occupational%20Exposure%20%5Bmh%5D%29%20%20AND%20%28tox%5Bsb%5D%29&cmd=search"
          }
        ],
        "cross_references": []
      }
    },
    "diseases_processes_and_activities_linked_to_this_agent": {
      "other_information": {
        "original_name": "Other Information",
        "value": "No other related information on this agent was found.",
        "links": [],
        "cross_references": []
      }
    }
  },
  "cross_references": [
    {
      "type": "name_match",
      "text": "dodecanol",
      "confidence": 1.0,
      "uuid": "b19cf65b-9315-49e2-86ca-26e6a262da05",
      "name": "Dodecanol",
      "url": "https://haz-map.com/Agents/5047",
      "category": "agents"
    },
    {
      "type": "name_match",
      "text": "3-dodecanol",
      "confidence": 1.0,
      "uuid": "f052e16b-1547-470a-af81-731cf7b43dfc",
      "name": "3-Dodecanol",
      "url": "https://haz-map.com/Agents/11541",
      "category": "agents"
    }
  ],
  "all_links": [
    {
      "text": "Search PubMed",
      "url": "https://www.ncbi.nlm.nih.gov/pubmed?term=3-Dodecanol%20AND%20human%5Bmh%5D%20AND%20%28Occupational%20Diseases%20%5Bmh%5D%20OR%20Occupational%20Exposure%20%5Bmh%5D%29%20%20AND%20%28tox%5Bsb%5D%29&cmd=search"
    }
  ]
}