{
  "metadata": {
    "scraped_from": "https://haz-map.com/Agents/19446",
    "entity_name": "2,3-Dibromobutane",
    "category": "agents",
    "uuid": "f08c2e8e-2244-48f4-834f-c53e53f6d6ed",
    "scraped_at": "2025-07-23T22:06:16.179770"
  },
  "parsed_at": "2025-07-24T01:16:55.769770",
  "title": "2,3-Dibromobutane",
  "sections": {
    "general": {
      "agent_name": {
        "original_name": "Agent Name",
        "value": "2,3-Dibromobutane",
        "links": [],
        "cross_references": [
          {
            "type": "name_match",
            "text": "2,3-dibromobutane",
            "confidence": 1.0,
            "uuid": "f08c2e8e-2244-48f4-834f-c53e53f6d6ed",
            "name": "2,3-Dibromobutane",
            "url": "https://haz-map.com/Agents/19446",
            "category": "agents"
          },
          {
            "type": "fuzzy_match",
            "text": "3-dibromobutane",
            "matched_name": "1,3-Dibromobutane",
            "confidence": 0.8745098039215686,
            "uuid": "1a628454-b336-4acd-9a5f-83658eded7a6",
            "category": "agents",
            "url": "https://haz-map.com/Agents/19246"
          }
        ]
      },
      "cas_number": {
        "original_name": "CAS Number",
        "value": "5408-86-6",
        "links": [],
        "cross_references": []
      },
      "formula": {
        "original_name": "Formula",
        "value": "C4-H8-Br2",
        "links": [],
        "cross_references": []
      },
      "major_category": {
        "original_name": "Major Category",
        "value": "Other Classes",
        "links": [],
        "cross_references": []
      },
      "synonyms": {
        "original_name": "Synonyms",
        "value": "Butane, 2,3-dibromo-; [ChemIDplus]",
        "links": [],
        "cross_references": []
      },
      "category": {
        "original_name": "Category",
        "value": "Halogenated Aliphatics, Saturated",
        "links": [],
        "cross_references": []
      },
      "description": {
        "original_name": "Description",
        "value": "Colorless liquid; [Alfa Aesar MSDS]",
        "links": [],
        "cross_references": []
      },
      "comments": {
        "original_name": "Comments",
        "value": "A skin and strong eye irritant; [Alfa Aesar MSDS] See \"2-Bromobutane\" and \"1-Bromobutane.\"",
        "links": [],
        "cross_references": [
          {
            "type": "name_match",
            "text": "1-bromobutane",
            "confidence": 1.0,
            "uuid": "18971a2c-d686-47cf-808e-f15931715bdc",
            "name": "1-Bromobutane",
            "url": "https://haz-map.com/Agents/2852",
            "category": "agents"
          },
          {
            "type": "name_match",
            "text": "2-bromobutane",
            "confidence": 1.0,
            "uuid": "5ed7bd5e-675c-4985-a03b-571bc69ee9b7",
            "name": "2-Bromobutane",
            "url": "https://haz-map.com/Agents/3077",
            "category": "agents"
          }
        ]
      },
      "biomedical_references": {
        "original_name": "Biomedical References",
        "value": "Search PubMed",
        "links": [
          {
            "text": "Search PubMed",
            "url": "https://www.ncbi.nlm.nih.gov/pubmed?term=2%2c3-Dibromobutane%20AND%20human%5Bmh%5D%20AND%20%28Occupational%20Diseases%20%5Bmh%5D%20OR%20Occupational%20Exposure%20%5Bmh%5D%29%20%20AND%20%28tox%5Bsb%5D%29&cmd=search"
          }
        ],
        "cross_references": []
      }
    },
    "exposure_assessment": {
      "vapor_pressure": {
        "original_name": "Vapor Pressure",
        "value": "3.8 mm Hg",
        "links": [],
        "cross_references": []
      }
    },
    "diseases_processes_and_activities_linked_to_this_agent": {
      "other_information": {
        "original_name": "Other Information",
        "value": "No other related information on this agent was found.",
        "links": [],
        "cross_references": []
      }
    }
  },
  "cross_references": [
    {
      "type": "name_match",
      "text": "1-bromobutane",
      "confidence": 1.0,
      "uuid": "18971a2c-d686-47cf-808e-f15931715bdc",
      "name": "1-Bromobutane",
      "url": "https://haz-map.com/Agents/2852",
      "category": "agents"
    },
    {
      "type": "name_match",
      "text": "2-bromobutane",
      "confidence": 1.0,
      "uuid": "5ed7bd5e-675c-4985-a03b-571bc69ee9b7",
      "name": "2-Bromobutane",
      "url": "https://haz-map.com/Agents/3077",
      "category": "agents"
    },
    {
      "type": "name_match",
      "text": "2,3-dibromobutane",
      "confidence": 1.0,
      "uuid": "f08c2e8e-2244-48f4-834f-c53e53f6d6ed",
      "name": "2,3-Dibromobutane",
      "url": "https://haz-map.com/Agents/19446",
      "category": "agents"
    },
    {
      "type": "fuzzy_match",
      "text": "3-dibromobutane",
      "matched_name": "1,3-Dibromobutane",
      "confidence": 0.8745098039215686,
      "uuid": "1a628454-b336-4acd-9a5f-83658eded7a6",
      "category": "agents",
      "url": "https://haz-map.com/Agents/19246"
    }
  ],
  "all_links": [
    {
      "text": "Search PubMed",
      "url": "https://www.ncbi.nlm.nih.gov/pubmed?term=2%2c3-Dibromobutane%20AND%20human%5Bmh%5D%20AND%20%28Occupational%20Diseases%20%5Bmh%5D%20OR%20Occupational%20Exposure%20%5Bmh%5D%29%20%20AND%20%28tox%5Bsb%5D%29&cmd=search"
    }
  ]
}