{
  "metadata": {
    "scraped_from": "https://haz-map.com/Agents/12230",
    "entity_name": "Benzothiophene",
    "category": "agents",
    "uuid": "f0b45426-a838-47ca-9040-b034903ae4bf",
    "scraped_at": "2025-07-23T21:06:37.755293"
  },
  "parsed_at": "2025-07-24T00:55:45.019646",
  "title": "Benzothiophene",
  "sections": {
    "general": {
      "agent_name": {
        "original_name": "Agent Name",
        "value": "Benzothiophene",
        "links": [],
        "cross_references": [
          {
            "type": "name_match",
            "text": "thiophene",
            "confidence": 1.0,
            "uuid": "f7ccd5a0-b31f-419d-b64f-3472ae89f92f",
            "name": "Thiophene",
            "url": "https://haz-map.com/Agents/1479",
            "category": "agents"
          },
          {
            "type": "name_match",
            "text": "benzothiophene",
            "confidence": 1.0,
            "uuid": "f0b45426-a838-47ca-9040-b034903ae4bf",
            "name": "Benzothiophene",
            "url": "https://haz-map.com/Agents/12230",
            "category": "agents"
          }
        ]
      },
      "alternative_name": {
        "original_name": "Alternative Name",
        "value": "Thianaphthene",
        "links": [],
        "cross_references": [
          {
            "type": "name_match",
            "text": "ht",
            "confidence": 1.0,
            "uuid": "764df367-8d53-4a11-81a2-31ccfe122a8d",
            "name": "HT",
            "url": "https://haz-map.com/Agents/2168",
            "category": "agents"
          }
        ]
      },
      "cas_number": {
        "original_name": "CAS Number",
        "value": "95-15-8",
        "links": [],
        "cross_references": []
      },
      "formula": {
        "original_name": "Formula",
        "value": "C8-H6-S",
        "links": [],
        "cross_references": []
      },
      "major_category": {
        "original_name": "Major Category",
        "value": "Other Classes",
        "links": [],
        "cross_references": []
      },
      "synonyms": {
        "original_name": "Synonyms",
        "value": "Benzo(b)thiophene; 1-Benzothiophene; 1-Thiaindene; 2,3-Benzothiophene; Benzothiofuran; Benzothiophen; Thianaphtene; Thianaphthen; Thianaphthene; Thionaphthene; [ChemIDplus]",
        "links": [],
        "cross_references": [
          {
            "type": "name_match",
            "text": "indene",
            "confidence": 1.0,
            "uuid": "abe76b78-2986-4d49-b6e5-d1ce49774b99",
            "name": "Indene",
            "url": "https://haz-map.com/Agents/520",
            "category": "agents"
          },
          {
            "type": "name_match",
            "text": "furan",
            "confidence": 1.0,
            "uuid": "96da3d2e-f46b-4100-9000-704d1a86985b",
            "name": "Furan",
            "url": "https://haz-map.com/Agents/1477",
            "category": "agents"
          },
          {
            "type": "name_match",
            "text": "thiophene",
            "confidence": 1.0,
            "uuid": "f7ccd5a0-b31f-419d-b64f-3472ae89f92f",
            "name": "Thiophene",
            "url": "https://haz-map.com/Agents/1479",
            "category": "agents"
          },
          {
            "type": "name_match",
            "text": "ht",
            "confidence": 1.0,
            "uuid": "764df367-8d53-4a11-81a2-31ccfe122a8d",
            "name": "HT",
            "url": "https://haz-map.com/Agents/2168",
            "category": "agents"
          },
          {
            "type": "name_match",
            "text": "benzothiophene",
            "confidence": 1.0,
            "uuid": "f0b45426-a838-47ca-9040-b034903ae4bf",
            "name": "Benzothiophene",
            "url": "https://haz-map.com/Agents/12230",
            "category": "agents"
          }
        ]
      },
      "category": {
        "original_name": "Category",
        "value": "Thiophenes",
        "links": [],
        "cross_references": [
          {
            "type": "name_match",
            "text": "thiophene",
            "confidence": 1.0,
            "uuid": "f7ccd5a0-b31f-419d-b64f-3472ae89f92f",
            "name": "Thiophene",
            "url": "https://haz-map.com/Agents/1479",
            "category": "agents"
          }
        ]
      },
      "description": {
        "original_name": "Description",
        "value": "Solid with an odor like naphthalene; mp = 32 deg C; [Merck Index] White crystals with an unpleasant odor; mp =28-32 deg C; [Alfa Aesar MSDS]",
        "links": [],
        "cross_references": [
          {
            "type": "name_match",
            "text": "naphthalene",
            "confidence": 1.0,
            "uuid": "433cf489-5423-4297-a38e-6e755a9d458e",
            "name": "Naphthalene",
            "url": "https://haz-map.com/Agents/46",
            "category": "agents"
          },
          {
            "type": "name_match",
            "text": "ht",
            "confidence": 1.0,
            "uuid": "764df367-8d53-4a11-81a2-31ccfe122a8d",
            "name": "HT",
            "url": "https://haz-map.com/Agents/2168",
            "category": "agents"
          }
        ]
      },
      "sourcesuses": {
        "original_name": "Sources/Uses",
        "value": "Found in lignite tar; Used to make pharmaceuticals and thioindigo; [Merck Index]",
        "links": [],
        "cross_references": [
          {
            "type": "name_match",
            "text": "pharmaceuticals",
            "confidence": 1.0,
            "uuid": "713c3c30-b67e-4a2f-a90f-b32f8a306332",
            "name": "PHARMACEUTICALS",
            "url": "https://haz-map.com/Agents/1000",
            "category": "agents"
          },
          {
            "type": "name_match",
            "text": "indigo",
            "confidence": 1.0,
            "uuid": "45ae5728-1381-4f9b-8e56-b29f7e3cf00c",
            "name": "Indigo",
            "url": "https://haz-map.com/Agents/2439",
            "category": "agents"
          }
        ]
      },
      "comments": {
        "original_name": "Comments",
        "value": "A mild skin irritant; Harmful by ingestion; [Alfa Aesar MSDS] See \"Thiophene\" and \"Dibenzothiophene.\"",
        "links": [],
        "cross_references": [
          {
            "type": "name_match",
            "text": "thiophene",
            "confidence": 1.0,
            "uuid": "f7ccd5a0-b31f-419d-b64f-3472ae89f92f",
            "name": "Thiophene",
            "url": "https://haz-map.com/Agents/1479",
            "category": "agents"
          },
          {
            "type": "name_match",
            "text": "dibenzothiophene",
            "confidence": 1.0,
            "uuid": "0b465a27-bce6-4f2b-8710-cdb02834f327",
            "name": "Dibenzothiophene",
            "url": "https://haz-map.com/Agents/4737",
            "category": "agents"
          },
          {
            "type": "name_match",
            "text": "benzothiophene",
            "confidence": 1.0,
            "uuid": "f0b45426-a838-47ca-9040-b034903ae4bf",
            "name": "Benzothiophene",
            "url": "https://haz-map.com/Agents/12230",
            "category": "agents"
          }
        ]
      },
      "biomedical_references": {
        "original_name": "Biomedical References",
        "value": "Search PubMed",
        "links": [
          {
            "text": "Search PubMed",
            "url": "https://www.ncbi.nlm.nih.gov/pubmed?term=Benzothiophene%20AND%20human%5Bmh%5D%20AND%20%28Occupational%20Diseases%20%5Bmh%5D%20OR%20Occupational%20Exposure%20%5Bmh%5D%29%20%20AND%20%28tox%5Bsb%5D%29&cmd=search"
          }
        ],
        "cross_references": []
      }
    },
    "exposure_assessment": {
      "vapor_pressure": {
        "original_name": "Vapor Pressure",
        "value": "0.99 mm Hg",
        "links": [],
        "cross_references": []
      }
    },
    "diseases_processes_and_activities_linked_to_this_agent": {
      "other_information": {
        "original_name": "Other Information",
        "value": "No other related information on this agent was found.",
        "links": [],
        "cross_references": []
      }
    }
  },
  "cross_references": [
    {
      "type": "name_match",
      "text": "naphthalene",
      "confidence": 1.0,
      "uuid": "433cf489-5423-4297-a38e-6e755a9d458e",
      "name": "Naphthalene",
      "url": "https://haz-map.com/Agents/46",
      "category": "agents"
    },
    {
      "type": "name_match",
      "text": "indene",
      "confidence": 1.0,
      "uuid": "abe76b78-2986-4d49-b6e5-d1ce49774b99",
      "name": "Indene",
      "url": "https://haz-map.com/Agents/520",
      "category": "agents"
    },
    {
      "type": "name_match",
      "text": "pharmaceuticals",
      "confidence": 1.0,
      "uuid": "713c3c30-b67e-4a2f-a90f-b32f8a306332",
      "name": "PHARMACEUTICALS",
      "url": "https://haz-map.com/Agents/1000",
      "category": "agents"
    },
    {
      "type": "name_match",
      "text": "furan",
      "confidence": 1.0,
      "uuid": "96da3d2e-f46b-4100-9000-704d1a86985b",
      "name": "Furan",
      "url": "https://haz-map.com/Agents/1477",
      "category": "agents"
    },
    {
      "type": "name_match",
      "text": "thiophene",
      "confidence": 1.0,
      "uuid": "f7ccd5a0-b31f-419d-b64f-3472ae89f92f",
      "name": "Thiophene",
      "url": "https://haz-map.com/Agents/1479",
      "category": "agents"
    },
    {
      "type": "name_match",
      "text": "ht",
      "confidence": 1.0,
      "uuid": "764df367-8d53-4a11-81a2-31ccfe122a8d",
      "name": "HT",
      "url": "https://haz-map.com/Agents/2168",
      "category": "agents"
    },
    {
      "type": "name_match",
      "text": "indigo",
      "confidence": 1.0,
      "uuid": "45ae5728-1381-4f9b-8e56-b29f7e3cf00c",
      "name": "Indigo",
      "url": "https://haz-map.com/Agents/2439",
      "category": "agents"
    },
    {
      "type": "name_match",
      "text": "dibenzothiophene",
      "confidence": 1.0,
      "uuid": "0b465a27-bce6-4f2b-8710-cdb02834f327",
      "name": "Dibenzothiophene",
      "url": "https://haz-map.com/Agents/4737",
      "category": "agents"
    },
    {
      "type": "name_match",
      "text": "benzothiophene",
      "confidence": 1.0,
      "uuid": "f0b45426-a838-47ca-9040-b034903ae4bf",
      "name": "Benzothiophene",
      "url": "https://haz-map.com/Agents/12230",
      "category": "agents"
    }
  ],
  "all_links": [
    {
      "text": "Search PubMed",
      "url": "https://www.ncbi.nlm.nih.gov/pubmed?term=Benzothiophene%20AND%20human%5Bmh%5D%20AND%20%28Occupational%20Diseases%20%5Bmh%5D%20OR%20Occupational%20Exposure%20%5Bmh%5D%29%20%20AND%20%28tox%5Bsb%5D%29&cmd=search"
    }
  ]
}