{
  "metadata": {
    "scraped_from": "https://haz-map.com/Agents/20373",
    "entity_name": "Cyclohexyl bromide",
    "category": "agents",
    "uuid": "f11f6f1d-3979-483d-b9e6-362012d1b16d",
    "scraped_at": "2025-07-23T22:24:06.772436"
  },
  "parsed_at": "2025-07-24T00:59:54.003013",
  "title": "Cyclohexyl bromide",
  "sections": {
    "general": {
      "agent_name": {
        "original_name": "Agent Name",
        "value": "Cyclohexyl bromide",
        "links": [],
        "cross_references": [
          {
            "type": "name_match",
            "text": "cyclohexyl bromide",
            "confidence": 1.0,
            "uuid": "f11f6f1d-3979-483d-b9e6-362012d1b16d",
            "name": "Cyclohexyl bromide",
            "url": "https://haz-map.com/Agents/20373",
            "category": "agents"
          }
        ]
      },
      "cas_number": {
        "original_name": "CAS Number",
        "value": "108-85-0",
        "links": [],
        "cross_references": []
      },
      "formula": {
        "original_name": "Formula",
        "value": "C6-H11-Br",
        "links": [],
        "cross_references": []
      },
      "major_category": {
        "original_name": "Major Category",
        "value": "Other Classes",
        "links": [],
        "cross_references": []
      },
      "synonyms": {
        "original_name": "Synonyms",
        "value": "1-Bromocyclohexane; Bromocyclohexane; Cyclohexane, bromo-; [ChemIDplus]",
        "links": [],
        "cross_references": [
          {
            "type": "name_match",
            "text": "cyclohexane",
            "confidence": 1.0,
            "uuid": "366fabd7-ac2f-461c-969f-62dfe3bf2377",
            "name": "Cyclohexane",
            "url": "https://haz-map.com/Agents/384",
            "category": "agents"
          }
        ]
      },
      "category": {
        "original_name": "Category",
        "value": "Halogenated Cyclic Hydrocarbons",
        "links": [],
        "cross_references": [
          {
            "type": "name_match",
            "text": "carbon",
            "confidence": 1.0,
            "uuid": "b53f8815-ee80-40ef-b4aa-3b000e17dab5",
            "name": "Carbon",
            "url": "https://haz-map.com/Agents/1891",
            "category": "agents"
          },
          {
            "type": "fuzzy_match",
            "text": "hydrocarbons",
            "matched_name": "Hydrocarbons, C>3",
            "confidence": 0.7100840336134454,
            "uuid": "8eaa37ac-3931-44e4-9242-2734127fd661",
            "category": "agents",
            "url": "https://haz-map.com/Agents/14795"
          }
        ]
      },
      "description": {
        "original_name": "Description",
        "value": "Liquid with a penetrating odor; [Merck Index] Colorless liquid with an unpleasant odor; [Acros Organics MSDS]",
        "links": [],
        "cross_references": []
      },
      "sourcesuses": {
        "original_name": "Sources/Uses",
        "value": "Used as an intermediate; [REPROTOX]",
        "links": [],
        "cross_references": []
      },
      "comments": {
        "original_name": "Comments",
        "value": "May cause irritation; [Acros Organics MSDS] See \"Chlorocyclohexane.\" See \"1-Bromohexane.\"",
        "links": [],
        "cross_references": [
          {
            "type": "name_match",
            "text": "cyclohexane",
            "confidence": 1.0,
            "uuid": "366fabd7-ac2f-461c-969f-62dfe3bf2377",
            "name": "Cyclohexane",
            "url": "https://haz-map.com/Agents/384",
            "category": "agents"
          },
          {
            "type": "name_match",
            "text": "chlorocyclohexane",
            "confidence": 1.0,
            "uuid": "2346a10d-3c1b-42b3-a996-3fd429943ee2",
            "name": "Chlorocyclohexane",
            "url": "https://haz-map.com/Agents/4332",
            "category": "agents"
          },
          {
            "type": "name_match",
            "text": "1-bromohexane",
            "confidence": 1.0,
            "uuid": "5c4c4fe9-744d-4bd6-95d7-03e2b30e8c13",
            "name": "1-Bromohexane",
            "url": "https://haz-map.com/Agents/9619",
            "category": "agents"
          }
        ]
      },
      "biomedical_references": {
        "original_name": "Biomedical References",
        "value": "Search PubMed",
        "links": [
          {
            "text": "Search PubMed",
            "url": "https://www.ncbi.nlm.nih.gov/pubmed?term=Cyclohexyl+bromide%20AND%20human%5Bmh%5D%20AND%20%28Occupational%20Diseases%20%5Bmh%5D%20OR%20Occupational%20Exposure%20%5Bmh%5D%29%20%20AND%20%28tox%5Bsb%5D%29&cmd=search"
          }
        ],
        "cross_references": []
      }
    },
    "exposure_assessment": {
      "vapor_pressure": {
        "original_name": "Vapor Pressure",
        "value": "3.62 mm Hg",
        "links": [],
        "cross_references": []
      }
    },
    "diseases_processes_and_activities_linked_to_this_agent": {
      "other_information": {
        "original_name": "Other Information",
        "value": "No other related information on this agent was found.",
        "links": [],
        "cross_references": []
      }
    }
  },
  "cross_references": [
    {
      "type": "name_match",
      "text": "cyclohexane",
      "confidence": 1.0,
      "uuid": "366fabd7-ac2f-461c-969f-62dfe3bf2377",
      "name": "Cyclohexane",
      "url": "https://haz-map.com/Agents/384",
      "category": "agents"
    },
    {
      "type": "name_match",
      "text": "carbon",
      "confidence": 1.0,
      "uuid": "b53f8815-ee80-40ef-b4aa-3b000e17dab5",
      "name": "Carbon",
      "url": "https://haz-map.com/Agents/1891",
      "category": "agents"
    },
    {
      "type": "name_match",
      "text": "chlorocyclohexane",
      "confidence": 1.0,
      "uuid": "2346a10d-3c1b-42b3-a996-3fd429943ee2",
      "name": "Chlorocyclohexane",
      "url": "https://haz-map.com/Agents/4332",
      "category": "agents"
    },
    {
      "type": "name_match",
      "text": "1-bromohexane",
      "confidence": 1.0,
      "uuid": "5c4c4fe9-744d-4bd6-95d7-03e2b30e8c13",
      "name": "1-Bromohexane",
      "url": "https://haz-map.com/Agents/9619",
      "category": "agents"
    },
    {
      "type": "name_match",
      "text": "cyclohexyl bromide",
      "confidence": 1.0,
      "uuid": "f11f6f1d-3979-483d-b9e6-362012d1b16d",
      "name": "Cyclohexyl bromide",
      "url": "https://haz-map.com/Agents/20373",
      "category": "agents"
    },
    {
      "type": "fuzzy_match",
      "text": "hydrocarbons",
      "matched_name": "Hydrocarbons, C>3",
      "confidence": 0.7100840336134454,
      "uuid": "8eaa37ac-3931-44e4-9242-2734127fd661",
      "category": "agents",
      "url": "https://haz-map.com/Agents/14795"
    }
  ],
  "all_links": [
    {
      "text": "Search PubMed",
      "url": "https://www.ncbi.nlm.nih.gov/pubmed?term=Cyclohexyl+bromide%20AND%20human%5Bmh%5D%20AND%20%28Occupational%20Diseases%20%5Bmh%5D%20OR%20Occupational%20Exposure%20%5Bmh%5D%29%20%20AND%20%28tox%5Bsb%5D%29&cmd=search"
    }
  ]
}