{
  "metadata": {
    "scraped_from": "https://haz-map.com/Agents/13971",
    "entity_name": "D-Mannose",
    "category": "agents",
    "uuid": "f14b2687-f603-41c8-aef5-9bbd8d037f58",
    "scraped_at": "2025-07-23T21:19:52.944340"
  },
  "parsed_at": "2025-07-24T01:03:20.726336",
  "title": "D-Mannose",
  "sections": {
    "general": {
      "agent_name": {
        "original_name": "Agent Name",
        "value": "D-Mannose",
        "links": [],
        "cross_references": [
          {
            "type": "name_match",
            "text": "d-mannose",
            "confidence": 1.0,
            "uuid": "f14b2687-f603-41c8-aef5-9bbd8d037f58",
            "name": "D-Mannose",
            "url": "https://haz-map.com/Agents/13971",
            "category": "agents"
          }
        ]
      },
      "cas_number": {
        "original_name": "CAS Number",
        "value": "3458-28-4",
        "links": [],
        "cross_references": []
      },
      "formula": {
        "original_name": "Formula",
        "value": "C6-H12-O6",
        "links": [],
        "cross_references": []
      },
      "major_category": {
        "original_name": "Major Category",
        "value": "Biological Agents",
        "links": [],
        "cross_references": []
      },
      "synonyms": {
        "original_name": "Synonyms",
        "value": "Mannose; (+)-Mannose; Carubinose; D(+)-Mannose; D-Mannose; Mannose (VAN); Mannose, D-; Seminose; [ChemIDplus]",
        "links": [],
        "cross_references": [
          {
            "type": "name_match",
            "text": "d-mannose",
            "confidence": 1.0,
            "uuid": "f14b2687-f603-41c8-aef5-9bbd8d037f58",
            "name": "D-Mannose",
            "url": "https://haz-map.com/Agents/13971",
            "category": "agents"
          }
        ]
      },
      "category": {
        "original_name": "Category",
        "value": "Monosaccharides and Derivatives",
        "links": [],
        "cross_references": []
      },
      "description": {
        "original_name": "Description",
        "value": "White hygroscopic powder; [Alfa Aesar MSDS]",
        "links": [],
        "cross_references": []
      },
      "sourcesuses": {
        "original_name": "Sources/Uses",
        "value": "Isomer of glucose; [ChemIDplus]",
        "links": [],
        "cross_references": [
          {
            "type": "name_match",
            "text": "glucose",
            "confidence": 1.0,
            "uuid": "329d86ed-6744-4566-825c-5247ed1a8f75",
            "name": "Glucose",
            "url": "https://haz-map.com/Agents/14413",
            "category": "agents"
          }
        ]
      },
      "comments": {
        "original_name": "Comments",
        "value": "May cause irritation; [Alfa Aesar MSDS]",
        "links": [],
        "cross_references": []
      },
      "biomedical_references": {
        "original_name": "Biomedical References",
        "value": "Search PubMed",
        "links": [
          {
            "text": "Search PubMed",
            "url": "https://www.ncbi.nlm.nih.gov/pubmed?term=D-Mannose%20AND%20human%5Bmh%5D%20AND%20%28Occupational%20Diseases%20%5Bmh%5D%20OR%20Occupational%20Exposure%20%5Bmh%5D%29%20%20AND%20%28tox%5Bsb%5D%29&cmd=search"
          }
        ],
        "cross_references": []
      }
    },
    "exposure_assessment": {
      "vapor_pressure": {
        "original_name": "Vapor Pressure",
        "value": "1.82E-08 mm Hg",
        "links": [],
        "cross_references": []
      }
    },
    "diseases_processes_and_activities_linked_to_this_agent": {
      "other_information": {
        "original_name": "Other Information",
        "value": "No other related information on this agent was found.",
        "links": [],
        "cross_references": []
      }
    }
  },
  "cross_references": [
    {
      "type": "name_match",
      "text": "d-mannose",
      "confidence": 1.0,
      "uuid": "f14b2687-f603-41c8-aef5-9bbd8d037f58",
      "name": "D-Mannose",
      "url": "https://haz-map.com/Agents/13971",
      "category": "agents"
    },
    {
      "type": "name_match",
      "text": "glucose",
      "confidence": 1.0,
      "uuid": "329d86ed-6744-4566-825c-5247ed1a8f75",
      "name": "Glucose",
      "url": "https://haz-map.com/Agents/14413",
      "category": "agents"
    }
  ],
  "all_links": [
    {
      "text": "Search PubMed",
      "url": "https://www.ncbi.nlm.nih.gov/pubmed?term=D-Mannose%20AND%20human%5Bmh%5D%20AND%20%28Occupational%20Diseases%20%5Bmh%5D%20OR%20Occupational%20Exposure%20%5Bmh%5D%29%20%20AND%20%28tox%5Bsb%5D%29&cmd=search"
    }
  ]
}