{
  "metadata": {
    "scraped_from": "https://haz-map.com/Agents/6702",
    "entity_name": "Phthalic acid",
    "category": "agents",
    "uuid": "f19ac6b5-df06-48aa-81e6-825cdcfe8f9c",
    "scraped_at": "2025-07-23T20:04:38.569062"
  },
  "parsed_at": "2025-07-24T01:10:18.563901",
  "title": "Phthalic acid",
  "sections": {
    "general": {
      "agent_name": {
        "original_name": "Agent Name",
        "value": "Phthalic acid",
        "links": [],
        "cross_references": [
          {
            "type": "name_match",
            "text": "ht",
            "confidence": 1.0,
            "uuid": "764df367-8d53-4a11-81a2-31ccfe122a8d",
            "name": "HT",
            "url": "https://haz-map.com/Agents/2168",
            "category": "agents"
          },
          {
            "type": "name_match",
            "text": "phthalic acid",
            "confidence": 1.0,
            "uuid": "f19ac6b5-df06-48aa-81e6-825cdcfe8f9c",
            "name": "Phthalic acid",
            "url": "https://haz-map.com/Agents/6702",
            "category": "agents"
          }
        ]
      },
      "cas_number": {
        "original_name": "CAS Number",
        "value": "88-99-3",
        "links": [],
        "cross_references": []
      },
      "formula": {
        "original_name": "Formula",
        "value": "C8-H6-O4",
        "links": [],
        "cross_references": []
      },
      "major_category": {
        "original_name": "Major Category",
        "value": "Other Classes",
        "links": [],
        "cross_references": []
      },
      "synonyms": {
        "original_name": "Synonyms",
        "value": "Acide phtalique [French]; Benzene-1,2-dicarboxylic acid; Kyselina ftalova [Czech]; o-Benzenedicarboxylic acid; o-Dicarboxybenzene; o-Phthalic acid; 1,2-Benzenedicarboxylic acid; [ChemIDplus]",
        "links": [],
        "cross_references": [
          {
            "type": "name_match",
            "text": "benzene",
            "confidence": 1.0,
            "uuid": "b05124de-5f34-4c14-8f04-ccb20c3780d9",
            "name": "Benzene",
            "url": "https://haz-map.com/Agents/5",
            "category": "agents"
          },
          {
            "type": "name_match",
            "text": "tali",
            "confidence": 1.0,
            "uuid": "8c3a0f99-2143-4122-b539-ec5cc49596b0",
            "name": "Tali",
            "url": "https://haz-map.com/Agents/1128",
            "category": "agents"
          },
          {
            "type": "name_match",
            "text": "ht",
            "confidence": 1.0,
            "uuid": "764df367-8d53-4a11-81a2-31ccfe122a8d",
            "name": "HT",
            "url": "https://haz-map.com/Agents/2168",
            "category": "agents"
          },
          {
            "type": "name_match",
            "text": "phthalic acid",
            "confidence": 1.0,
            "uuid": "f19ac6b5-df06-48aa-81e6-825cdcfe8f9c",
            "name": "Phthalic acid",
            "url": "https://haz-map.com/Agents/6702",
            "category": "agents"
          }
        ]
      },
      "category": {
        "original_name": "Category",
        "value": "Organic Acids",
        "links": [],
        "cross_references": []
      },
      "description": {
        "original_name": "Description",
        "value": "Colorless solid; [Hawley] Colorless or white solid; [CHEMINFO] White crystalline solid; [MSDSonline]",
        "links": [],
        "cross_references": [
          {
            "type": "fuzzy_match",
            "text": "crystalline",
            "matched_name": "Silica, crystalline",
            "confidence": 0.7061403508771931,
            "uuid": "f920e8a2-46df-41b7-af8d-0368a777251e",
            "category": "agents",
            "url": "https://haz-map.com/Agents/427"
          }
        ]
      },
      "sourcesuses": {
        "original_name": "Sources/Uses",
        "value": "Used as an analytical and laboratory reagent and to make medicines, dyes, phenolphthalein, phthalimide, anthranilic acid, and synthetic perfumes; [HSDB]",
        "links": [],
        "cross_references": [
          {
            "type": "name_match",
            "text": "phenol",
            "confidence": 1.0,
            "uuid": "03141a03-a7df-4f51-9a37-adde1a7c4b31",
            "name": "Phenol",
            "url": "https://haz-map.com/Agents/84",
            "category": "agents"
          },
          {
            "type": "name_match",
            "text": "phenolphthalein",
            "confidence": 1.0,
            "uuid": "f8f5b8e1-c8e5-45fc-8707-4baba424e498",
            "name": "Phenolphthalein",
            "url": "https://haz-map.com/Agents/1978",
            "category": "agents"
          },
          {
            "type": "name_match",
            "text": "ht",
            "confidence": 1.0,
            "uuid": "764df367-8d53-4a11-81a2-31ccfe122a8d",
            "name": "HT",
            "url": "https://haz-map.com/Agents/2168",
            "category": "agents"
          },
          {
            "type": "name_match",
            "text": "anthranilic acid",
            "confidence": 1.0,
            "uuid": "8912c66e-c272-4ed8-9b29-b25a22d08647",
            "name": "Anthranilic acid",
            "url": "https://haz-map.com/Agents/3712",
            "category": "agents"
          },
          {
            "type": "name_match",
            "text": "phthalimide",
            "confidence": 1.0,
            "uuid": "c6cef4f8-7d25-450e-95a8-afe176cedc4e",
            "name": "Phthalimide",
            "url": "https://haz-map.com/Agents/6704",
            "category": "agents"
          }
        ]
      },
      "comments": {
        "original_name": "Comments",
        "value": "A skin, eye, and respiratory tract irritant; [ICSC] Irritating to skin and mucous membranes; No data available on possible toxic effects after ingestion; [HSDB] A skin, eye, mucous membrane, and respiratory tract irritant; Inhalation of high concentrations can cause CNS depression; [CAMEO] Causes somnolence and ataxia in lethal-dose feeding studies of mice; [RTECS] No evidence of teratogenicity in animal studies; No human data; [REPROTOX] An irritant; [MSDSonline]",
        "links": [],
        "cross_references": []
      },
      "biomedical_references": {
        "original_name": "Biomedical References",
        "value": "Search PubMed",
        "links": [
          {
            "text": "Search PubMed",
            "url": "https://www.ncbi.nlm.nih.gov/pubmed?term=Phthalic+acid%20AND%20human%5Bmh%5D%20AND%20%28Occupational%20Diseases%20%5Bmh%5D%20OR%20Occupational%20Exposure%20%5Bmh%5D%29%20%20AND%20%28tox%5Bsb%5D%29&cmd=search"
          }
        ],
        "cross_references": []
      }
    },
    "exposure_assessment": {
      "vapor_pressure": {
        "original_name": "Vapor Pressure",
        "value": "6.36E-07 mm Hg",
        "links": [],
        "cross_references": []
      },
      "nfpa": {
        "original_name": "NFPA",
        "value": "must be preheated",
        "links": [],
        "cross_references": []
      }
    },
    "adverse_effects": {
      "neurotoxin": {
        "original_name": "Neurotoxin",
        "value": "Other CNS neurotoxin",
        "links": [],
        "cross_references": []
      }
    },
    "diseases_processes_and_activities_linked_to_this_agent": {
      "other_information": {
        "original_name": "Other Information",
        "value": "No other related information on this agent was found.",
        "links": [],
        "cross_references": []
      }
    }
  },
  "cross_references": [
    {
      "type": "name_match",
      "text": "benzene",
      "confidence": 1.0,
      "uuid": "b05124de-5f34-4c14-8f04-ccb20c3780d9",
      "name": "Benzene",
      "url": "https://haz-map.com/Agents/5",
      "category": "agents"
    },
    {
      "type": "name_match",
      "text": "phenol",
      "confidence": 1.0,
      "uuid": "03141a03-a7df-4f51-9a37-adde1a7c4b31",
      "name": "Phenol",
      "url": "https://haz-map.com/Agents/84",
      "category": "agents"
    },
    {
      "type": "name_match",
      "text": "tali",
      "confidence": 1.0,
      "uuid": "8c3a0f99-2143-4122-b539-ec5cc49596b0",
      "name": "Tali",
      "url": "https://haz-map.com/Agents/1128",
      "category": "agents"
    },
    {
      "type": "name_match",
      "text": "phenolphthalein",
      "confidence": 1.0,
      "uuid": "f8f5b8e1-c8e5-45fc-8707-4baba424e498",
      "name": "Phenolphthalein",
      "url": "https://haz-map.com/Agents/1978",
      "category": "agents"
    },
    {
      "type": "name_match",
      "text": "ht",
      "confidence": 1.0,
      "uuid": "764df367-8d53-4a11-81a2-31ccfe122a8d",
      "name": "HT",
      "url": "https://haz-map.com/Agents/2168",
      "category": "agents"
    },
    {
      "type": "name_match",
      "text": "anthranilic acid",
      "confidence": 1.0,
      "uuid": "8912c66e-c272-4ed8-9b29-b25a22d08647",
      "name": "Anthranilic acid",
      "url": "https://haz-map.com/Agents/3712",
      "category": "agents"
    },
    {
      "type": "name_match",
      "text": "phthalic acid",
      "confidence": 1.0,
      "uuid": "f19ac6b5-df06-48aa-81e6-825cdcfe8f9c",
      "name": "Phthalic acid",
      "url": "https://haz-map.com/Agents/6702",
      "category": "agents"
    },
    {
      "type": "name_match",
      "text": "phthalimide",
      "confidence": 1.0,
      "uuid": "c6cef4f8-7d25-450e-95a8-afe176cedc4e",
      "name": "Phthalimide",
      "url": "https://haz-map.com/Agents/6704",
      "category": "agents"
    },
    {
      "type": "fuzzy_match",
      "text": "crystalline",
      "matched_name": "Silica, crystalline",
      "confidence": 0.7061403508771931,
      "uuid": "f920e8a2-46df-41b7-af8d-0368a777251e",
      "category": "agents",
      "url": "https://haz-map.com/Agents/427"
    }
  ],
  "all_links": [
    {
      "text": "Search PubMed",
      "url": "https://www.ncbi.nlm.nih.gov/pubmed?term=Phthalic+acid%20AND%20human%5Bmh%5D%20AND%20%28Occupational%20Diseases%20%5Bmh%5D%20OR%20Occupational%20Exposure%20%5Bmh%5D%29%20%20AND%20%28tox%5Bsb%5D%29&cmd=search"
    }
  ]
}