{
  "metadata": {
    "scraped_from": "https://haz-map.com/Agents/5253",
    "entity_name": "2-Chloroethyl ethyl sulfide",
    "category": "agents",
    "uuid": "f1a13633-e387-4dbd-83d4-b55585e7c2a5",
    "scraped_at": "2025-07-23T19:50:36.032253"
  },
  "parsed_at": "2025-07-24T01:19:12.023051",
  "title": "2-Chloroethyl ethyl sulfide",
  "sections": {
    "general": {
      "agent_name": {
        "original_name": "Agent Name",
        "value": "2-Chloroethyl ethyl sulfide",
        "links": [],
        "cross_references": [
          {
            "type": "name_match",
            "text": "2-chloroethyl ethyl sulfide",
            "confidence": 1.0,
            "uuid": "f1a13633-e387-4dbd-83d4-b55585e7c2a5",
            "name": "2-Chloroethyl ethyl sulfide",
            "url": "https://haz-map.com/Agents/5253",
            "category": "agents"
          }
        ]
      },
      "cas_number": {
        "original_name": "CAS Number",
        "value": "693-07-2",
        "links": [],
        "cross_references": []
      },
      "formula": {
        "original_name": "Formula",
        "value": "C4-H9-Cl-S",
        "links": [],
        "cross_references": []
      },
      "major_category": {
        "original_name": "Major Category",
        "value": "Other Classes",
        "links": [],
        "cross_references": []
      },
      "synonyms": {
        "original_name": "Synonyms",
        "value": "1-Chloro-2-(ethylthio)ethane; 2-(Ethylthio)chloroethane; 2-Chloroethyl ethyl thioether; 2-Chloroethyl(ethyl)sulfide; 2-Ethylthioethyl chloride; Chlordiethylsulfid [Czech]; Chlorothiolalcohol (CTA); Ethane, 1-chloro-2-(ethylthio)-; Ethyl 2-chloroethyl sulfide; Ethyl beta-chloroethyl sulfide; Half-mustard gas; Sulfide, 2-chloroethyl ethyl; Sulfide, chloroethyl ethyl; Sulfide, diethyl 2-chloro; beta-Ethylmerkaptoethylchlorid [Czech]; h-MG; h-Mg; half-mustard gas; [ChemIDplus] UN1992",
        "links": [],
        "cross_references": [
          {
            "type": "name_match",
            "text": "ethyl chloride",
            "confidence": 1.0,
            "uuid": "5beffaec-7903-4a06-87c6-d5a754bd0575",
            "name": "Ethyl chloride",
            "url": "https://haz-map.com/Agents/59",
            "category": "agents"
          },
          {
            "type": "name_match",
            "text": "ethane",
            "confidence": 1.0,
            "uuid": "5162cc8c-dfb9-4060-81ac-38a8cec7f9dd",
            "name": "Ethane",
            "url": "https://haz-map.com/Agents/1075",
            "category": "agents"
          }
        ]
      },
      "category": {
        "original_name": "Category",
        "value": "Sulfur Compounds",
        "links": [],
        "cross_references": [
          {
            "type": "name_match",
            "text": "sulfur",
            "confidence": 1.0,
            "uuid": "5aabdef6-71c8-44c8-b762-feaabff50696",
            "name": "Sulfur",
            "url": "https://haz-map.com/Agents/1942",
            "category": "agents"
          }
        ]
      },
      "description": {
        "original_name": "Description",
        "value": "Colorless liquid with a mild sulfide odor; [HSDB] Clear slightly yellow liquid with a sulfide stench; [Acros Organics MSDS]",
        "links": [],
        "cross_references": [
          {
            "type": "name_match",
            "text": "ht",
            "confidence": 1.0,
            "uuid": "764df367-8d53-4a11-81a2-31ccfe122a8d",
            "name": "HT",
            "url": "https://haz-map.com/Agents/2168",
            "category": "agents"
          }
        ]
      },
      "sourcesuses": {
        "original_name": "Sources/Uses",
        "value": "Used as a simulant for mustard (in studies of decontamination, detection, contact hazards, and clothing protection); Also likely used as an intermediate for pesticides; [HSDB]",
        "links": [],
        "cross_references": []
      },
      "comments": {
        "original_name": "Comments",
        "value": "A vesicant with immediate (minutes) and long term (hours to days) effects on human skin; Emergency treatment: \"Mustard gas\"; [HSDB] A severe skin and eye irritant; Causes corrosive injuries and metabolic effects in acute dermal studies of mice; [RTECS] A vesicant; Can cause serious injury to the skin, eyes, and respiratory tract; Inhalation may cause chemical pneumonitis; [Sigma-Aldrich MSDS] Rapidly decomposed by hydrolysis; [Acros Organics MSDS] See \"Bis(2-chloroethyl)sulfide.\"",
        "links": [],
        "cross_references": [
          {
            "type": "name_match",
            "text": "mica",
            "confidence": 1.0,
            "uuid": "433f26f1-c399-4596-b179-ce3843cfd465",
            "name": "Mica",
            "url": "https://haz-map.com/Agents/621",
            "category": "agents"
          },
          {
            "type": "name_match",
            "text": "bis(2-chloroethyl)sulfide",
            "confidence": 1.0,
            "uuid": "08b88f38-f74d-48ca-b8b6-e190ab3cf19c",
            "name": "Bis(2-chloroethyl)sulfide",
            "url": "https://haz-map.com/Agents/1450",
            "category": "agents"
          }
        ]
      },
      "biomedical_references": {
        "original_name": "Biomedical References",
        "value": "Search PubMed",
        "links": [
          {
            "text": "Search PubMed",
            "url": "https://www.ncbi.nlm.nih.gov/pubmed?term=2-Chloroethyl+ethyl+sulfide%20AND%20human%5Bmh%5D%20AND%20%28Occupational%20Diseases%20%5Bmh%5D%20OR%20Occupational%20Exposure%20%5Bmh%5D%29%20%20AND%20%28tox%5Bsb%5D%29&cmd=search"
          }
        ],
        "cross_references": []
      }
    },
    "exposure_assessment": {
      "vapor_pressure": {
        "original_name": "Vapor Pressure",
        "value": "3.4 mm Hg",
        "links": [],
        "cross_references": []
      },
      "explanatory_notes": {
        "original_name": "Explanatory Notes",
        "value": "The Guide in the Emergency Response Guidebook is for \"Flammable liquid, toxic, n.o.s.\" VP from ChemIDplus;",
        "links": [],
        "cross_references": []
      }
    },
    "adverse_effects": {
      "toxic_pneumonitis": {
        "original_name": "Toxic Pneumonitis",
        "value": "Yes",
        "links": [],
        "cross_references": []
      },
      "dermatotoxin": {
        "original_name": "Dermatotoxin",
        "value": "Skin burns",
        "links": [],
        "cross_references": [
          {
            "type": "name_match",
            "text": "burn",
            "confidence": 1.0,
            "uuid": "63665de5-6376-4918-8dbf-4c10c4d63837",
            "name": "burn",
            "url": "https://haz-map.com/Findings/204",
            "category": "findings"
          }
        ]
      }
    },
    "diseases_processes_and_activities_linked_to_this_agent": {
      "other_information": {
        "original_name": "Other Information",
        "value": "No other related information on this agent was found.",
        "links": [],
        "cross_references": []
      }
    }
  },
  "cross_references": [
    {
      "type": "name_match",
      "text": "burn",
      "confidence": 1.0,
      "uuid": "63665de5-6376-4918-8dbf-4c10c4d63837",
      "name": "burn",
      "url": "https://haz-map.com/Findings/204",
      "category": "findings"
    },
    {
      "type": "name_match",
      "text": "ethyl chloride",
      "confidence": 1.0,
      "uuid": "5beffaec-7903-4a06-87c6-d5a754bd0575",
      "name": "Ethyl chloride",
      "url": "https://haz-map.com/Agents/59",
      "category": "agents"
    },
    {
      "type": "name_match",
      "text": "mica",
      "confidence": 1.0,
      "uuid": "433f26f1-c399-4596-b179-ce3843cfd465",
      "name": "Mica",
      "url": "https://haz-map.com/Agents/621",
      "category": "agents"
    },
    {
      "type": "name_match",
      "text": "ethane",
      "confidence": 1.0,
      "uuid": "5162cc8c-dfb9-4060-81ac-38a8cec7f9dd",
      "name": "Ethane",
      "url": "https://haz-map.com/Agents/1075",
      "category": "agents"
    },
    {
      "type": "name_match",
      "text": "bis(2-chloroethyl)sulfide",
      "confidence": 1.0,
      "uuid": "08b88f38-f74d-48ca-b8b6-e190ab3cf19c",
      "name": "Bis(2-chloroethyl)sulfide",
      "url": "https://haz-map.com/Agents/1450",
      "category": "agents"
    },
    {
      "type": "name_match",
      "text": "sulfur",
      "confidence": 1.0,
      "uuid": "5aabdef6-71c8-44c8-b762-feaabff50696",
      "name": "Sulfur",
      "url": "https://haz-map.com/Agents/1942",
      "category": "agents"
    },
    {
      "type": "name_match",
      "text": "ht",
      "confidence": 1.0,
      "uuid": "764df367-8d53-4a11-81a2-31ccfe122a8d",
      "name": "HT",
      "url": "https://haz-map.com/Agents/2168",
      "category": "agents"
    },
    {
      "type": "name_match",
      "text": "2-chloroethyl ethyl sulfide",
      "confidence": 1.0,
      "uuid": "f1a13633-e387-4dbd-83d4-b55585e7c2a5",
      "name": "2-Chloroethyl ethyl sulfide",
      "url": "https://haz-map.com/Agents/5253",
      "category": "agents"
    }
  ],
  "all_links": [
    {
      "text": "Search PubMed",
      "url": "https://www.ncbi.nlm.nih.gov/pubmed?term=2-Chloroethyl+ethyl+sulfide%20AND%20human%5Bmh%5D%20AND%20%28Occupational%20Diseases%20%5Bmh%5D%20OR%20Occupational%20Exposure%20%5Bmh%5D%29%20%20AND%20%28tox%5Bsb%5D%29&cmd=search"
    }
  ]
}