{
  "metadata": {
    "scraped_from": "https://haz-map.com/Agents/13980",
    "entity_name": "Dodecafluorocyclohexane",
    "category": "agents",
    "uuid": "f1c68906-f549-498e-8c26-ff04401a7da7",
    "scraped_at": "2025-07-23T21:19:59.232330"
  },
  "parsed_at": "2025-07-24T01:17:45.932107",
  "title": "Dodecafluorocyclohexane",
  "sections": {
    "general": {
      "agent_name": {
        "original_name": "Agent Name",
        "value": "Dodecafluorocyclohexane",
        "links": [],
        "cross_references": [
          {
            "type": "name_match",
            "text": "cyclohexane",
            "confidence": 1.0,
            "uuid": "366fabd7-ac2f-461c-969f-62dfe3bf2377",
            "name": "Cyclohexane",
            "url": "https://haz-map.com/Agents/384",
            "category": "agents"
          },
          {
            "type": "name_match",
            "text": "dodecafluorocyclohexane",
            "confidence": 1.0,
            "uuid": "f1c68906-f549-498e-8c26-ff04401a7da7",
            "name": "Dodecafluorocyclohexane",
            "url": "https://haz-map.com/Agents/13980",
            "category": "agents"
          }
        ]
      },
      "cas_number": {
        "original_name": "CAS Number",
        "value": "355-68-0",
        "links": [],
        "cross_references": []
      },
      "formula": {
        "original_name": "Formula",
        "value": "C6-F12",
        "links": [],
        "cross_references": []
      },
      "major_category": {
        "original_name": "Major Category",
        "value": "Other Classes",
        "links": [],
        "cross_references": []
      },
      "synonyms": {
        "original_name": "Synonyms",
        "value": "Perfluorocyclohexane; Cyclohexane, dodecafluoro-; [ChemIDplus]",
        "links": [],
        "cross_references": [
          {
            "type": "name_match",
            "text": "cyclohexane",
            "confidence": 1.0,
            "uuid": "366fabd7-ac2f-461c-969f-62dfe3bf2377",
            "name": "Cyclohexane",
            "url": "https://haz-map.com/Agents/384",
            "category": "agents"
          }
        ]
      },
      "category": {
        "original_name": "Category",
        "value": "Halogenated Cyclic Hydrocarbons",
        "links": [],
        "cross_references": [
          {
            "type": "name_match",
            "text": "carbon",
            "confidence": 1.0,
            "uuid": "b53f8815-ee80-40ef-b4aa-3b000e17dab5",
            "name": "Carbon",
            "url": "https://haz-map.com/Agents/1891",
            "category": "agents"
          },
          {
            "type": "fuzzy_match",
            "text": "hydrocarbons",
            "matched_name": "Hydrocarbons, C>3",
            "confidence": 0.7100840336134454,
            "uuid": "8eaa37ac-3931-44e4-9242-2734127fd661",
            "category": "agents",
            "url": "https://haz-map.com/Agents/14795"
          }
        ]
      },
      "description": {
        "original_name": "Description",
        "value": "Liquid; [Apollo Scientific MSDS]",
        "links": [],
        "cross_references": []
      },
      "comments": {
        "original_name": "Comments",
        "value": "An irritant; [Apollo Scientific MSDS] See \"Perfluorohexane.\" See \"Perfluoro compounds, C5-18.\"",
        "links": [],
        "cross_references": [
          {
            "type": "name_match",
            "text": "perfluoro compounds, c5-18",
            "confidence": 1.0,
            "uuid": "b947004f-ba27-48c5-baa1-c60280842427",
            "name": "Perfluoro compounds, C5-18",
            "url": "https://haz-map.com/Agents/6594",
            "category": "agents"
          },
          {
            "type": "name_match",
            "text": "perfluorohexane",
            "confidence": 1.0,
            "uuid": "43e78352-1eaa-4f36-b658-26f963325793",
            "name": "Perfluorohexane",
            "url": "https://haz-map.com/Agents/8550",
            "category": "agents"
          }
        ]
      },
      "biomedical_references": {
        "original_name": "Biomedical References",
        "value": "Search PubMed",
        "links": [
          {
            "text": "Search PubMed",
            "url": "https://www.ncbi.nlm.nih.gov/pubmed?term=Dodecafluorocyclohexane%20AND%20human%5Bmh%5D%20AND%20%28Occupational%20Diseases%20%5Bmh%5D%20OR%20Occupational%20Exposure%20%5Bmh%5D%29%20%20AND%20%28tox%5Bsb%5D%29&cmd=search"
          }
        ],
        "cross_references": []
      }
    },
    "exposure_assessment": {
      "vapor_pressure": {
        "original_name": "Vapor Pressure",
        "value": "171 mm Hg",
        "links": [],
        "cross_references": []
      },
      "explanatory_notes": {
        "original_name": "Explanatory Notes",
        "value": "VP from ChemIDplus;",
        "links": [],
        "cross_references": []
      }
    },
    "diseases_processes_and_activities_linked_to_this_agent": {
      "other_information": {
        "original_name": "Other Information",
        "value": "No other related information on this agent was found.",
        "links": [],
        "cross_references": []
      }
    }
  },
  "cross_references": [
    {
      "type": "name_match",
      "text": "cyclohexane",
      "confidence": 1.0,
      "uuid": "366fabd7-ac2f-461c-969f-62dfe3bf2377",
      "name": "Cyclohexane",
      "url": "https://haz-map.com/Agents/384",
      "category": "agents"
    },
    {
      "type": "name_match",
      "text": "carbon",
      "confidence": 1.0,
      "uuid": "b53f8815-ee80-40ef-b4aa-3b000e17dab5",
      "name": "Carbon",
      "url": "https://haz-map.com/Agents/1891",
      "category": "agents"
    },
    {
      "type": "name_match",
      "text": "perfluoro compounds, c5-18",
      "confidence": 1.0,
      "uuid": "b947004f-ba27-48c5-baa1-c60280842427",
      "name": "Perfluoro compounds, C5-18",
      "url": "https://haz-map.com/Agents/6594",
      "category": "agents"
    },
    {
      "type": "name_match",
      "text": "perfluorohexane",
      "confidence": 1.0,
      "uuid": "43e78352-1eaa-4f36-b658-26f963325793",
      "name": "Perfluorohexane",
      "url": "https://haz-map.com/Agents/8550",
      "category": "agents"
    },
    {
      "type": "name_match",
      "text": "dodecafluorocyclohexane",
      "confidence": 1.0,
      "uuid": "f1c68906-f549-498e-8c26-ff04401a7da7",
      "name": "Dodecafluorocyclohexane",
      "url": "https://haz-map.com/Agents/13980",
      "category": "agents"
    },
    {
      "type": "fuzzy_match",
      "text": "hydrocarbons",
      "matched_name": "Hydrocarbons, C>3",
      "confidence": 0.7100840336134454,
      "uuid": "8eaa37ac-3931-44e4-9242-2734127fd661",
      "category": "agents",
      "url": "https://haz-map.com/Agents/14795"
    }
  ],
  "all_links": [
    {
      "text": "Search PubMed",
      "url": "https://www.ncbi.nlm.nih.gov/pubmed?term=Dodecafluorocyclohexane%20AND%20human%5Bmh%5D%20AND%20%28Occupational%20Diseases%20%5Bmh%5D%20OR%20Occupational%20Exposure%20%5Bmh%5D%29%20%20AND%20%28tox%5Bsb%5D%29&cmd=search"
    }
  ]
}