{
  "metadata": {
    "scraped_from": "https://haz-map.com/Agents/5698",
    "entity_name": "Isolan",
    "category": "agents",
    "uuid": "f202c56b-03e5-4817-a9e2-a3b8b58c94e0",
    "scraped_at": "2025-07-23T19:55:12.991450"
  },
  "parsed_at": "2025-07-24T00:54:30.536406",
  "title": "Isolan",
  "sections": {
    "general": {
      "agent_name": {
        "original_name": "Agent Name",
        "value": "Isolan",
        "links": [],
        "cross_references": [
          {
            "type": "name_match",
            "text": "isolan",
            "confidence": 1.0,
            "uuid": "f202c56b-03e5-4817-a9e2-a3b8b58c94e0",
            "name": "Isolan",
            "url": "https://haz-map.com/Agents/5698",
            "category": "agents"
          }
        ]
      },
      "cas_number": {
        "original_name": "CAS Number",
        "value": "119-38-0",
        "links": [],
        "cross_references": []
      },
      "formula": {
        "original_name": "Formula",
        "value": "C10-H17-N3-O2",
        "links": [],
        "cross_references": []
      },
      "major_category": {
        "original_name": "Major Category",
        "value": "Pesticides",
        "links": [],
        "cross_references": []
      },
      "synonyms": {
        "original_name": "Synonyms",
        "value": "(1-Isopropil-3-metil-1H-pirazol-5-il)-N,N-dimetil-carbammato [Italian]; (1-Isopropyl-3-methyl-1H-pyrazol-5-yl)-N,N-dimethyl-carbamat [German]; (1-Isopropyl-3-methyl-1H-pyrazol-5-yl)-N,N-dimethylcarbamaat [Dutch]; 1-Isopropyl-3-methyl-5-pyrazolyl dimethylcarbamate; 1-Isopropyl-3-methyl-5-pyrazolylester kyseliny dimethylkarbaminove [Czech]; 1-Isopropyl-3-methylpyrazolyl-(5)-dimethylcarbamate; 5-Methyl-2-isopropyl-3-pyrazolyl dimethylcarbamate; Carbamic acid, dimethyl-, 1-isopropyl-3-methylpyrazol-5-yl ester; Carbamic acid, dimethyl-, 3-methyl-1-(1-methylethyl)-1H-pyrazol-5-yl ester; Dimethyl-5-(1-isopropyl-3-methyl-pyrazolyl)-carbamate; Dimethylcarbamate d'1-isopropyl 3-methyl 5-pyrazolyle [French]; Dimethylcarbamate de 1-isopropyl 3-methyl 5-pyrazolyle [French]; Dimethylcarbamic acid 1-isopropyl-3-methylpyrazol-5-yl ester; Dimethylcarbamic acid 3-methyl-1-(1-methylethyl)-1H-pyrazol-5-yl ester; ENT 19,060; G 23611; Geigy G-23611; Isolan (pesticide); Isolane [French]; Isopropylmethylpyrazolyl dimethylcarbamate; OMS 62; Primin; Pyrazol-5-ol, 1-isopropyl-3-methyl-, dimethylcarbamate; Saolan; [ChemIDplus]",
        "links": [],
        "cross_references": [
          {
            "type": "name_match",
            "text": "tali",
            "confidence": 1.0,
            "uuid": "8c3a0f99-2143-4122-b539-ec5cc49596b0",
            "name": "Tali",
            "url": "https://haz-map.com/Agents/1128",
            "category": "agents"
          },
          {
            "type": "name_match",
            "text": "isolan",
            "confidence": 1.0,
            "uuid": "f202c56b-03e5-4817-a9e2-a3b8b58c94e0",
            "name": "Isolan",
            "url": "https://haz-map.com/Agents/5698",
            "category": "agents"
          }
        ]
      },
      "category": {
        "original_name": "Category",
        "value": "Carbamate Insecticides",
        "links": [],
        "cross_references": [
          {
            "type": "name_match",
            "text": "carbamate insecticides",
            "confidence": 1.0,
            "uuid": "d406afe4-aed9-49d6-a6fa-726d8c380439",
            "name": "CARBAMATE INSECTICIDES",
            "url": "https://haz-map.com/Agents/33",
            "category": "agents"
          }
        ]
      },
      "description": {
        "original_name": "Description",
        "value": "Colorless liquid; [HSDB]",
        "links": [],
        "cross_references": []
      },
      "sourcesuses": {
        "original_name": "Sources/Uses",
        "value": "Used as a contact, systemic, and fumigant insecticide; No longer of much commercial interest; [HSDB] Used as systemic insecticide in Europe; [CAMEO]",
        "links": [],
        "cross_references": []
      },
      "comments": {
        "original_name": "Comments",
        "value": "Shown to be more toxic dermally than orally in rats; [Merck Index] A cholinesterase inhibitor; [Hawley] No increase in tumor types or frequency in 78 week feeding study with mice; Mutagenic observations in studies with Saccharomyces cerevisiae, but not with B. subtilis (no metabolic activation); [HSDB] Highly toxic cholinesterase inhibitor; [CAMEO] See \"CARBAMATE INSECTICIDES.\"",
        "links": [],
        "cross_references": [
          {
            "type": "name_match",
            "text": "carbamate insecticides",
            "confidence": 1.0,
            "uuid": "d406afe4-aed9-49d6-a6fa-726d8c380439",
            "name": "CARBAMATE INSECTICIDES",
            "url": "https://haz-map.com/Agents/33",
            "category": "agents"
          },
          {
            "type": "name_match",
            "text": "choline",
            "confidence": 1.0,
            "uuid": "a21a71e9-9d67-4563-9da2-98c4dcb1b766",
            "name": "Choline",
            "url": "https://haz-map.com/Agents/12978",
            "category": "agents"
          }
        ]
      },
      "restricted": {
        "original_name": "Restricted",
        "value": "No longer registered as a pesticide for use in the US; [HSDB]",
        "links": [],
        "cross_references": []
      },
      "biomedical_references": {
        "original_name": "Biomedical References",
        "value": "Search PubMed",
        "links": [
          {
            "text": "Search PubMed",
            "url": "https://www.ncbi.nlm.nih.gov/pubmed?term=Isolan%20AND%20human%5Bmh%5D%20AND%20%28Occupational%20Diseases%20%5Bmh%5D%20OR%20Occupational%20Exposure%20%5Bmh%5D%29%20%20AND%20%28tox%5Bsb%5D%29&cmd=search"
          }
        ],
        "cross_references": []
      }
    },
    "exposure_assessment": {
      "bei": {
        "original_name": "BEI",
        "value": "Acetylcholinesterase activity in red blood cells = 70% of individual's baseline; Butylcholinesterase activity in serum or plasma = 60% of individual's baseline; Sample at end of shift; [TLVs and BEIs]",
        "links": [],
        "cross_references": [
          {
            "type": "name_match",
            "text": "choline",
            "confidence": 1.0,
            "uuid": "a21a71e9-9d67-4563-9da2-98c4dcb1b766",
            "name": "Choline",
            "url": "https://haz-map.com/Agents/12978",
            "category": "agents"
          }
        ]
      },
      "vapor_pressure": {
        "original_name": "Vapor Pressure",
        "value": "0.00127 mm Hg",
        "links": [],
        "cross_references": []
      }
    },
    "adverse_effects": {
      "other_poison": {
        "original_name": "Other Poison",
        "value": "Carbamate",
        "links": [],
        "cross_references": []
      }
    },
    "diseases_processes_and_activities_linked_to_this_agent": {
      "diseases": {
        "original_name": "Diseases",
        "value": "Occupational diseases associated with exposure to this agent: Organophosphates & carbamates, acute poisoning",
        "links": [
          {
            "text": "Organophosphates & carbamates, acute poisoning",
            "url": "https://haz-map.com/Diseases/66"
          }
        ],
        "cross_references": [
          {
            "type": "url_match",
            "text": "Organophosphates & carbamates, acute poisoning",
            "url": "https://haz-map.com/Diseases/66",
            "confidence": 1.0,
            "uuid": "aea2cba9-fb36-463f-84d8-b819551bb327",
            "name": "Organophosphates & carbamates, acute poisoning",
            "category": "diseases"
          },
          {
            "type": "name_match",
            "text": "organophosphates",
            "confidence": 1.0,
            "uuid": "8d2d239c-20f9-4f02-9916-5e7667b9990c",
            "name": "ORGANOPHOSPHATES",
            "url": "https://haz-map.com/Agents/702",
            "category": "agents"
          }
        ]
      },
      "processes": {
        "original_name": "Processes",
        "value": "Industrial Processes with risk of exposure: Farming (Pesticides)",
        "links": [
          {
            "text": "Farming (Pesticides)",
            "url": "https://haz-map.com/Processes/218"
          }
        ],
        "cross_references": [
          {
            "type": "url_match",
            "text": "Farming (Pesticides)",
            "url": "https://haz-map.com/Processes/218",
            "confidence": 1.0,
            "uuid": "cf1e5815-c9bb-4917-82a5-391848170b7e",
            "name": "Farming (Pesticides)",
            "category": "processes"
          }
        ]
      }
    }
  },
  "cross_references": [
    {
      "type": "url_match",
      "text": "Organophosphates & carbamates, acute poisoning",
      "url": "https://haz-map.com/Diseases/66",
      "confidence": 1.0,
      "uuid": "aea2cba9-fb36-463f-84d8-b819551bb327",
      "name": "Organophosphates & carbamates, acute poisoning",
      "category": "diseases"
    },
    {
      "type": "url_match",
      "text": "Farming (Pesticides)",
      "url": "https://haz-map.com/Processes/218",
      "confidence": 1.0,
      "uuid": "cf1e5815-c9bb-4917-82a5-391848170b7e",
      "name": "Farming (Pesticides)",
      "category": "processes"
    },
    {
      "type": "name_match",
      "text": "carbamate insecticides",
      "confidence": 1.0,
      "uuid": "d406afe4-aed9-49d6-a6fa-726d8c380439",
      "name": "CARBAMATE INSECTICIDES",
      "url": "https://haz-map.com/Agents/33",
      "category": "agents"
    },
    {
      "type": "name_match",
      "text": "organophosphates",
      "confidence": 1.0,
      "uuid": "8d2d239c-20f9-4f02-9916-5e7667b9990c",
      "name": "ORGANOPHOSPHATES",
      "url": "https://haz-map.com/Agents/702",
      "category": "agents"
    },
    {
      "type": "name_match",
      "text": "tali",
      "confidence": 1.0,
      "uuid": "8c3a0f99-2143-4122-b539-ec5cc49596b0",
      "name": "Tali",
      "url": "https://haz-map.com/Agents/1128",
      "category": "agents"
    },
    {
      "type": "name_match",
      "text": "isolan",
      "confidence": 1.0,
      "uuid": "f202c56b-03e5-4817-a9e2-a3b8b58c94e0",
      "name": "Isolan",
      "url": "https://haz-map.com/Agents/5698",
      "category": "agents"
    },
    {
      "type": "name_match",
      "text": "choline",
      "confidence": 1.0,
      "uuid": "a21a71e9-9d67-4563-9da2-98c4dcb1b766",
      "name": "Choline",
      "url": "https://haz-map.com/Agents/12978",
      "category": "agents"
    }
  ],
  "all_links": [
    {
      "text": "Search PubMed",
      "url": "https://www.ncbi.nlm.nih.gov/pubmed?term=Isolan%20AND%20human%5Bmh%5D%20AND%20%28Occupational%20Diseases%20%5Bmh%5D%20OR%20Occupational%20Exposure%20%5Bmh%5D%29%20%20AND%20%28tox%5Bsb%5D%29&cmd=search"
    },
    {
      "text": "Organophosphates & carbamates, acute poisoning",
      "url": "https://haz-map.com/Diseases/66"
    },
    {
      "text": "Farming (Pesticides)",
      "url": "https://haz-map.com/Processes/218"
    }
  ]
}