{
  "metadata": {
    "scraped_from": "https://haz-map.com/Agents/17022",
    "entity_name": "Pyridine borane",
    "category": "agents",
    "uuid": "f21a5848-4393-4fbb-a3ee-6c08997f7a59",
    "scraped_at": "2025-07-23T21:42:39.691932"
  },
  "parsed_at": "2025-07-24T00:54:31.766057",
  "title": "Pyridine borane",
  "sections": {
    "general": {
      "agent_name": {
        "original_name": "Agent Name",
        "value": "Pyridine borane",
        "links": [],
        "cross_references": [
          {
            "type": "name_match",
            "text": "pyridine",
            "confidence": 1.0,
            "uuid": "a2d916a4-844b-4df6-9be5-868b2b364d71",
            "name": "Pyridine",
            "url": "https://haz-map.com/Agents/616",
            "category": "agents"
          },
          {
            "type": "name_match",
            "text": "borane",
            "confidence": 1.0,
            "uuid": "a5e38655-49dd-4cdf-bbc0-f37c42350b45",
            "name": "Borane",
            "url": "https://haz-map.com/Agents/8317",
            "category": "agents"
          },
          {
            "type": "name_match",
            "text": "pyridine borane",
            "confidence": 1.0,
            "uuid": "f21a5848-4393-4fbb-a3ee-6c08997f7a59",
            "name": "Pyridine borane",
            "url": "https://haz-map.com/Agents/17022",
            "category": "agents"
          }
        ]
      },
      "cas_number": {
        "original_name": "CAS Number",
        "value": "110-51-0",
        "links": [],
        "cross_references": []
      },
      "formula": {
        "original_name": "Formula",
        "value": "C5-H8-B-N",
        "links": [],
        "cross_references": []
      },
      "major_category": {
        "original_name": "Major Category",
        "value": "Metals",
        "links": [],
        "cross_references": []
      },
      "synonyms": {
        "original_name": "Synonyms",
        "value": "Borane, compd. with pyridine; Borane-pyridine (1:1); Pyridine compd. with boron hydride; Pyridine-borane; Trihydro(pyridine)boron; Boron, trihydro(pyridine)-, (T-4)-; Pyridine, compd. with BH3 (1:1) (7CI); Pyridine, compd. with borane (1:1) (8CI); [ChemIDplus] Borane-pyridine complex; [Alfa Aesar MSDS]",
        "links": [],
        "cross_references": [
          {
            "type": "name_match",
            "text": "pyridine",
            "confidence": 1.0,
            "uuid": "a2d916a4-844b-4df6-9be5-868b2b364d71",
            "name": "Pyridine",
            "url": "https://haz-map.com/Agents/616",
            "category": "agents"
          },
          {
            "type": "name_match",
            "text": "boron",
            "confidence": 1.0,
            "uuid": "539de4b5-2187-4144-ac60-98c577b00bca",
            "name": "Boron",
            "url": "https://haz-map.com/Agents/2001",
            "category": "agents"
          },
          {
            "type": "name_match",
            "text": "borane",
            "confidence": 1.0,
            "uuid": "a5e38655-49dd-4cdf-bbc0-f37c42350b45",
            "name": "Borane",
            "url": "https://haz-map.com/Agents/8317",
            "category": "agents"
          }
        ]
      },
      "category": {
        "original_name": "Category",
        "value": "Metalloid Compounds (Boron)",
        "links": [],
        "cross_references": [
          {
            "type": "name_match",
            "text": "boron",
            "confidence": 1.0,
            "uuid": "539de4b5-2187-4144-ac60-98c577b00bca",
            "name": "Boron",
            "url": "https://haz-map.com/Agents/2001",
            "category": "agents"
          }
        ]
      },
      "description": {
        "original_name": "Description",
        "value": "Colorless liquid with an unpleasant odor; mp = 9-11 deg C; [Alfa Aesar MSDS]",
        "links": [],
        "cross_references": []
      },
      "sourcesuses": {
        "original_name": "Sources/Uses",
        "value": "\"Reduces tryptophan to dihydrotryptophan; inactivates lysozyme in trifluoroacetic acid.\" [ChemIDplus]",
        "links": [],
        "cross_references": [
          {
            "type": "name_match",
            "text": "acetic acid",
            "confidence": 1.0,
            "uuid": "0905c6e4-df84-4895-a92d-658819239bbd",
            "name": "Acetic acid",
            "url": "https://haz-map.com/Agents/207",
            "category": "agents"
          },
          {
            "type": "name_match",
            "text": "trifluoroacetic acid",
            "confidence": 1.0,
            "uuid": "fbe6e865-a4ae-4f8f-8aa9-1aa6260b3337",
            "name": "Trifluoroacetic acid",
            "url": "https://haz-map.com/Agents/1436",
            "category": "agents"
          },
          {
            "type": "name_match",
            "text": "fluoroacetic acid",
            "confidence": 1.0,
            "uuid": "74fe781f-35f7-42fc-8ae5-9900d893b1a9",
            "name": "Fluoroacetic acid",
            "url": "https://haz-map.com/Agents/5348",
            "category": "agents"
          },
          {
            "type": "name_match",
            "text": "lysozyme",
            "confidence": 1.0,
            "uuid": "e3d77b54-7326-4b92-afd7-069e73859175",
            "name": "Lysozyme",
            "url": "https://haz-map.com/Agents/15296",
            "category": "agents"
          },
          {
            "type": "name_match",
            "text": "tryptophan",
            "confidence": 1.0,
            "uuid": "6e65ea50-c130-48b7-8f58-412d441749df",
            "name": "Tryptophan",
            "url": "https://haz-map.com/Agents/18463",
            "category": "agents"
          }
        ]
      },
      "comments": {
        "original_name": "Comments",
        "value": "May explode if heated under confinement; Slowly hydrolyzed by water; An irritant; Toxic by ingestion, inhalation, and skin absorption; [Alfa Aesar MSDS] See \"Pyridine\" and \"Boron.\"",
        "links": [],
        "cross_references": [
          {
            "type": "name_match",
            "text": "pyridine",
            "confidence": 1.0,
            "uuid": "a2d916a4-844b-4df6-9be5-868b2b364d71",
            "name": "Pyridine",
            "url": "https://haz-map.com/Agents/616",
            "category": "agents"
          },
          {
            "type": "name_match",
            "text": "boron",
            "confidence": 1.0,
            "uuid": "539de4b5-2187-4144-ac60-98c577b00bca",
            "name": "Boron",
            "url": "https://haz-map.com/Agents/2001",
            "category": "agents"
          },
          {
            "type": "name_match",
            "text": "water",
            "confidence": 1.0,
            "uuid": "6f2a7557-dfd2-49bc-9b4b-a93cd8e225d4",
            "name": "Water",
            "url": "https://haz-map.com/Agents/18668",
            "category": "agents"
          }
        ]
      },
      "biomedical_references": {
        "original_name": "Biomedical References",
        "value": "Search PubMed",
        "links": [
          {
            "text": "Search PubMed",
            "url": "https://www.ncbi.nlm.nih.gov/pubmed?term=Pyridine+borane%20AND%20human%5Bmh%5D%20AND%20%28Occupational%20Diseases%20%5Bmh%5D%20OR%20Occupational%20Exposure%20%5Bmh%5D%29%20%20AND%20%28tox%5Bsb%5D%29&cmd=search"
          }
        ],
        "cross_references": []
      }
    },
    "exposure_assessment": {
      "vapor_pressure": {
        "original_name": "Vapor Pressure",
        "value": "0.097 mm Hg",
        "links": [],
        "cross_references": []
      }
    },
    "diseases_processes_and_activities_linked_to_this_agent": {
      "other_information": {
        "original_name": "Other Information",
        "value": "No other related information on this agent was found.",
        "links": [],
        "cross_references": []
      }
    }
  },
  "cross_references": [
    {
      "type": "name_match",
      "text": "acetic acid",
      "confidence": 1.0,
      "uuid": "0905c6e4-df84-4895-a92d-658819239bbd",
      "name": "Acetic acid",
      "url": "https://haz-map.com/Agents/207",
      "category": "agents"
    },
    {
      "type": "name_match",
      "text": "pyridine",
      "confidence": 1.0,
      "uuid": "a2d916a4-844b-4df6-9be5-868b2b364d71",
      "name": "Pyridine",
      "url": "https://haz-map.com/Agents/616",
      "category": "agents"
    },
    {
      "type": "name_match",
      "text": "trifluoroacetic acid",
      "confidence": 1.0,
      "uuid": "fbe6e865-a4ae-4f8f-8aa9-1aa6260b3337",
      "name": "Trifluoroacetic acid",
      "url": "https://haz-map.com/Agents/1436",
      "category": "agents"
    },
    {
      "type": "name_match",
      "text": "boron",
      "confidence": 1.0,
      "uuid": "539de4b5-2187-4144-ac60-98c577b00bca",
      "name": "Boron",
      "url": "https://haz-map.com/Agents/2001",
      "category": "agents"
    },
    {
      "type": "name_match",
      "text": "fluoroacetic acid",
      "confidence": 1.0,
      "uuid": "74fe781f-35f7-42fc-8ae5-9900d893b1a9",
      "name": "Fluoroacetic acid",
      "url": "https://haz-map.com/Agents/5348",
      "category": "agents"
    },
    {
      "type": "name_match",
      "text": "borane",
      "confidence": 1.0,
      "uuid": "a5e38655-49dd-4cdf-bbc0-f37c42350b45",
      "name": "Borane",
      "url": "https://haz-map.com/Agents/8317",
      "category": "agents"
    },
    {
      "type": "name_match",
      "text": "lysozyme",
      "confidence": 1.0,
      "uuid": "e3d77b54-7326-4b92-afd7-069e73859175",
      "name": "Lysozyme",
      "url": "https://haz-map.com/Agents/15296",
      "category": "agents"
    },
    {
      "type": "name_match",
      "text": "pyridine borane",
      "confidence": 1.0,
      "uuid": "f21a5848-4393-4fbb-a3ee-6c08997f7a59",
      "name": "Pyridine borane",
      "url": "https://haz-map.com/Agents/17022",
      "category": "agents"
    },
    {
      "type": "name_match",
      "text": "tryptophan",
      "confidence": 1.0,
      "uuid": "6e65ea50-c130-48b7-8f58-412d441749df",
      "name": "Tryptophan",
      "url": "https://haz-map.com/Agents/18463",
      "category": "agents"
    },
    {
      "type": "name_match",
      "text": "water",
      "confidence": 1.0,
      "uuid": "6f2a7557-dfd2-49bc-9b4b-a93cd8e225d4",
      "name": "Water",
      "url": "https://haz-map.com/Agents/18668",
      "category": "agents"
    }
  ],
  "all_links": [
    {
      "text": "Search PubMed",
      "url": "https://www.ncbi.nlm.nih.gov/pubmed?term=Pyridine+borane%20AND%20human%5Bmh%5D%20AND%20%28Occupational%20Diseases%20%5Bmh%5D%20OR%20Occupational%20Exposure%20%5Bmh%5D%29%20%20AND%20%28tox%5Bsb%5D%29&cmd=search"
    }
  ]
}