{
  "metadata": {
    "scraped_from": "https://haz-map.com/Agents/11419",
    "entity_name": "2,4,5,7-Tetranitrofluorenone",
    "category": "agents",
    "uuid": "f2b3a0b1-2ca9-4a56-917a-694a86d2c9c1",
    "scraped_at": "2025-07-23T20:58:52.418352"
  },
  "parsed_at": "2025-07-24T00:59:29.456074",
  "title": "2,4,5,7-Tetranitrofluorenone",
  "sections": {
    "general": {
      "agent_name": {
        "original_name": "Agent Name",
        "value": "2,4,5,7-Tetranitrofluorenone",
        "links": [],
        "cross_references": [
          {
            "type": "name_match",
            "text": "fluorenone",
            "confidence": 1.0,
            "uuid": "8b16a3fa-f22a-4819-ba74-755678e74be4",
            "name": "Fluorenone",
            "url": "https://haz-map.com/Agents/5343",
            "category": "agents"
          },
          {
            "type": "name_match",
            "text": "2,4,5,7-tetranitrofluorenone",
            "confidence": 1.0,
            "uuid": "f2b3a0b1-2ca9-4a56-917a-694a86d2c9c1",
            "name": "2,4,5,7-Tetranitrofluorenone",
            "url": "https://haz-map.com/Agents/11419",
            "category": "agents"
          }
        ]
      },
      "cas_number": {
        "original_name": "CAS Number",
        "value": "746-53-2",
        "links": [],
        "cross_references": []
      },
      "formula": {
        "original_name": "Formula",
        "value": "C13-H4-N4-O9",
        "links": [],
        "cross_references": []
      },
      "major_category": {
        "original_name": "Major Category",
        "value": "Other Classes",
        "links": [],
        "cross_references": []
      },
      "synonyms": {
        "original_name": "Synonyms",
        "value": "2,4,5,7-Tetranitrofluoren-9-one; 9H-Fluoren-9-one, tetranitro-; Fluoren-9-one, 2,4,5,7-tetranitro-; Tetranitrofluorenone; 9H-Fluoren-9-one, 2,4,5,7-tetranitro-; [ChemIDplus] 2,4,5,7-Tetranitro-9-fluorenone; [Acros Organics MSDS]",
        "links": [],
        "cross_references": [
          {
            "type": "name_match",
            "text": "fluorenone",
            "confidence": 1.0,
            "uuid": "8b16a3fa-f22a-4819-ba74-755678e74be4",
            "name": "Fluorenone",
            "url": "https://haz-map.com/Agents/5343",
            "category": "agents"
          }
        ]
      },
      "category": {
        "original_name": "Category",
        "value": "Polycyclic Aromatic Hydrocarbons",
        "links": [],
        "cross_references": [
          {
            "type": "name_match",
            "text": "polycyclic aromatic hydrocarbons",
            "confidence": 1.0,
            "uuid": "0f103271-339e-42e1-80e3-bf90a8be7084",
            "name": "POLYCYCLIC AROMATIC HYDROCARBONS",
            "url": "https://haz-map.com/Agents/720",
            "category": "agents"
          },
          {
            "type": "name_match",
            "text": "carbon",
            "confidence": 1.0,
            "uuid": "b53f8815-ee80-40ef-b4aa-3b000e17dab5",
            "name": "Carbon",
            "url": "https://haz-map.com/Agents/1891",
            "category": "agents"
          },
          {
            "type": "fuzzy_match",
            "text": "aromatic hydrocarbons",
            "matched_name": "Aromatic hydrocarbons, C9-C11",
            "confidence": 0.7509578544061303,
            "uuid": "1e86d79b-784d-40c4-8412-39a4432a7a75",
            "category": "agents",
            "url": "https://haz-map.com/Agents/20258"
          },
          {
            "type": "fuzzy_match",
            "text": "hydrocarbons",
            "matched_name": "Hydrocarbons, C>3",
            "confidence": 0.7100840336134454,
            "uuid": "8eaa37ac-3931-44e4-9242-2734127fd661",
            "category": "agents",
            "url": "https://haz-map.com/Agents/14795"
          }
        ]
      },
      "description": {
        "original_name": "Description",
        "value": "Light brown powder; [Acros Organics MSDS]",
        "links": [],
        "cross_references": [
          {
            "type": "name_match",
            "text": "ht",
            "confidence": 1.0,
            "uuid": "764df367-8d53-4a11-81a2-31ccfe122a8d",
            "name": "HT",
            "url": "https://haz-map.com/Agents/2168",
            "category": "agents"
          }
        ]
      },
      "comments": {
        "original_name": "Comments",
        "value": "May cause irritation; [Acros Organics MSDS] See \"2,4,7-Trinitrofluorenone.\"",
        "links": [],
        "cross_references": [
          {
            "type": "name_match",
            "text": "2,4,7-trinitrofluorenone",
            "confidence": 1.0,
            "uuid": "49c76877-64e5-4536-acf7-310d81d70b0e",
            "name": "2,4,7-Trinitrofluorenone",
            "url": "https://haz-map.com/Agents/2995",
            "category": "agents"
          },
          {
            "type": "name_match",
            "text": "fluorenone",
            "confidence": 1.0,
            "uuid": "8b16a3fa-f22a-4819-ba74-755678e74be4",
            "name": "Fluorenone",
            "url": "https://haz-map.com/Agents/5343",
            "category": "agents"
          },
          {
            "type": "name_match",
            "text": "trinitrofluorenone",
            "confidence": 1.0,
            "uuid": "d9ff045b-7544-4be6-9c38-c4266e62ba49",
            "name": "Trinitrofluorenone",
            "url": "https://haz-map.com/Agents/18386",
            "category": "agents"
          }
        ]
      },
      "biomedical_references": {
        "original_name": "Biomedical References",
        "value": "Search PubMed",
        "links": [
          {
            "text": "Search PubMed",
            "url": "https://www.ncbi.nlm.nih.gov/pubmed?term=2%2c4%2c5%2c7-Tetranitrofluorenone%20AND%20human%5Bmh%5D%20AND%20%28Occupational%20Diseases%20%5Bmh%5D%20OR%20Occupational%20Exposure%20%5Bmh%5D%29%20%20AND%20%28tox%5Bsb%5D%29&cmd=search"
          }
        ],
        "cross_references": []
      }
    },
    "exposure_assessment": {
      "vapor_pressure": {
        "original_name": "Vapor Pressure",
        "value": "5.38E-12 mm Hg",
        "links": [],
        "cross_references": []
      }
    },
    "diseases_processes_and_activities_linked_to_this_agent": {
      "other_information": {
        "original_name": "Other Information",
        "value": "No other related information on this agent was found.",
        "links": [],
        "cross_references": []
      }
    }
  },
  "cross_references": [
    {
      "type": "name_match",
      "text": "polycyclic aromatic hydrocarbons",
      "confidence": 1.0,
      "uuid": "0f103271-339e-42e1-80e3-bf90a8be7084",
      "name": "POLYCYCLIC AROMATIC HYDROCARBONS",
      "url": "https://haz-map.com/Agents/720",
      "category": "agents"
    },
    {
      "type": "name_match",
      "text": "carbon",
      "confidence": 1.0,
      "uuid": "b53f8815-ee80-40ef-b4aa-3b000e17dab5",
      "name": "Carbon",
      "url": "https://haz-map.com/Agents/1891",
      "category": "agents"
    },
    {
      "type": "name_match",
      "text": "ht",
      "confidence": 1.0,
      "uuid": "764df367-8d53-4a11-81a2-31ccfe122a8d",
      "name": "HT",
      "url": "https://haz-map.com/Agents/2168",
      "category": "agents"
    },
    {
      "type": "name_match",
      "text": "2,4,7-trinitrofluorenone",
      "confidence": 1.0,
      "uuid": "49c76877-64e5-4536-acf7-310d81d70b0e",
      "name": "2,4,7-Trinitrofluorenone",
      "url": "https://haz-map.com/Agents/2995",
      "category": "agents"
    },
    {
      "type": "name_match",
      "text": "fluorenone",
      "confidence": 1.0,
      "uuid": "8b16a3fa-f22a-4819-ba74-755678e74be4",
      "name": "Fluorenone",
      "url": "https://haz-map.com/Agents/5343",
      "category": "agents"
    },
    {
      "type": "name_match",
      "text": "2,4,5,7-tetranitrofluorenone",
      "confidence": 1.0,
      "uuid": "f2b3a0b1-2ca9-4a56-917a-694a86d2c9c1",
      "name": "2,4,5,7-Tetranitrofluorenone",
      "url": "https://haz-map.com/Agents/11419",
      "category": "agents"
    },
    {
      "type": "name_match",
      "text": "trinitrofluorenone",
      "confidence": 1.0,
      "uuid": "d9ff045b-7544-4be6-9c38-c4266e62ba49",
      "name": "Trinitrofluorenone",
      "url": "https://haz-map.com/Agents/18386",
      "category": "agents"
    },
    {
      "type": "fuzzy_match",
      "text": "aromatic hydrocarbons",
      "matched_name": "Aromatic hydrocarbons, C9-C11",
      "confidence": 0.7509578544061303,
      "uuid": "1e86d79b-784d-40c4-8412-39a4432a7a75",
      "category": "agents",
      "url": "https://haz-map.com/Agents/20258"
    },
    {
      "type": "fuzzy_match",
      "text": "hydrocarbons",
      "matched_name": "Hydrocarbons, C>3",
      "confidence": 0.7100840336134454,
      "uuid": "8eaa37ac-3931-44e4-9242-2734127fd661",
      "category": "agents",
      "url": "https://haz-map.com/Agents/14795"
    }
  ],
  "all_links": [
    {
      "text": "Search PubMed",
      "url": "https://www.ncbi.nlm.nih.gov/pubmed?term=2%2c4%2c5%2c7-Tetranitrofluorenone%20AND%20human%5Bmh%5D%20AND%20%28Occupational%20Diseases%20%5Bmh%5D%20OR%20Occupational%20Exposure%20%5Bmh%5D%29%20%20AND%20%28tox%5Bsb%5D%29&cmd=search"
    }
  ]
}