{
  "metadata": {
    "scraped_from": "https://haz-map.com/Agents/17931",
    "entity_name": "Tetramethylgermanium",
    "category": "agents",
    "uuid": "f3636650-e83e-4ff3-9240-0bcdae342ca0",
    "scraped_at": "2025-07-23T21:50:51.951240"
  },
  "parsed_at": "2025-07-24T01:00:05.686018",
  "title": "Tetramethylgermanium",
  "sections": {
    "general": {
      "agent_name": {
        "original_name": "Agent Name",
        "value": "Tetramethylgermanium",
        "links": [],
        "cross_references": [
          {
            "type": "name_match",
            "text": "germanium",
            "confidence": 1.0,
            "uuid": "23363a62-3d60-4b2d-8053-8a32f0b56ace",
            "name": "Germanium",
            "url": "https://haz-map.com/Agents/5418",
            "category": "agents"
          },
          {
            "type": "name_match",
            "text": "tetramethylgermanium",
            "confidence": 1.0,
            "uuid": "f3636650-e83e-4ff3-9240-0bcdae342ca0",
            "name": "Tetramethylgermanium",
            "url": "https://haz-map.com/Agents/17931",
            "category": "agents"
          }
        ]
      },
      "cas_number": {
        "original_name": "CAS Number",
        "value": "865-52-1",
        "links": [],
        "cross_references": []
      },
      "formula": {
        "original_name": "Formula",
        "value": "C4-H12-Ge",
        "links": [],
        "cross_references": []
      },
      "major_category": {
        "original_name": "Major Category",
        "value": "Metals",
        "links": [],
        "cross_references": []
      },
      "synonyms": {
        "original_name": "Synonyms",
        "value": "Germanium, tetramethyl-; TL 81; [ChemIDplus] UN1993",
        "links": [],
        "cross_references": [
          {
            "type": "name_match",
            "text": "germanium",
            "confidence": 1.0,
            "uuid": "23363a62-3d60-4b2d-8053-8a32f0b56ace",
            "name": "Germanium",
            "url": "https://haz-map.com/Agents/5418",
            "category": "agents"
          }
        ]
      },
      "category": {
        "original_name": "Category",
        "value": "Metals, Organic Compounds",
        "links": [],
        "cross_references": [
          {
            "type": "fuzzy_match",
            "text": "organic compounds",
            "matched_name": "Tin, organic compounds",
            "confidence": 0.8196969696969697,
            "uuid": "e027d413-8869-4308-9eb2-27d768b011ea",
            "category": "agents",
            "url": "https://haz-map.com/Agents/656"
          }
        ]
      },
      "description": {
        "original_name": "Description",
        "value": "Clear light yellow liquid; [Sigma-Aldrich MSDS]",
        "links": [],
        "cross_references": [
          {
            "type": "name_match",
            "text": "ht",
            "confidence": 1.0,
            "uuid": "764df367-8d53-4a11-81a2-31ccfe122a8d",
            "name": "HT",
            "url": "https://haz-map.com/Agents/2168",
            "category": "agents"
          }
        ]
      },
      "comments": {
        "original_name": "Comments",
        "value": "Inhalation lethal concentration (mouse) > 2,500 mg/m3/10min; [RTECS] A strong eye irritant; Harmful by ingestion, inhalation, and skin absorption; [Sigma-Aldrich MSDS] See \"Germanium.\" See \"Tetramethyl lead.\"",
        "links": [],
        "cross_references": [
          {
            "type": "name_match",
            "text": "lead",
            "confidence": 1.0,
            "uuid": "24246eba-13d7-456a-a142-ceae0f1df43f",
            "name": "Lead",
            "url": "https://haz-map.com/Agents/10",
            "category": "agents"
          },
          {
            "type": "name_match",
            "text": "tetramethyl lead",
            "confidence": 1.0,
            "uuid": "c4df7714-f4f4-40bc-a5bc-ea987062a1ab",
            "name": "Tetramethyl lead",
            "url": "https://haz-map.com/Agents/150",
            "category": "agents"
          },
          {
            "type": "name_match",
            "text": "germanium",
            "confidence": 1.0,
            "uuid": "23363a62-3d60-4b2d-8053-8a32f0b56ace",
            "name": "Germanium",
            "url": "https://haz-map.com/Agents/5418",
            "category": "agents"
          }
        ]
      },
      "biomedical_references": {
        "original_name": "Biomedical References",
        "value": "Search PubMed",
        "links": [
          {
            "text": "Search PubMed",
            "url": "https://www.ncbi.nlm.nih.gov/pubmed?term=Tetramethylgermanium%20AND%20human%5Bmh%5D%20AND%20%28Occupational%20Diseases%20%5Bmh%5D%20OR%20Occupational%20Exposure%20%5Bmh%5D%29%20%20AND%20%28tox%5Bsb%5D%29&cmd=search"
          }
        ],
        "cross_references": []
      }
    },
    "exposure_assessment": {
      "vapor_pressure": {
        "original_name": "Vapor Pressure",
        "value": "30 mm Hg",
        "links": [],
        "cross_references": []
      },
      "explanatory_notes": {
        "original_name": "Explanatory Notes",
        "value": "The Guide in the Emergency Response Guidebook is for \"Flammable liquid, n.o.s.\"",
        "links": [],
        "cross_references": []
      }
    },
    "adverse_effects": {
      "neurotoxin": {
        "original_name": "Neurotoxin",
        "value": "Other CNS neurotoxin",
        "links": [],
        "cross_references": []
      }
    },
    "diseases_processes_and_activities_linked_to_this_agent": {
      "other_information": {
        "original_name": "Other Information",
        "value": "No other related information on this agent was found.",
        "links": [],
        "cross_references": []
      }
    }
  },
  "cross_references": [
    {
      "type": "name_match",
      "text": "lead",
      "confidence": 1.0,
      "uuid": "24246eba-13d7-456a-a142-ceae0f1df43f",
      "name": "Lead",
      "url": "https://haz-map.com/Agents/10",
      "category": "agents"
    },
    {
      "type": "name_match",
      "text": "tetramethyl lead",
      "confidence": 1.0,
      "uuid": "c4df7714-f4f4-40bc-a5bc-ea987062a1ab",
      "name": "Tetramethyl lead",
      "url": "https://haz-map.com/Agents/150",
      "category": "agents"
    },
    {
      "type": "name_match",
      "text": "ht",
      "confidence": 1.0,
      "uuid": "764df367-8d53-4a11-81a2-31ccfe122a8d",
      "name": "HT",
      "url": "https://haz-map.com/Agents/2168",
      "category": "agents"
    },
    {
      "type": "name_match",
      "text": "germanium",
      "confidence": 1.0,
      "uuid": "23363a62-3d60-4b2d-8053-8a32f0b56ace",
      "name": "Germanium",
      "url": "https://haz-map.com/Agents/5418",
      "category": "agents"
    },
    {
      "type": "name_match",
      "text": "tetramethylgermanium",
      "confidence": 1.0,
      "uuid": "f3636650-e83e-4ff3-9240-0bcdae342ca0",
      "name": "Tetramethylgermanium",
      "url": "https://haz-map.com/Agents/17931",
      "category": "agents"
    },
    {
      "type": "fuzzy_match",
      "text": "organic compounds",
      "matched_name": "Tin, organic compounds",
      "confidence": 0.8196969696969697,
      "uuid": "e027d413-8869-4308-9eb2-27d768b011ea",
      "category": "agents",
      "url": "https://haz-map.com/Agents/656"
    }
  ],
  "all_links": [
    {
      "text": "Search PubMed",
      "url": "https://www.ncbi.nlm.nih.gov/pubmed?term=Tetramethylgermanium%20AND%20human%5Bmh%5D%20AND%20%28Occupational%20Diseases%20%5Bmh%5D%20OR%20Occupational%20Exposure%20%5Bmh%5D%29%20%20AND%20%28tox%5Bsb%5D%29&cmd=search"
    }
  ]
}