{
  "metadata": {
    "scraped_from": "https://haz-map.com/Agents/11178",
    "entity_name": "4-Methylbenzyl alcohol",
    "category": "agents",
    "uuid": "f3dab029-cef1-40c2-ba95-44fc0cbe5cbb",
    "scraped_at": "2025-07-23T20:56:24.835736"
  },
  "parsed_at": "2025-07-24T00:57:56.708025",
  "title": "4-Methylbenzyl alcohol",
  "sections": {
    "general": {
      "agent_name": {
        "original_name": "Agent Name",
        "value": "4-Methylbenzyl alcohol",
        "links": [],
        "cross_references": [
          {
            "type": "name_match",
            "text": "benzyl alcohol",
            "confidence": 1.0,
            "uuid": "aa5ddab1-d568-4556-bbb6-b1adaca0f801",
            "name": "Benzyl alcohol",
            "url": "https://haz-map.com/Agents/1267",
            "category": "agents"
          },
          {
            "type": "name_match",
            "text": "4-methylbenzyl alcohol",
            "confidence": 1.0,
            "uuid": "f3dab029-cef1-40c2-ba95-44fc0cbe5cbb",
            "name": "4-Methylbenzyl alcohol",
            "url": "https://haz-map.com/Agents/11178",
            "category": "agents"
          }
        ]
      },
      "cas_number": {
        "original_name": "CAS Number",
        "value": "589-18-4",
        "links": [],
        "cross_references": []
      },
      "formula": {
        "original_name": "Formula",
        "value": "C8-H10-O",
        "links": [],
        "cross_references": []
      },
      "major_category": {
        "original_name": "Major Category",
        "value": "Other Classes",
        "links": [],
        "cross_references": []
      },
      "synonyms": {
        "original_name": "Synonyms",
        "value": "4-(Hydroxymethyl)toluene; 4-Methylbenzenemethanol; 4-Tolylcarbinol; Benzenemethanol, 4-methyl-; p-Methylbenzyl alcohol; p-Methylbenzylalcohol; p-Methylbenzylalkohol [German]; p-Tolyl alcohol; p-Tolylcarbinol; 4-Methyl-benzenemethanol (9CI); Benzyl alcohol, p-methyl-; [ChemIDplus] p-Methyl benzyl alcohol; (4-Methylphenyl)methanol; 4-Methyl benzenemethanol; p-Tolualcohol; p-Toluic alcohol; p-Toluyl alcohol; [CAMEO] 4-Methylbenzylalcohol; [HSDB] Methylbenzylalcohol, p-; [NTP]",
        "links": [],
        "cross_references": [
          {
            "type": "name_match",
            "text": "benzene",
            "confidence": 1.0,
            "uuid": "b05124de-5f34-4c14-8f04-ccb20c3780d9",
            "name": "Benzene",
            "url": "https://haz-map.com/Agents/5",
            "category": "agents"
          },
          {
            "type": "name_match",
            "text": "toluene",
            "confidence": 1.0,
            "uuid": "0a34d5de-e924-4c47-aff5-7ae8e48c6772",
            "name": "Toluene",
            "url": "https://haz-map.com/Agents/83",
            "category": "agents"
          },
          {
            "type": "name_match",
            "text": "ethyl benzene",
            "confidence": 1.0,
            "uuid": "8398281d-7987-482f-8032-9d5c19d5fbf8",
            "name": "Ethyl benzene",
            "url": "https://haz-map.com/Agents/86",
            "category": "agents"
          },
          {
            "type": "name_match",
            "text": "benzyl alcohol",
            "confidence": 1.0,
            "uuid": "aa5ddab1-d568-4556-bbb6-b1adaca0f801",
            "name": "Benzyl alcohol",
            "url": "https://haz-map.com/Agents/1267",
            "category": "agents"
          }
        ]
      },
      "category": {
        "original_name": "Category",
        "value": "Alcohols and Polyols, Other",
        "links": [],
        "cross_references": []
      },
      "description": {
        "original_name": "Description",
        "value": "White solid; [HSDB] White crystalline solid; [Alfa Aesar MSDS]",
        "links": [],
        "cross_references": [
          {
            "type": "fuzzy_match",
            "text": "crystalline",
            "matched_name": "Silica, crystalline",
            "confidence": 0.7061403508771931,
            "uuid": "f920e8a2-46df-41b7-af8d-0368a777251e",
            "category": "agents",
            "url": "https://haz-map.com/Agents/427"
          }
        ]
      },
      "sourcesuses": {
        "original_name": "Sources/Uses",
        "value": "\"A pulmonary metabolite of para-xylene.\" [ChemIDplus] Used in fragrances, flavoring, and as a laboratory reagent; [HSDB]",
        "links": [],
        "cross_references": []
      },
      "comments": {
        "original_name": "Comments",
        "value": "A severe skin irritant; [RTECS] A moderate to severe skin irritant in rabbits; No irritation or sensitization observed when tested at 4% in petrolatum on human volunteers; [HSDB] A skin and strong eye irritant; [Alfa Aesar MSDS] See \"Benzyl alcohol.\"",
        "links": [],
        "cross_references": [
          {
            "type": "name_match",
            "text": "benzyl alcohol",
            "confidence": 1.0,
            "uuid": "aa5ddab1-d568-4556-bbb6-b1adaca0f801",
            "name": "Benzyl alcohol",
            "url": "https://haz-map.com/Agents/1267",
            "category": "agents"
          },
          {
            "type": "name_match",
            "text": "petrolatum",
            "confidence": 1.0,
            "uuid": "3aa16d92-e402-405d-86f0-246be9009b2b",
            "name": "Petrolatum",
            "url": "https://haz-map.com/Agents/6605",
            "category": "agents"
          }
        ]
      },
      "biomedical_references": {
        "original_name": "Biomedical References",
        "value": "Search PubMed",
        "links": [
          {
            "text": "Search PubMed",
            "url": "https://www.ncbi.nlm.nih.gov/pubmed?term=4-Methylbenzyl+alcohol%20AND%20human%5Bmh%5D%20AND%20%28Occupational%20Diseases%20%5Bmh%5D%20OR%20Occupational%20Exposure%20%5Bmh%5D%29%20%20AND%20%28tox%5Bsb%5D%29&cmd=search"
          }
        ],
        "cross_references": []
      }
    },
    "exposure_assessment": {
      "vapor_pressure": {
        "original_name": "Vapor Pressure",
        "value": "0.016 mm Hg",
        "links": [],
        "cross_references": []
      },
      "explanatory_notes": {
        "original_name": "Explanatory Notes",
        "value": "VP = 0.053 at 25 deg C; [HSDB]",
        "links": [],
        "cross_references": []
      }
    },
    "diseases_processes_and_activities_linked_to_this_agent": {
      "other_information": {
        "original_name": "Other Information",
        "value": "No other related information on this agent was found.",
        "links": [],
        "cross_references": []
      }
    }
  },
  "cross_references": [
    {
      "type": "name_match",
      "text": "benzene",
      "confidence": 1.0,
      "uuid": "b05124de-5f34-4c14-8f04-ccb20c3780d9",
      "name": "Benzene",
      "url": "https://haz-map.com/Agents/5",
      "category": "agents"
    },
    {
      "type": "name_match",
      "text": "toluene",
      "confidence": 1.0,
      "uuid": "0a34d5de-e924-4c47-aff5-7ae8e48c6772",
      "name": "Toluene",
      "url": "https://haz-map.com/Agents/83",
      "category": "agents"
    },
    {
      "type": "name_match",
      "text": "ethyl benzene",
      "confidence": 1.0,
      "uuid": "8398281d-7987-482f-8032-9d5c19d5fbf8",
      "name": "Ethyl benzene",
      "url": "https://haz-map.com/Agents/86",
      "category": "agents"
    },
    {
      "type": "name_match",
      "text": "benzyl alcohol",
      "confidence": 1.0,
      "uuid": "aa5ddab1-d568-4556-bbb6-b1adaca0f801",
      "name": "Benzyl alcohol",
      "url": "https://haz-map.com/Agents/1267",
      "category": "agents"
    },
    {
      "type": "name_match",
      "text": "petrolatum",
      "confidence": 1.0,
      "uuid": "3aa16d92-e402-405d-86f0-246be9009b2b",
      "name": "Petrolatum",
      "url": "https://haz-map.com/Agents/6605",
      "category": "agents"
    },
    {
      "type": "name_match",
      "text": "4-methylbenzyl alcohol",
      "confidence": 1.0,
      "uuid": "f3dab029-cef1-40c2-ba95-44fc0cbe5cbb",
      "name": "4-Methylbenzyl alcohol",
      "url": "https://haz-map.com/Agents/11178",
      "category": "agents"
    },
    {
      "type": "fuzzy_match",
      "text": "crystalline",
      "matched_name": "Silica, crystalline",
      "confidence": 0.7061403508771931,
      "uuid": "f920e8a2-46df-41b7-af8d-0368a777251e",
      "category": "agents",
      "url": "https://haz-map.com/Agents/427"
    }
  ],
  "all_links": [
    {
      "text": "Search PubMed",
      "url": "https://www.ncbi.nlm.nih.gov/pubmed?term=4-Methylbenzyl+alcohol%20AND%20human%5Bmh%5D%20AND%20%28Occupational%20Diseases%20%5Bmh%5D%20OR%20Occupational%20Exposure%20%5Bmh%5D%29%20%20AND%20%28tox%5Bsb%5D%29&cmd=search"
    }
  ]
}