{
  "metadata": {
    "scraped_from": "https://haz-map.com/Agents/10631",
    "entity_name": "2(3H)-Furanone, 5-hexyldihydro-",
    "category": "agents",
    "uuid": "f3dcffb2-04f8-401a-9d23-c19887b7cd60",
    "scraped_at": "2025-07-23T20:50:28.060702"
  },
  "parsed_at": "2025-07-24T01:02:50.774674",
  "title": "2(3H)-Furanone, 5-hexyldihydro-",
  "sections": {
    "general": {
      "agent_name": {
        "original_name": "Agent Name",
        "value": "2(3H)-Furanone, 5-hexyldihydro-",
        "links": [],
        "cross_references": [
          {
            "type": "name_match",
            "text": "furan",
            "confidence": 1.0,
            "uuid": "96da3d2e-f46b-4100-9000-704d1a86985b",
            "name": "Furan",
            "url": "https://haz-map.com/Agents/1477",
            "category": "agents"
          },
          {
            "type": "name_match",
            "text": "2(3h)-furanone, 5-hexyldihydro-",
            "confidence": 1.0,
            "uuid": "f3dcffb2-04f8-401a-9d23-c19887b7cd60",
            "name": "2(3H)-Furanone, 5-hexyldihydro-",
            "url": "https://haz-map.com/Agents/10631",
            "category": "agents"
          }
        ]
      },
      "alternative_name": {
        "original_name": "Alternative Name",
        "value": "gamma-Decalactone",
        "links": [],
        "cross_references": []
      },
      "cas_number": {
        "original_name": "CAS Number",
        "value": "706-14-9",
        "links": [],
        "cross_references": []
      },
      "formula": {
        "original_name": "Formula",
        "value": "C10-H18-O2",
        "links": [],
        "cross_references": []
      },
      "major_category": {
        "original_name": "Major Category",
        "value": "Other Classes",
        "links": [],
        "cross_references": []
      },
      "synonyms": {
        "original_name": "Synonyms",
        "value": "gamma-Decalactone; 2-Decalactone; 4-Hexyl-4-hydroxybutanoic acid lactone; 4-Hexyl-gamma-butyrolactone; 4-Hydroxydecanoic acid, gamma-lactone; 5-Hexyldihydro-2(3H)-furanone; 5-Hexyltetrahydro-2-furanone; Decanoic acid, gamma-lactone; Decanolide-1,4; Hydroxydecanoic acid gamma-lactone; gamma-Decalactone (natural); gamma-N-Hexyl-gamma-butyrolactone; gamma-n-Decalactone; gamma-n-Hexyl-gamma-butyrolactone; Decan-4-olide; [ChemIDplus]",
        "links": [],
        "cross_references": [
          {
            "type": "name_match",
            "text": "butyrolactone",
            "confidence": 1.0,
            "uuid": "d6f9989f-db74-422f-8c17-7f76b39bd520",
            "name": "Butyrolactone",
            "url": "https://haz-map.com/Agents/1185",
            "category": "agents"
          },
          {
            "type": "name_match",
            "text": "furan",
            "confidence": 1.0,
            "uuid": "96da3d2e-f46b-4100-9000-704d1a86985b",
            "name": "Furan",
            "url": "https://haz-map.com/Agents/1477",
            "category": "agents"
          }
        ]
      },
      "category": {
        "original_name": "Category",
        "value": "Lactones",
        "links": [],
        "cross_references": []
      },
      "description": {
        "original_name": "Description",
        "value": "Colorless liquid; [Alfa Aesar MSDS]",
        "links": [],
        "cross_references": []
      },
      "sourcesuses": {
        "original_name": "Sources/Uses",
        "value": "Permitted for use as an inert ingredient in non-food pesticide products; [EPA] Used as flavoring agent or adjuvant; [FDA]",
        "links": [],
        "cross_references": []
      },
      "comments": {
        "original_name": "Comments",
        "value": "A moderate skin irritant; Causes anticonvulsant effects, altered sleep time, and decreased body temperature in acute oral studies of mice; [RTECS] Safe when used as a flavoring agent in food; [JECFA] A skin and strong eye irritant; [Alfa Aesar MSDS] See \"Butyrolactone.\"",
        "links": [],
        "cross_references": [
          {
            "type": "name_match",
            "text": "butyrolactone",
            "confidence": 1.0,
            "uuid": "d6f9989f-db74-422f-8c17-7f76b39bd520",
            "name": "Butyrolactone",
            "url": "https://haz-map.com/Agents/1185",
            "category": "agents"
          }
        ]
      },
      "biomedical_references": {
        "original_name": "Biomedical References",
        "value": "Search PubMed",
        "links": [
          {
            "text": "Search PubMed",
            "url": "https://www.ncbi.nlm.nih.gov/pubmed?term=2(3H)-Furanone%2c+5-hexyldihydro-%20AND%20human%5Bmh%5D%20AND%20%28Occupational%20Diseases%20%5Bmh%5D%20OR%20Occupational%20Exposure%20%5Bmh%5D%29%20%20AND%20%28tox%5Bsb%5D%29&cmd=search"
          }
        ],
        "cross_references": []
      }
    },
    "exposure_assessment": {
      "vapor_pressure": {
        "original_name": "Vapor Pressure",
        "value": "0.00512 mm Hg",
        "links": [],
        "cross_references": []
      },
      "explanatory_notes": {
        "original_name": "Explanatory Notes",
        "value": "VP from ChemIDplus;",
        "links": [],
        "cross_references": []
      }
    },
    "adverse_effects": {
      "neurotoxin": {
        "original_name": "Neurotoxin",
        "value": "Acute solvent syndrome",
        "links": [],
        "cross_references": []
      }
    },
    "diseases_processes_and_activities_linked_to_this_agent": {
      "diseases": {
        "original_name": "Diseases",
        "value": "Occupational diseases associated with exposure to this agent: Solvents, acute toxic effect",
        "links": [
          {
            "text": "Solvents, acute toxic effect",
            "url": "https://haz-map.com/Diseases/326"
          }
        ],
        "cross_references": [
          {
            "type": "url_match",
            "text": "Solvents, acute toxic effect",
            "url": "https://haz-map.com/Diseases/326",
            "confidence": 1.0,
            "uuid": "581e90e3-9d0c-45f0-aa6c-3468c28da129",
            "name": "Solvents, acute toxic effect",
            "category": "diseases"
          }
        ]
      }
    }
  },
  "cross_references": [
    {
      "type": "url_match",
      "text": "Solvents, acute toxic effect",
      "url": "https://haz-map.com/Diseases/326",
      "confidence": 1.0,
      "uuid": "581e90e3-9d0c-45f0-aa6c-3468c28da129",
      "name": "Solvents, acute toxic effect",
      "category": "diseases"
    },
    {
      "type": "name_match",
      "text": "butyrolactone",
      "confidence": 1.0,
      "uuid": "d6f9989f-db74-422f-8c17-7f76b39bd520",
      "name": "Butyrolactone",
      "url": "https://haz-map.com/Agents/1185",
      "category": "agents"
    },
    {
      "type": "name_match",
      "text": "furan",
      "confidence": 1.0,
      "uuid": "96da3d2e-f46b-4100-9000-704d1a86985b",
      "name": "Furan",
      "url": "https://haz-map.com/Agents/1477",
      "category": "agents"
    },
    {
      "type": "name_match",
      "text": "2(3h)-furanone, 5-hexyldihydro-",
      "confidence": 1.0,
      "uuid": "f3dcffb2-04f8-401a-9d23-c19887b7cd60",
      "name": "2(3H)-Furanone, 5-hexyldihydro-",
      "url": "https://haz-map.com/Agents/10631",
      "category": "agents"
    }
  ],
  "all_links": [
    {
      "text": "Search PubMed",
      "url": "https://www.ncbi.nlm.nih.gov/pubmed?term=2(3H)-Furanone%2c+5-hexyldihydro-%20AND%20human%5Bmh%5D%20AND%20%28Occupational%20Diseases%20%5Bmh%5D%20OR%20Occupational%20Exposure%20%5Bmh%5D%29%20%20AND%20%28tox%5Bsb%5D%29&cmd=search"
    },
    {
      "text": "Solvents, acute toxic effect",
      "url": "https://haz-map.com/Diseases/326"
    }
  ]
}