{
  "metadata": {
    "scraped_from": "https://haz-map.com/Agents/1528",
    "entity_name": "Strontium",
    "category": "agents",
    "uuid": "f41141d2-8aeb-463b-ad89-309d39a92be3",
    "scraped_at": "2025-07-23T19:00:45.685716"
  },
  "parsed_at": "2025-07-24T01:11:22.191869",
  "title": "Strontium",
  "sections": {
    "general": {
      "agent_name": {
        "original_name": "Agent Name",
        "value": "Strontium",
        "links": [],
        "cross_references": [
          {
            "type": "name_match",
            "text": "strontium",
            "confidence": 1.0,
            "uuid": "f41141d2-8aeb-463b-ad89-309d39a92be3",
            "name": "Strontium",
            "url": "https://haz-map.com/Agents/1528",
            "category": "agents"
          }
        ]
      },
      "cas_number": {
        "original_name": "CAS Number",
        "value": "7440-24-6",
        "links": [],
        "cross_references": []
      },
      "formula": {
        "original_name": "Formula",
        "value": "Sr",
        "links": [],
        "cross_references": []
      },
      "major_category": {
        "original_name": "Major Category",
        "value": "Metals",
        "links": [],
        "cross_references": []
      },
      "synonyms": {
        "original_name": "Synonyms",
        "value": "Strontium compounds;",
        "links": [],
        "cross_references": [
          {
            "type": "name_match",
            "text": "strontium",
            "confidence": 1.0,
            "uuid": "f41141d2-8aeb-463b-ad89-309d39a92be3",
            "name": "Strontium",
            "url": "https://haz-map.com/Agents/1528",
            "category": "agents"
          }
        ]
      },
      "category": {
        "original_name": "Category",
        "value": "Elements, Metallic",
        "links": [],
        "cross_references": []
      },
      "description": {
        "original_name": "Description",
        "value": "Silvery-white metal that becomes yellow on contact with air; [Merck Index]",
        "links": [],
        "cross_references": [
          {
            "type": "name_match",
            "text": "silver",
            "confidence": 1.0,
            "uuid": "d8f69733-c0d2-4da6-9251-c7848c2137d2",
            "name": "Silver",
            "url": "https://haz-map.com/Agents/40",
            "category": "agents"
          }
        ]
      },
      "sourcesuses": {
        "original_name": "Sources/Uses",
        "value": "Used in fireworks, signal flares, and tracer bullets (red); [Merck Index] Used as an alloy and in electron tubes; [Hawley] \"Strontium compounds, such as strontium carbonate, are used in making ceramics and glass products, pyrotechnics, paint pigments, fluorescent lights, medicines, and other products.\" [ATSDR PHS] Strontium metal is used in aluminum castings, and strontium carbonate is used as getters in zinc production; [Reference #2]",
        "links": [],
        "cross_references": [
          {
            "type": "name_match",
            "text": "aluminum",
            "confidence": 1.0,
            "uuid": "60ab7471-1af2-4a33-b727-63fa1e1fa189",
            "name": "Aluminum",
            "url": "https://haz-map.com/Agents/287",
            "category": "agents"
          },
          {
            "type": "name_match",
            "text": "strontium",
            "confidence": 1.0,
            "uuid": "f41141d2-8aeb-463b-ad89-309d39a92be3",
            "name": "Strontium",
            "url": "https://haz-map.com/Agents/1528",
            "category": "agents"
          },
          {
            "type": "name_match",
            "text": "carbon",
            "confidence": 1.0,
            "uuid": "b53f8815-ee80-40ef-b4aa-3b000e17dab5",
            "name": "Carbon",
            "url": "https://haz-map.com/Agents/1891",
            "category": "agents"
          },
          {
            "type": "name_match",
            "text": "zinc",
            "confidence": 1.0,
            "uuid": "4fdb846b-d1fc-4677-99fd-bdbabeadebdc",
            "name": "Zinc",
            "url": "https://haz-map.com/Agents/1920",
            "category": "agents"
          },
          {
            "type": "name_match",
            "text": "ht",
            "confidence": 1.0,
            "uuid": "764df367-8d53-4a11-81a2-31ccfe122a8d",
            "name": "HT",
            "url": "https://haz-map.com/Agents/2168",
            "category": "agents"
          },
          {
            "type": "name_match",
            "text": "strontium carbonate",
            "confidence": 1.0,
            "uuid": "24777bc5-bb51-4f2b-82eb-a1bb13ee4114",
            "name": "Strontium carbonate",
            "url": "https://haz-map.com/Agents/7214",
            "category": "agents"
          },
          {
            "type": "name_match",
            "text": "bes",
            "confidence": 1.0,
            "uuid": "3074c0ff-c637-46e9-9a00-5b14f02c2d53",
            "name": "BES",
            "url": "https://haz-map.com/Agents/15755",
            "category": "agents"
          }
        ]
      },
      "comments": {
        "original_name": "Comments",
        "value": "There are about 140 mg of strontium in the body of an average human male; Daily intake is about 2 mg with about 60-90% obtained from food and the remaining from water; [HSDB] Natural strontium is not radioactive and not harmful by skin contact or inhalation. Animal studies show that high oral doses of strontium can weaken bones, especially in growing animals with diets deficient in calcium. Strontium-90 is formed in nuclear reactors and in explosions of nuclear bombs. Strontium-90 gives off beta particles with a half-life of 29 years. It has some medical applications, but is mainly considered a waste product. Strontium-90 is taken up by the bone where it emits beta radiation. It can cause bone marrow suppression and cancer. [ATSDR PHS] Median strontium levels (personal air sampling) in six art glass factories in Italy were 0.5 ug/m3 for oven chargers and batch mixers and 0.1 ug/m3 for art glass makers and formers. [Reference #2] See \"Strontium-90.\"",
        "links": [],
        "cross_references": [
          {
            "type": "name_match",
            "text": "strontium",
            "confidence": 1.0,
            "uuid": "f41141d2-8aeb-463b-ad89-309d39a92be3",
            "name": "Strontium",
            "url": "https://haz-map.com/Agents/1528",
            "category": "agents"
          },
          {
            "type": "name_match",
            "text": "strontium-90",
            "confidence": 1.0,
            "uuid": "abafae25-0be1-4785-b767-4aa7b31b1a97",
            "name": "Strontium-90",
            "url": "https://haz-map.com/Agents/1827",
            "category": "agents"
          },
          {
            "type": "name_match",
            "text": "calcium",
            "confidence": 1.0,
            "uuid": "1e5baf77-7a7a-476b-84c6-5b1ea504c5fc",
            "name": "Calcium",
            "url": "https://haz-map.com/Agents/1994",
            "category": "agents"
          },
          {
            "type": "name_match",
            "text": "water",
            "confidence": 1.0,
            "uuid": "6f2a7557-dfd2-49bc-9b4b-a93cd8e225d4",
            "name": "Water",
            "url": "https://haz-map.com/Agents/18668",
            "category": "agents"
          }
        ]
      },
      "reference_link_1": {
        "original_name": "Reference Link #1",
        "value": "ATSDR - Public Health Statement: Strontium",
        "links": [
          {
            "text": "ATSDR - Public Health Statement: Strontium",
            "url": "http://www.atsdr.cdc.gov/phs/phs.asp?id=654&tid=120"
          }
        ],
        "cross_references": [
          {
            "type": "name_match",
            "text": "strontium",
            "confidence": 1.0,
            "uuid": "f41141d2-8aeb-463b-ad89-309d39a92be3",
            "name": "Strontium",
            "url": "https://haz-map.com/Agents/1528",
            "category": "agents"
          }
        ]
      },
      "biomedical_references": {
        "original_name": "Biomedical References",
        "value": "Search PubMed",
        "links": [
          {
            "text": "Search PubMed",
            "url": "https://www.ncbi.nlm.nih.gov/pubmed?term=Strontium%20AND%20human%5Bmh%5D%20AND%20%28Occupational%20Diseases%20%5Bmh%5D%20OR%20Occupational%20Exposure%20%5Bmh%5D%29%20%20AND%20%28tox%5Bsb%5D%29&cmd=search"
          }
        ],
        "cross_references": []
      }
    },
    "exposure_assessment": {
      "vapor_pressure": {
        "original_name": "Vapor Pressure",
        "value": "4.24E-09 mm Hg",
        "links": [],
        "cross_references": []
      },
      "reference_link_2": {
        "original_name": "Reference Link #2",
        "value": "WHO CICAD: Strontium and Strontium Compounds",
        "links": [
          {
            "text": "WHO CICAD: Strontium and Strontium Compounds",
            "url": "http://www.inchem.org/documents/cicads/cicads/cicad77.pdf"
          }
        ],
        "cross_references": [
          {
            "type": "name_match",
            "text": "strontium",
            "confidence": 1.0,
            "uuid": "f41141d2-8aeb-463b-ad89-309d39a92be3",
            "name": "Strontium",
            "url": "https://haz-map.com/Agents/1528",
            "category": "agents"
          }
        ]
      }
    },
    "diseases_processes_and_activities_linked_to_this_agent": {
      "processes": {
        "original_name": "Processes",
        "value": "Industrial Processes with risk of exposure: Aluminum Producing Glass Manufacturing Metal Extraction and Refining Metal Preparation and Pouring Painting (Pigments, Binders, and Biocides)",
        "links": [
          {
            "text": "Aluminum Producing",
            "url": "https://haz-map.com/Processes/1"
          },
          {
            "text": "Glass Manufacturing",
            "url": "https://haz-map.com/Processes/260"
          },
          {
            "text": "Metal Extraction and Refining",
            "url": "https://haz-map.com/Processes/261"
          },
          {
            "text": "Metal Preparation and Pouring",
            "url": "https://haz-map.com/Processes/26"
          },
          {
            "text": "Painting (Pigments, Binders, and Biocides)",
            "url": "https://haz-map.com/Processes/145"
          }
        ],
        "cross_references": [
          {
            "type": "url_match",
            "text": "Aluminum Producing",
            "url": "https://haz-map.com/Processes/1",
            "confidence": 1.0,
            "uuid": "a56d4fbd-892c-4396-b20b-d1f2ca539889",
            "name": "Aluminum Producing",
            "category": "processes"
          },
          {
            "type": "url_match",
            "text": "Metal Preparation and Pouring",
            "url": "https://haz-map.com/Processes/26",
            "confidence": 1.0,
            "uuid": "fceac193-d92a-473f-b69f-e76b74928978",
            "name": "Metal Preparation and Pouring",
            "category": "processes"
          },
          {
            "type": "url_match",
            "text": "Painting (Pigments, Binders, and Biocides)",
            "url": "https://haz-map.com/Processes/145",
            "confidence": 1.0,
            "uuid": "25867878-e178-4c21-906f-d392d86b76de",
            "name": "Painting (Pigments, Binders, and Biocides)",
            "category": "processes"
          },
          {
            "type": "name_match",
            "text": "painting",
            "confidence": 1.0,
            "uuid": "19816ce9-9edf-4a86-8e64-b0cbf7dcf520",
            "name": "Painting",
            "url": "https://haz-map.com/Activities/9",
            "category": "activities"
          },
          {
            "type": "name_match",
            "text": "aluminum",
            "confidence": 1.0,
            "uuid": "60ab7471-1af2-4a33-b727-63fa1e1fa189",
            "name": "Aluminum",
            "url": "https://haz-map.com/Agents/287",
            "category": "agents"
          }
        ]
      },
      "activities": {
        "original_name": "Activities",
        "value": "Activities with risk of exposure: Ceramics making",
        "links": [
          {
            "text": "Ceramics making",
            "url": "https://haz-map.com/Activities/3"
          }
        ],
        "cross_references": [
          {
            "type": "url_match",
            "text": "Ceramics making",
            "url": "https://haz-map.com/Activities/3",
            "confidence": 1.0,
            "uuid": "0b974fda-5600-4a2e-846b-07d43554a3dc",
            "name": "Ceramics making",
            "category": "activities"
          }
        ]
      }
    }
  },
  "cross_references": [
    {
      "type": "url_match",
      "text": "Aluminum Producing",
      "url": "https://haz-map.com/Processes/1",
      "confidence": 1.0,
      "uuid": "a56d4fbd-892c-4396-b20b-d1f2ca539889",
      "name": "Aluminum Producing",
      "category": "processes"
    },
    {
      "type": "url_match",
      "text": "Metal Preparation and Pouring",
      "url": "https://haz-map.com/Processes/26",
      "confidence": 1.0,
      "uuid": "fceac193-d92a-473f-b69f-e76b74928978",
      "name": "Metal Preparation and Pouring",
      "category": "processes"
    },
    {
      "type": "url_match",
      "text": "Painting (Pigments, Binders, and Biocides)",
      "url": "https://haz-map.com/Processes/145",
      "confidence": 1.0,
      "uuid": "25867878-e178-4c21-906f-d392d86b76de",
      "name": "Painting (Pigments, Binders, and Biocides)",
      "category": "processes"
    },
    {
      "type": "url_match",
      "text": "Ceramics making",
      "url": "https://haz-map.com/Activities/3",
      "confidence": 1.0,
      "uuid": "0b974fda-5600-4a2e-846b-07d43554a3dc",
      "name": "Ceramics making",
      "category": "activities"
    },
    {
      "type": "name_match",
      "text": "painting",
      "confidence": 1.0,
      "uuid": "19816ce9-9edf-4a86-8e64-b0cbf7dcf520",
      "name": "Painting",
      "url": "https://haz-map.com/Activities/9",
      "category": "activities"
    },
    {
      "type": "name_match",
      "text": "silver",
      "confidence": 1.0,
      "uuid": "d8f69733-c0d2-4da6-9251-c7848c2137d2",
      "name": "Silver",
      "url": "https://haz-map.com/Agents/40",
      "category": "agents"
    },
    {
      "type": "name_match",
      "text": "aluminum",
      "confidence": 1.0,
      "uuid": "60ab7471-1af2-4a33-b727-63fa1e1fa189",
      "name": "Aluminum",
      "url": "https://haz-map.com/Agents/287",
      "category": "agents"
    },
    {
      "type": "name_match",
      "text": "strontium",
      "confidence": 1.0,
      "uuid": "f41141d2-8aeb-463b-ad89-309d39a92be3",
      "name": "Strontium",
      "url": "https://haz-map.com/Agents/1528",
      "category": "agents"
    },
    {
      "type": "name_match",
      "text": "strontium-90",
      "confidence": 1.0,
      "uuid": "abafae25-0be1-4785-b767-4aa7b31b1a97",
      "name": "Strontium-90",
      "url": "https://haz-map.com/Agents/1827",
      "category": "agents"
    },
    {
      "type": "name_match",
      "text": "carbon",
      "confidence": 1.0,
      "uuid": "b53f8815-ee80-40ef-b4aa-3b000e17dab5",
      "name": "Carbon",
      "url": "https://haz-map.com/Agents/1891",
      "category": "agents"
    },
    {
      "type": "name_match",
      "text": "zinc",
      "confidence": 1.0,
      "uuid": "4fdb846b-d1fc-4677-99fd-bdbabeadebdc",
      "name": "Zinc",
      "url": "https://haz-map.com/Agents/1920",
      "category": "agents"
    },
    {
      "type": "name_match",
      "text": "calcium",
      "confidence": 1.0,
      "uuid": "1e5baf77-7a7a-476b-84c6-5b1ea504c5fc",
      "name": "Calcium",
      "url": "https://haz-map.com/Agents/1994",
      "category": "agents"
    },
    {
      "type": "name_match",
      "text": "ht",
      "confidence": 1.0,
      "uuid": "764df367-8d53-4a11-81a2-31ccfe122a8d",
      "name": "HT",
      "url": "https://haz-map.com/Agents/2168",
      "category": "agents"
    },
    {
      "type": "name_match",
      "text": "strontium carbonate",
      "confidence": 1.0,
      "uuid": "24777bc5-bb51-4f2b-82eb-a1bb13ee4114",
      "name": "Strontium carbonate",
      "url": "https://haz-map.com/Agents/7214",
      "category": "agents"
    },
    {
      "type": "name_match",
      "text": "bes",
      "confidence": 1.0,
      "uuid": "3074c0ff-c637-46e9-9a00-5b14f02c2d53",
      "name": "BES",
      "url": "https://haz-map.com/Agents/15755",
      "category": "agents"
    },
    {
      "type": "name_match",
      "text": "water",
      "confidence": 1.0,
      "uuid": "6f2a7557-dfd2-49bc-9b4b-a93cd8e225d4",
      "name": "Water",
      "url": "https://haz-map.com/Agents/18668",
      "category": "agents"
    }
  ],
  "all_links": [
    {
      "text": "ATSDR - Public Health Statement: Strontium",
      "url": "http://www.atsdr.cdc.gov/phs/phs.asp?id=654&tid=120"
    },
    {
      "text": "Search PubMed",
      "url": "https://www.ncbi.nlm.nih.gov/pubmed?term=Strontium%20AND%20human%5Bmh%5D%20AND%20%28Occupational%20Diseases%20%5Bmh%5D%20OR%20Occupational%20Exposure%20%5Bmh%5D%29%20%20AND%20%28tox%5Bsb%5D%29&cmd=search"
    },
    {
      "text": "WHO CICAD: Strontium and Strontium Compounds",
      "url": "http://www.inchem.org/documents/cicads/cicads/cicad77.pdf"
    },
    {
      "text": "Aluminum Producing",
      "url": "https://haz-map.com/Processes/1"
    },
    {
      "text": "Glass Manufacturing",
      "url": "https://haz-map.com/Processes/260"
    },
    {
      "text": "Metal Extraction and Refining",
      "url": "https://haz-map.com/Processes/261"
    },
    {
      "text": "Metal Preparation and Pouring",
      "url": "https://haz-map.com/Processes/26"
    },
    {
      "text": "Painting (Pigments, Binders, and Biocides)",
      "url": "https://haz-map.com/Processes/145"
    },
    {
      "text": "Ceramics making",
      "url": "https://haz-map.com/Activities/3"
    }
  ]
}