{
  "metadata": {
    "scraped_from": "https://haz-map.com/Agents/19954",
    "entity_name": "4-(Aminomethyl)benzoic acid",
    "category": "agents",
    "uuid": "f4507411-3735-47cd-bf27-26692f2c1686",
    "scraped_at": "2025-07-23T22:16:04.841110"
  },
  "parsed_at": "2025-07-24T00:52:13.559761",
  "title": "4-(Aminomethyl)benzoic acid",
  "sections": {
    "general": {
      "agent_name": {
        "original_name": "Agent Name",
        "value": "4-(Aminomethyl)benzoic acid",
        "links": [],
        "cross_references": [
          {
            "type": "name_match",
            "text": "benzoic acid",
            "confidence": 1.0,
            "uuid": "d2c5d3be-d826-4f55-bc32-7b16821aef40",
            "name": "Benzoic acid",
            "url": "https://haz-map.com/Agents/1883",
            "category": "agents"
          },
          {
            "type": "name_match",
            "text": "4-(aminomethyl)benzoic acid",
            "confidence": 1.0,
            "uuid": "f4507411-3735-47cd-bf27-26692f2c1686",
            "name": "4-(Aminomethyl)benzoic acid",
            "url": "https://haz-map.com/Agents/19954",
            "category": "agents"
          }
        ]
      },
      "cas_number": {
        "original_name": "CAS Number",
        "value": "56-91-7",
        "links": [],
        "cross_references": []
      },
      "formula": {
        "original_name": "Formula",
        "value": "C8-H9-N-O2",
        "links": [],
        "cross_references": []
      },
      "major_category": {
        "original_name": "Major Category",
        "value": "Nitrogen Compounds",
        "links": [],
        "cross_references": [
          {
            "type": "name_match",
            "text": "nitrogen",
            "confidence": 1.0,
            "uuid": "db5e90a9-06d2-45b9-8b81-f345a89b0bc0",
            "name": "Nitrogen",
            "url": "https://haz-map.com/Agents/1072",
            "category": "agents"
          }
        ]
      },
      "synonyms": {
        "original_name": "Synonyms",
        "value": "4-Aminomethylbenzoic acid; 4-(Aminomethyl)benzoesaeure; 4-Carboxybenzylamine; alpha-Amino-p-toluic acid; Benzylamine-4-carboxylic acid; Gumbix; PAMBA; Styptopur; Benzoic acid, 4-(aminomethyl)- (9CI); p-(Aminomethyl)benzoic acid; p-Toluic acid, alpha-amino- (8CI); [ChemIDplus]",
        "links": [],
        "cross_references": [
          {
            "type": "name_match",
            "text": "benzylamine",
            "confidence": 1.0,
            "uuid": "e3ff102c-c372-46ae-ab9f-a1fd3d630249",
            "name": "Benzylamine",
            "url": "https://haz-map.com/Agents/1380",
            "category": "agents"
          },
          {
            "type": "name_match",
            "text": "benzoic acid",
            "confidence": 1.0,
            "uuid": "d2c5d3be-d826-4f55-bc32-7b16821aef40",
            "name": "Benzoic acid",
            "url": "https://haz-map.com/Agents/1883",
            "category": "agents"
          },
          {
            "type": "name_match",
            "text": "p-toluic acid",
            "confidence": 1.0,
            "uuid": "fbcba258-eec9-4ee2-a968-dccfc5cc26b7",
            "name": "p-Toluic acid",
            "url": "https://haz-map.com/Agents/11230",
            "category": "agents"
          }
        ]
      },
      "category": {
        "original_name": "Category",
        "value": "Aminobenzoic Acids",
        "links": [],
        "cross_references": [
          {
            "type": "name_match",
            "text": "benzoic acid",
            "confidence": 1.0,
            "uuid": "d2c5d3be-d826-4f55-bc32-7b16821aef40",
            "name": "Benzoic acid",
            "url": "https://haz-map.com/Agents/1883",
            "category": "agents"
          }
        ]
      },
      "description": {
        "original_name": "Description",
        "value": "Beige powder; [Sigma-Aldrich MSDS]",
        "links": [],
        "cross_references": []
      },
      "comments": {
        "original_name": "Comments",
        "value": "A skin and strong eye irritant; [Sigma-Aldrich MSDS] See \"p-Aminobenzoic acid.\"",
        "links": [],
        "cross_references": [
          {
            "type": "name_match",
            "text": "benzoic acid",
            "confidence": 1.0,
            "uuid": "d2c5d3be-d826-4f55-bc32-7b16821aef40",
            "name": "Benzoic acid",
            "url": "https://haz-map.com/Agents/1883",
            "category": "agents"
          },
          {
            "type": "name_match",
            "text": "p-aminobenzoic acid",
            "confidence": 1.0,
            "uuid": "741471ef-b6a8-48ee-b33c-93780229db7e",
            "name": "p-Aminobenzoic acid",
            "url": "https://haz-map.com/Agents/3473",
            "category": "agents"
          }
        ]
      },
      "biomedical_references": {
        "original_name": "Biomedical References",
        "value": "Search PubMed",
        "links": [
          {
            "text": "Search PubMed",
            "url": "https://www.ncbi.nlm.nih.gov/pubmed?term=4-(Aminomethyl)benzoic+acid%20AND%20human%5Bmh%5D%20AND%20%28Occupational%20Diseases%20%5Bmh%5D%20OR%20Occupational%20Exposure%20%5Bmh%5D%29%20%20AND%20%28tox%5Bsb%5D%29&cmd=search"
          }
        ],
        "cross_references": []
      }
    },
    "exposure_assessment": {
      "vapor_pressure": {
        "original_name": "Vapor Pressure",
        "value": "0.000264 mm Hg",
        "links": [],
        "cross_references": []
      }
    },
    "diseases_processes_and_activities_linked_to_this_agent": {
      "other_information": {
        "original_name": "Other Information",
        "value": "No other related information on this agent was found.",
        "links": [],
        "cross_references": []
      }
    }
  },
  "cross_references": [
    {
      "type": "name_match",
      "text": "nitrogen",
      "confidence": 1.0,
      "uuid": "db5e90a9-06d2-45b9-8b81-f345a89b0bc0",
      "name": "Nitrogen",
      "url": "https://haz-map.com/Agents/1072",
      "category": "agents"
    },
    {
      "type": "name_match",
      "text": "benzylamine",
      "confidence": 1.0,
      "uuid": "e3ff102c-c372-46ae-ab9f-a1fd3d630249",
      "name": "Benzylamine",
      "url": "https://haz-map.com/Agents/1380",
      "category": "agents"
    },
    {
      "type": "name_match",
      "text": "benzoic acid",
      "confidence": 1.0,
      "uuid": "d2c5d3be-d826-4f55-bc32-7b16821aef40",
      "name": "Benzoic acid",
      "url": "https://haz-map.com/Agents/1883",
      "category": "agents"
    },
    {
      "type": "name_match",
      "text": "p-aminobenzoic acid",
      "confidence": 1.0,
      "uuid": "741471ef-b6a8-48ee-b33c-93780229db7e",
      "name": "p-Aminobenzoic acid",
      "url": "https://haz-map.com/Agents/3473",
      "category": "agents"
    },
    {
      "type": "name_match",
      "text": "p-toluic acid",
      "confidence": 1.0,
      "uuid": "fbcba258-eec9-4ee2-a968-dccfc5cc26b7",
      "name": "p-Toluic acid",
      "url": "https://haz-map.com/Agents/11230",
      "category": "agents"
    },
    {
      "type": "name_match",
      "text": "4-(aminomethyl)benzoic acid",
      "confidence": 1.0,
      "uuid": "f4507411-3735-47cd-bf27-26692f2c1686",
      "name": "4-(Aminomethyl)benzoic acid",
      "url": "https://haz-map.com/Agents/19954",
      "category": "agents"
    }
  ],
  "all_links": [
    {
      "text": "Search PubMed",
      "url": "https://www.ncbi.nlm.nih.gov/pubmed?term=4-(Aminomethyl)benzoic+acid%20AND%20human%5Bmh%5D%20AND%20%28Occupational%20Diseases%20%5Bmh%5D%20OR%20Occupational%20Exposure%20%5Bmh%5D%29%20%20AND%20%28tox%5Bsb%5D%29&cmd=search"
    }
  ]
}