{
  "metadata": {
    "scraped_from": "https://haz-map.com/Agents/20371",
    "entity_name": "Bromoacetic acid",
    "category": "agents",
    "uuid": "f450dc9d-a1b0-4c81-8240-7d76622c8725",
    "scraped_at": "2025-07-23T22:24:04.186716"
  },
  "parsed_at": "2025-07-24T01:02:52.110088",
  "title": "Bromoacetic acid",
  "sections": {
    "general": {
      "agent_name": {
        "original_name": "Agent Name",
        "value": "Bromoacetic acid",
        "links": [],
        "cross_references": [
          {
            "type": "name_match",
            "text": "acetic acid",
            "confidence": 1.0,
            "uuid": "0905c6e4-df84-4895-a92d-658819239bbd",
            "name": "Acetic acid",
            "url": "https://haz-map.com/Agents/207",
            "category": "agents"
          },
          {
            "type": "name_match",
            "text": "bromoacetic acid",
            "confidence": 1.0,
            "uuid": "f450dc9d-a1b0-4c81-8240-7d76622c8725",
            "name": "Bromoacetic acid",
            "url": "https://haz-map.com/Agents/20371",
            "category": "agents"
          }
        ]
      },
      "cas_number": {
        "original_name": "CAS Number",
        "value": "79-08-3",
        "links": [],
        "cross_references": []
      },
      "formula": {
        "original_name": "Formula",
        "value": "C2-H3-Br-O2",
        "links": [],
        "cross_references": []
      },
      "major_category": {
        "original_name": "Major Category",
        "value": "Other Classes",
        "links": [],
        "cross_references": []
      },
      "synonyms": {
        "original_name": "Synonyms",
        "value": "Bromoacetate; 2-Bromoacetic acid; Acetic acid, bromo-, (solution); Acide bromacetique [French]; Bromoacetate ion; Bromoethanoic acid; Kyselina bromoctova [Czech]; Monobromessigsaeure [German]; Monobromoacetic acid; Acetic acid, 2-bromo-; Acetic acid, bromo-; Bromoacetic acid, solid; Bromoacetic acid, solution; [ChemIDplus] alpha-Bromoacetic acid; alpha-Bromoethanoic acid; Carboxymethyl bromide; [CAMEO] UN3425; UN1938",
        "links": [],
        "cross_references": [
          {
            "type": "name_match",
            "text": "methyl bromide",
            "confidence": 1.0,
            "uuid": "47863577-bdbb-42bc-9470-388af044a7bb",
            "name": "Methyl bromide",
            "url": "https://haz-map.com/Agents/154",
            "category": "agents"
          },
          {
            "type": "name_match",
            "text": "acetic acid",
            "confidence": 1.0,
            "uuid": "0905c6e4-df84-4895-a92d-658819239bbd",
            "name": "Acetic acid",
            "url": "https://haz-map.com/Agents/207",
            "category": "agents"
          },
          {
            "type": "name_match",
            "text": "ethyl bromide",
            "confidence": 1.0,
            "uuid": "8557f04a-68af-446b-b2c1-db6c7dca22cc",
            "name": "Ethyl bromide",
            "url": "https://haz-map.com/Agents/483",
            "category": "agents"
          },
          {
            "type": "name_match",
            "text": "bromoacetic acid",
            "confidence": 1.0,
            "uuid": "f450dc9d-a1b0-4c81-8240-7d76622c8725",
            "name": "Bromoacetic acid",
            "url": "https://haz-map.com/Agents/20371",
            "category": "agents"
          }
        ]
      },
      "category": {
        "original_name": "Category",
        "value": "Organic Acids",
        "links": [],
        "cross_references": []
      },
      "description": {
        "original_name": "Description",
        "value": "Hygroscopic solid; [Merck Index] Colorless deliquescent solid; [CAMEO] Colorless hygroscopic crystals; [Sigma-Aldrich MSDS]",
        "links": [],
        "cross_references": []
      },
      "sourcesuses": {
        "original_name": "Sources/Uses",
        "value": "Used to induce fruit for citrus fruit harvesting; [CAMEO] Used in organic syntheses; [HSDB] Used to make fine chemicals and as a biocide (cleaning products, disinfectants, and pest control products); [ECHA REACH Registrations]",
        "links": [],
        "cross_references": [
          {
            "type": "name_match",
            "text": "mica",
            "confidence": 1.0,
            "uuid": "433f26f1-c399-4596-b179-ce3843cfd465",
            "name": "Mica",
            "url": "https://haz-map.com/Agents/621",
            "category": "agents"
          }
        ]
      },
      "comments": {
        "original_name": "Comments",
        "value": "Causes somnolence, rigidity, and respiratory depression in oral lethal-dose studies of rats; [RTECS] Corrosive; [Merck Index] Causes irritation and burns to skin and mucous membranes; [HSDB] Causes burns; May cause skin sensitization; Toxic by ingestion, inhalation, and skin absorption; [ECHA REACH Registrations] Causes burns and lachrymation; Inhalation may cause corrosive injuries to upper respiratory tract; May cause respiratory sensitization; Toxic by inhalation; Highly toxic by ingestion and skin absorption; Targets the kidney and liver; [Sigma-Aldrich MSDS] See \"Chloroacetic acid.\"",
        "links": [],
        "cross_references": [
          {
            "type": "name_match",
            "text": "burn",
            "confidence": 1.0,
            "uuid": "63665de5-6376-4918-8dbf-4c10c4d63837",
            "name": "burn",
            "url": "https://haz-map.com/Findings/204",
            "category": "findings"
          },
          {
            "type": "name_match",
            "text": "rigidity",
            "confidence": 1.0,
            "uuid": "ca99ef05-6a4b-40d6-a0a3-52902650761c",
            "name": "rigidity",
            "url": "https://haz-map.com/Findings/243",
            "category": "findings"
          },
          {
            "type": "name_match",
            "text": "acetic acid",
            "confidence": 1.0,
            "uuid": "0905c6e4-df84-4895-a92d-658819239bbd",
            "name": "Acetic acid",
            "url": "https://haz-map.com/Agents/207",
            "category": "agents"
          },
          {
            "type": "name_match",
            "text": "chloroacetic acid",
            "confidence": 1.0,
            "uuid": "3a910c63-0df9-4346-b031-7ddeb8b64230",
            "name": "Chloroacetic acid",
            "url": "https://haz-map.com/Agents/1392",
            "category": "agents"
          }
        ]
      },
      "biomedical_references": {
        "original_name": "Biomedical References",
        "value": "Search PubMed",
        "links": [
          {
            "text": "Search PubMed",
            "url": "https://www.ncbi.nlm.nih.gov/pubmed?term=Bromoacetic+acid%20AND%20human%5Bmh%5D%20AND%20%28Occupational%20Diseases%20%5Bmh%5D%20OR%20Occupational%20Exposure%20%5Bmh%5D%29%20%20AND%20%28tox%5Bsb%5D%29&cmd=search"
          }
        ],
        "cross_references": []
      }
    },
    "exposure_assessment": {
      "vapor_pressure": {
        "original_name": "Vapor Pressure",
        "value": "0.119 mm Hg",
        "links": [],
        "cross_references": []
      },
      "lethal_concentration": {
        "original_name": "Lethal Concentration",
        "value": "LCLo (rat) = 114,000 mg/m3/30min",
        "links": [],
        "cross_references": []
      }
    },
    "adverse_effects": {
      "skin_sensitizer": {
        "original_name": "Skin Sensitizer",
        "value": "Yes",
        "links": [],
        "cross_references": []
      },
      "lachrymator": {
        "original_name": "Lachrymator",
        "value": "Yes",
        "links": [],
        "cross_references": []
      },
      "dermatotoxin": {
        "original_name": "Dermatotoxin",
        "value": "Skin burns",
        "links": [],
        "cross_references": [
          {
            "type": "name_match",
            "text": "burn",
            "confidence": 1.0,
            "uuid": "63665de5-6376-4918-8dbf-4c10c4d63837",
            "name": "burn",
            "url": "https://haz-map.com/Findings/204",
            "category": "findings"
          }
        ]
      }
    },
    "diseases_processes_and_activities_linked_to_this_agent": {
      "diseases": {
        "original_name": "Diseases",
        "value": "Occupational diseases associated with exposure to this agent: Contact dermatitis, allergic",
        "links": [
          {
            "text": "Contact dermatitis, allergic",
            "url": "https://haz-map.com/Diseases/18"
          }
        ],
        "cross_references": [
          {
            "type": "url_match",
            "text": "Contact dermatitis, allergic",
            "url": "https://haz-map.com/Diseases/18",
            "confidence": 1.0,
            "uuid": "c9499de0-9aa1-41bf-8753-cd5b28a63e29",
            "name": "Contact dermatitis, allergic",
            "category": "diseases"
          },
          {
            "type": "name_match",
            "text": "dermatitis",
            "confidence": 1.0,
            "uuid": "fe9c05f2-b19f-4ceb-ac7a-ffb7d7a0cae0",
            "name": "dermatitis",
            "url": "https://haz-map.com/Findings/59",
            "category": "findings"
          }
        ]
      },
      "processes": {
        "original_name": "Processes",
        "value": "Industrial Processes with risk of exposure: Using Disinfectants or Biocides",
        "links": [
          {
            "text": "Using Disinfectants or Biocides",
            "url": "https://haz-map.com/Processes/167"
          }
        ],
        "cross_references": [
          {
            "type": "url_match",
            "text": "Using Disinfectants or Biocides",
            "url": "https://haz-map.com/Processes/167",
            "confidence": 1.0,
            "uuid": "7accb745-ad60-4ef8-9039-8ac4febb8fd8",
            "name": "Using Disinfectants or Biocides",
            "category": "processes"
          }
        ]
      }
    }
  },
  "cross_references": [
    {
      "type": "url_match",
      "text": "Contact dermatitis, allergic",
      "url": "https://haz-map.com/Diseases/18",
      "confidence": 1.0,
      "uuid": "c9499de0-9aa1-41bf-8753-cd5b28a63e29",
      "name": "Contact dermatitis, allergic",
      "category": "diseases"
    },
    {
      "type": "url_match",
      "text": "Using Disinfectants or Biocides",
      "url": "https://haz-map.com/Processes/167",
      "confidence": 1.0,
      "uuid": "7accb745-ad60-4ef8-9039-8ac4febb8fd8",
      "name": "Using Disinfectants or Biocides",
      "category": "processes"
    },
    {
      "type": "name_match",
      "text": "dermatitis",
      "confidence": 1.0,
      "uuid": "fe9c05f2-b19f-4ceb-ac7a-ffb7d7a0cae0",
      "name": "dermatitis",
      "url": "https://haz-map.com/Findings/59",
      "category": "findings"
    },
    {
      "type": "name_match",
      "text": "burn",
      "confidence": 1.0,
      "uuid": "63665de5-6376-4918-8dbf-4c10c4d63837",
      "name": "burn",
      "url": "https://haz-map.com/Findings/204",
      "category": "findings"
    },
    {
      "type": "name_match",
      "text": "rigidity",
      "confidence": 1.0,
      "uuid": "ca99ef05-6a4b-40d6-a0a3-52902650761c",
      "name": "rigidity",
      "url": "https://haz-map.com/Findings/243",
      "category": "findings"
    },
    {
      "type": "name_match",
      "text": "methyl bromide",
      "confidence": 1.0,
      "uuid": "47863577-bdbb-42bc-9470-388af044a7bb",
      "name": "Methyl bromide",
      "url": "https://haz-map.com/Agents/154",
      "category": "agents"
    },
    {
      "type": "name_match",
      "text": "acetic acid",
      "confidence": 1.0,
      "uuid": "0905c6e4-df84-4895-a92d-658819239bbd",
      "name": "Acetic acid",
      "url": "https://haz-map.com/Agents/207",
      "category": "agents"
    },
    {
      "type": "name_match",
      "text": "ethyl bromide",
      "confidence": 1.0,
      "uuid": "8557f04a-68af-446b-b2c1-db6c7dca22cc",
      "name": "Ethyl bromide",
      "url": "https://haz-map.com/Agents/483",
      "category": "agents"
    },
    {
      "type": "name_match",
      "text": "mica",
      "confidence": 1.0,
      "uuid": "433f26f1-c399-4596-b179-ce3843cfd465",
      "name": "Mica",
      "url": "https://haz-map.com/Agents/621",
      "category": "agents"
    },
    {
      "type": "name_match",
      "text": "chloroacetic acid",
      "confidence": 1.0,
      "uuid": "3a910c63-0df9-4346-b031-7ddeb8b64230",
      "name": "Chloroacetic acid",
      "url": "https://haz-map.com/Agents/1392",
      "category": "agents"
    },
    {
      "type": "name_match",
      "text": "bromoacetic acid",
      "confidence": 1.0,
      "uuid": "f450dc9d-a1b0-4c81-8240-7d76622c8725",
      "name": "Bromoacetic acid",
      "url": "https://haz-map.com/Agents/20371",
      "category": "agents"
    }
  ],
  "all_links": [
    {
      "text": "Search PubMed",
      "url": "https://www.ncbi.nlm.nih.gov/pubmed?term=Bromoacetic+acid%20AND%20human%5Bmh%5D%20AND%20%28Occupational%20Diseases%20%5Bmh%5D%20OR%20Occupational%20Exposure%20%5Bmh%5D%29%20%20AND%20%28tox%5Bsb%5D%29&cmd=search"
    },
    {
      "text": "Contact dermatitis, allergic",
      "url": "https://haz-map.com/Diseases/18"
    },
    {
      "text": "Using Disinfectants or Biocides",
      "url": "https://haz-map.com/Processes/167"
    }
  ]
}