{
  "metadata": {
    "scraped_from": "https://haz-map.com/Agents/14005",
    "entity_name": "Dodecylamine hydrochloride",
    "category": "agents",
    "uuid": "f4536e7d-a724-414b-8eb3-c22ff3112c8f",
    "scraped_at": "2025-07-23T21:20:10.393018"
  },
  "parsed_at": "2025-07-24T01:10:36.742758",
  "title": "Dodecylamine hydrochloride",
  "sections": {
    "general": {
      "agent_name": {
        "original_name": "Agent Name",
        "value": "Dodecylamine hydrochloride",
        "links": [],
        "cross_references": [
          {
            "type": "name_match",
            "text": "decylamine",
            "confidence": 1.0,
            "uuid": "f5a89a58-b182-4054-8ac9-c6cced55a5e0",
            "name": "Decylamine",
            "url": "https://haz-map.com/Agents/4669",
            "category": "agents"
          },
          {
            "type": "name_match",
            "text": "dodecylamine",
            "confidence": 1.0,
            "uuid": "fbe5a2fb-3ab8-4611-bab9-881ff7ccfb9c",
            "name": "Dodecylamine",
            "url": "https://haz-map.com/Agents/5052",
            "category": "agents"
          },
          {
            "type": "name_match",
            "text": "dodecylamine hydrochloride",
            "confidence": 1.0,
            "uuid": "f4536e7d-a724-414b-8eb3-c22ff3112c8f",
            "name": "Dodecylamine hydrochloride",
            "url": "https://haz-map.com/Agents/14005",
            "category": "agents"
          }
        ]
      },
      "cas_number": {
        "original_name": "CAS Number",
        "value": "929-73-7",
        "links": [],
        "cross_references": []
      },
      "formula": {
        "original_name": "Formula",
        "value": "C12-H27-N.Cl-H",
        "links": [],
        "cross_references": []
      },
      "major_category": {
        "original_name": "Major Category",
        "value": "Nitrogen Compounds",
        "links": [],
        "cross_references": [
          {
            "type": "name_match",
            "text": "nitrogen",
            "confidence": 1.0,
            "uuid": "db5e90a9-06d2-45b9-8b81-f345a89b0bc0",
            "name": "Nitrogen",
            "url": "https://haz-map.com/Agents/1072",
            "category": "agents"
          }
        ]
      },
      "synonyms": {
        "original_name": "Synonyms",
        "value": "Dodecanamine hydrochloride; Dodecylammonium chloride; Laurylamine hydrochloride; Laurylammonium hydrochloride; n-Dodecylamine hydrochloride; n-Dodecylammonium chloride; 1-Dodecanamine, hydrochloride; Dodecylamine, hydrochloride; [ChemIDplus] 1-Dodecylamine hydrochloride; [Alfa Aesar MSDS]",
        "links": [],
        "cross_references": [
          {
            "type": "name_match",
            "text": "decylamine",
            "confidence": 1.0,
            "uuid": "f5a89a58-b182-4054-8ac9-c6cced55a5e0",
            "name": "Decylamine",
            "url": "https://haz-map.com/Agents/4669",
            "category": "agents"
          },
          {
            "type": "name_match",
            "text": "dodecylamine",
            "confidence": 1.0,
            "uuid": "fbe5a2fb-3ab8-4611-bab9-881ff7ccfb9c",
            "name": "Dodecylamine",
            "url": "https://haz-map.com/Agents/5052",
            "category": "agents"
          },
          {
            "type": "name_match",
            "text": "dodecylamine hydrochloride",
            "confidence": 1.0,
            "uuid": "f4536e7d-a724-414b-8eb3-c22ff3112c8f",
            "name": "Dodecylamine hydrochloride",
            "url": "https://haz-map.com/Agents/14005",
            "category": "agents"
          }
        ]
      },
      "category": {
        "original_name": "Category",
        "value": "Amines, Aliphatic",
        "links": [],
        "cross_references": []
      },
      "description": {
        "original_name": "Description",
        "value": "White powder; [Alfa Aesar MSDS]",
        "links": [],
        "cross_references": []
      },
      "comments": {
        "original_name": "Comments",
        "value": "An irritant; Harmful by ingestion; [Alfa Aesar MSDS] See \"Dodecylamine.\"",
        "links": [],
        "cross_references": [
          {
            "type": "name_match",
            "text": "decylamine",
            "confidence": 1.0,
            "uuid": "f5a89a58-b182-4054-8ac9-c6cced55a5e0",
            "name": "Decylamine",
            "url": "https://haz-map.com/Agents/4669",
            "category": "agents"
          },
          {
            "type": "name_match",
            "text": "dodecylamine",
            "confidence": 1.0,
            "uuid": "fbe5a2fb-3ab8-4611-bab9-881ff7ccfb9c",
            "name": "Dodecylamine",
            "url": "https://haz-map.com/Agents/5052",
            "category": "agents"
          }
        ]
      },
      "biomedical_references": {
        "original_name": "Biomedical References",
        "value": "Search PubMed",
        "links": [
          {
            "text": "Search PubMed",
            "url": "https://www.ncbi.nlm.nih.gov/pubmed?term=Dodecylamine+hydrochloride%20AND%20human%5Bmh%5D%20AND%20%28Occupational%20Diseases%20%5Bmh%5D%20OR%20Occupational%20Exposure%20%5Bmh%5D%29%20%20AND%20%28tox%5Bsb%5D%29&cmd=search"
          }
        ],
        "cross_references": []
      }
    },
    "exposure_assessment": {
      "vapor_pressure": {
        "original_name": "Vapor Pressure",
        "value": "7.62E-08 mm Hg",
        "links": [],
        "cross_references": []
      }
    },
    "diseases_processes_and_activities_linked_to_this_agent": {
      "other_information": {
        "original_name": "Other Information",
        "value": "No other related information on this agent was found.",
        "links": [],
        "cross_references": []
      }
    }
  },
  "cross_references": [
    {
      "type": "name_match",
      "text": "nitrogen",
      "confidence": 1.0,
      "uuid": "db5e90a9-06d2-45b9-8b81-f345a89b0bc0",
      "name": "Nitrogen",
      "url": "https://haz-map.com/Agents/1072",
      "category": "agents"
    },
    {
      "type": "name_match",
      "text": "decylamine",
      "confidence": 1.0,
      "uuid": "f5a89a58-b182-4054-8ac9-c6cced55a5e0",
      "name": "Decylamine",
      "url": "https://haz-map.com/Agents/4669",
      "category": "agents"
    },
    {
      "type": "name_match",
      "text": "dodecylamine",
      "confidence": 1.0,
      "uuid": "fbe5a2fb-3ab8-4611-bab9-881ff7ccfb9c",
      "name": "Dodecylamine",
      "url": "https://haz-map.com/Agents/5052",
      "category": "agents"
    },
    {
      "type": "name_match",
      "text": "dodecylamine hydrochloride",
      "confidence": 1.0,
      "uuid": "f4536e7d-a724-414b-8eb3-c22ff3112c8f",
      "name": "Dodecylamine hydrochloride",
      "url": "https://haz-map.com/Agents/14005",
      "category": "agents"
    }
  ],
  "all_links": [
    {
      "text": "Search PubMed",
      "url": "https://www.ncbi.nlm.nih.gov/pubmed?term=Dodecylamine+hydrochloride%20AND%20human%5Bmh%5D%20AND%20%28Occupational%20Diseases%20%5Bmh%5D%20OR%20Occupational%20Exposure%20%5Bmh%5D%29%20%20AND%20%28tox%5Bsb%5D%29&cmd=search"
    }
  ]
}