{
  "metadata": {
    "scraped_from": "https://haz-map.com/Agents/9651",
    "entity_name": "m-Aminobenzoic acid",
    "category": "agents",
    "uuid": "f4b286d2-6708-4c0b-9d2c-4130fc150670",
    "scraped_at": "2025-07-23T20:40:33.621877"
  },
  "parsed_at": "2025-07-24T00:53:11.321804",
  "title": "m-Aminobenzoic acid",
  "sections": {
    "general": {
      "agent_name": {
        "original_name": "Agent Name",
        "value": "m-Aminobenzoic acid",
        "links": [],
        "cross_references": [
          {
            "type": "name_match",
            "text": "benzoic acid",
            "confidence": 1.0,
            "uuid": "d2c5d3be-d826-4f55-bc32-7b16821aef40",
            "name": "Benzoic acid",
            "url": "https://haz-map.com/Agents/1883",
            "category": "agents"
          },
          {
            "type": "name_match",
            "text": "m-aminobenzoic acid",
            "confidence": 1.0,
            "uuid": "f4b286d2-6708-4c0b-9d2c-4130fc150670",
            "name": "m-Aminobenzoic acid",
            "url": "https://haz-map.com/Agents/9651",
            "category": "agents"
          }
        ]
      },
      "cas_number": {
        "original_name": "CAS Number",
        "value": "99-05-8",
        "links": [],
        "cross_references": []
      },
      "formula": {
        "original_name": "Formula",
        "value": "C7-H7-N-O2",
        "links": [],
        "cross_references": []
      },
      "major_category": {
        "original_name": "Major Category",
        "value": "Nitrogen Compounds",
        "links": [],
        "cross_references": [
          {
            "type": "name_match",
            "text": "nitrogen",
            "confidence": 1.0,
            "uuid": "db5e90a9-06d2-45b9-8b81-f345a89b0bc0",
            "name": "Nitrogen",
            "url": "https://haz-map.com/Agents/1072",
            "category": "agents"
          }
        ]
      },
      "synonyms": {
        "original_name": "Synonyms",
        "value": "3-Aminobenzoic acid; 3-Carboxyaniline; Aniline-3-carboxylic acid; MABA; m-Aminobenzoic acid; m-Carboxyaniline; Benzoic acid, 3-amino-; Benzoic acid, m-amino-; [ChemIDplus]",
        "links": [],
        "cross_references": [
          {
            "type": "name_match",
            "text": "aniline",
            "confidence": 1.0,
            "uuid": "e4932692-8d9c-4a98-8c5c-81e55b12aedf",
            "name": "Aniline",
            "url": "https://haz-map.com/Agents/296",
            "category": "agents"
          },
          {
            "type": "name_match",
            "text": "benzoic acid",
            "confidence": 1.0,
            "uuid": "d2c5d3be-d826-4f55-bc32-7b16821aef40",
            "name": "Benzoic acid",
            "url": "https://haz-map.com/Agents/1883",
            "category": "agents"
          },
          {
            "type": "name_match",
            "text": "m-aminobenzoic acid",
            "confidence": 1.0,
            "uuid": "f4b286d2-6708-4c0b-9d2c-4130fc150670",
            "name": "m-Aminobenzoic acid",
            "url": "https://haz-map.com/Agents/9651",
            "category": "agents"
          }
        ]
      },
      "category": {
        "original_name": "Category",
        "value": "Aminobenzoic Acids",
        "links": [],
        "cross_references": [
          {
            "type": "name_match",
            "text": "benzoic acid",
            "confidence": 1.0,
            "uuid": "d2c5d3be-d826-4f55-bc32-7b16821aef40",
            "name": "Benzoic acid",
            "url": "https://haz-map.com/Agents/1883",
            "category": "agents"
          }
        ]
      },
      "description": {
        "original_name": "Description",
        "value": "Solid; [Merck Index]",
        "links": [],
        "cross_references": []
      },
      "comments": {
        "original_name": "Comments",
        "value": "May cause irritation; May induce methemoglobinemia; [Alfa Aesar MSDS]",
        "links": [],
        "cross_references": [
          {
            "type": "name_match",
            "text": "methemoglobin",
            "confidence": 1.0,
            "uuid": "afb7ebf5-d2a3-4e60-8d2e-3a19456344ee",
            "name": "Methemoglobin",
            "url": "https://haz-map.com/Agents/15467",
            "category": "agents"
          },
          {
            "type": "fuzzy_match",
            "text": "methemoglobinemia",
            "matched_name": "Methemoglobinemia, acute",
            "confidence": 0.7208333333333333,
            "uuid": "473a44bd-cf11-4710-a769-e8e2b25ba317",
            "category": "diseases",
            "url": "https://haz-map.com/Diseases/210"
          }
        ]
      },
      "biomedical_references": {
        "original_name": "Biomedical References",
        "value": "Search PubMed",
        "links": [
          {
            "text": "Search PubMed",
            "url": "https://www.ncbi.nlm.nih.gov/pubmed?term=m-Aminobenzoic+acid%20AND%20human%5Bmh%5D%20AND%20%28Occupational%20Diseases%20%5Bmh%5D%20OR%20Occupational%20Exposure%20%5Bmh%5D%29%20%20AND%20%28tox%5Bsb%5D%29&cmd=search"
          }
        ],
        "cross_references": []
      }
    },
    "exposure_assessment": {
      "vapor_pressure": {
        "original_name": "Vapor Pressure",
        "value": "0.000278 mm Hg",
        "links": [],
        "cross_references": []
      }
    },
    "adverse_effects": {
      "methemoglobinemia": {
        "original_name": "Methemoglobinemia",
        "value": "MetHgb is secondary toxic effect",
        "links": [],
        "cross_references": []
      }
    },
    "diseases_processes_and_activities_linked_to_this_agent": {
      "other_information": {
        "original_name": "Other Information",
        "value": "No other related information on this agent was found.",
        "links": [],
        "cross_references": []
      }
    }
  },
  "cross_references": [
    {
      "type": "name_match",
      "text": "aniline",
      "confidence": 1.0,
      "uuid": "e4932692-8d9c-4a98-8c5c-81e55b12aedf",
      "name": "Aniline",
      "url": "https://haz-map.com/Agents/296",
      "category": "agents"
    },
    {
      "type": "name_match",
      "text": "nitrogen",
      "confidence": 1.0,
      "uuid": "db5e90a9-06d2-45b9-8b81-f345a89b0bc0",
      "name": "Nitrogen",
      "url": "https://haz-map.com/Agents/1072",
      "category": "agents"
    },
    {
      "type": "name_match",
      "text": "benzoic acid",
      "confidence": 1.0,
      "uuid": "d2c5d3be-d826-4f55-bc32-7b16821aef40",
      "name": "Benzoic acid",
      "url": "https://haz-map.com/Agents/1883",
      "category": "agents"
    },
    {
      "type": "name_match",
      "text": "m-aminobenzoic acid",
      "confidence": 1.0,
      "uuid": "f4b286d2-6708-4c0b-9d2c-4130fc150670",
      "name": "m-Aminobenzoic acid",
      "url": "https://haz-map.com/Agents/9651",
      "category": "agents"
    },
    {
      "type": "name_match",
      "text": "methemoglobin",
      "confidence": 1.0,
      "uuid": "afb7ebf5-d2a3-4e60-8d2e-3a19456344ee",
      "name": "Methemoglobin",
      "url": "https://haz-map.com/Agents/15467",
      "category": "agents"
    },
    {
      "type": "fuzzy_match",
      "text": "methemoglobinemia",
      "matched_name": "Methemoglobinemia, acute",
      "confidence": 0.7208333333333333,
      "uuid": "473a44bd-cf11-4710-a769-e8e2b25ba317",
      "category": "diseases",
      "url": "https://haz-map.com/Diseases/210"
    }
  ],
  "all_links": [
    {
      "text": "Search PubMed",
      "url": "https://www.ncbi.nlm.nih.gov/pubmed?term=m-Aminobenzoic+acid%20AND%20human%5Bmh%5D%20AND%20%28Occupational%20Diseases%20%5Bmh%5D%20OR%20Occupational%20Exposure%20%5Bmh%5D%29%20%20AND%20%28tox%5Bsb%5D%29&cmd=search"
    }
  ]
}