{
  "metadata": {
    "scraped_from": "https://haz-map.com/Agents/10940",
    "entity_name": "2-Nitrobenzoic acid",
    "category": "agents",
    "uuid": "f52505d9-267f-4e07-a29b-f9dd050ea165",
    "scraped_at": "2025-07-23T20:54:34.083970"
  },
  "parsed_at": "2025-07-24T01:07:27.388276",
  "title": "2-Nitrobenzoic acid",
  "sections": {
    "general": {
      "agent_name": {
        "original_name": "Agent Name",
        "value": "2-Nitrobenzoic acid",
        "links": [],
        "cross_references": [
          {
            "type": "name_match",
            "text": "benzoic acid",
            "confidence": 1.0,
            "uuid": "d2c5d3be-d826-4f55-bc32-7b16821aef40",
            "name": "Benzoic acid",
            "url": "https://haz-map.com/Agents/1883",
            "category": "agents"
          },
          {
            "type": "name_match",
            "text": "2-nitrobenzoic acid",
            "confidence": 1.0,
            "uuid": "f52505d9-267f-4e07-a29b-f9dd050ea165",
            "name": "2-Nitrobenzoic acid",
            "url": "https://haz-map.com/Agents/10940",
            "category": "agents"
          }
        ]
      },
      "cas_number": {
        "original_name": "CAS Number",
        "value": "552-16-9",
        "links": [],
        "cross_references": []
      },
      "formula": {
        "original_name": "Formula",
        "value": "C7-H5-N-O4",
        "links": [],
        "cross_references": []
      },
      "major_category": {
        "original_name": "Major Category",
        "value": "Nitrogen Compounds",
        "links": [],
        "cross_references": [
          {
            "type": "name_match",
            "text": "nitrogen",
            "confidence": 1.0,
            "uuid": "db5e90a9-06d2-45b9-8b81-f345a89b0bc0",
            "name": "Nitrogen",
            "url": "https://haz-map.com/Agents/1072",
            "category": "agents"
          }
        ]
      },
      "synonyms": {
        "original_name": "Synonyms",
        "value": "o-Carboxynitrobenzene; o-Nitrobenzoic acid; Benzoic acid, 2-nitro-; Benzoic acid, o-nitro-; [ChemIDplus] ortho-Nitrobenzoic acid; Nitrobenzoicacid, o-; [NTP]",
        "links": [],
        "cross_references": [
          {
            "type": "name_match",
            "text": "benzene",
            "confidence": 1.0,
            "uuid": "b05124de-5f34-4c14-8f04-ccb20c3780d9",
            "name": "Benzene",
            "url": "https://haz-map.com/Agents/5",
            "category": "agents"
          },
          {
            "type": "name_match",
            "text": "nitrobenzene",
            "confidence": 1.0,
            "uuid": "4488262c-4790-4774-a462-bf0cc71ff40c",
            "name": "Nitrobenzene",
            "url": "https://haz-map.com/Agents/569",
            "category": "agents"
          },
          {
            "type": "name_match",
            "text": "benzoic acid",
            "confidence": 1.0,
            "uuid": "d2c5d3be-d826-4f55-bc32-7b16821aef40",
            "name": "Benzoic acid",
            "url": "https://haz-map.com/Agents/1883",
            "category": "agents"
          }
        ]
      },
      "category": {
        "original_name": "Category",
        "value": "Nitrobenzoic Acids",
        "links": [],
        "cross_references": [
          {
            "type": "name_match",
            "text": "benzoic acid",
            "confidence": 1.0,
            "uuid": "d2c5d3be-d826-4f55-bc32-7b16821aef40",
            "name": "Benzoic acid",
            "url": "https://haz-map.com/Agents/1883",
            "category": "agents"
          }
        ]
      },
      "description": {
        "original_name": "Description",
        "value": "Yellowish-white solid; [CAMEO] Off-white powder; [Alfa Aesar MSDS]",
        "links": [],
        "cross_references": []
      },
      "sourcesuses": {
        "original_name": "Sources/Uses",
        "value": "Used as a reagent for protection of amine groups and in organic synthesis; [NTP]",
        "links": [],
        "cross_references": []
      },
      "comments": {
        "original_name": "Comments",
        "value": "A skin and strong eye irritant; [Alfa Aesar MSDS] See \"Benzoic acid\" and \"Nitrobenzene.\" See \"3-Nitrobenzoic acid.\"",
        "links": [],
        "cross_references": [
          {
            "type": "name_match",
            "text": "benzene",
            "confidence": 1.0,
            "uuid": "b05124de-5f34-4c14-8f04-ccb20c3780d9",
            "name": "Benzene",
            "url": "https://haz-map.com/Agents/5",
            "category": "agents"
          },
          {
            "type": "name_match",
            "text": "nitrobenzene",
            "confidence": 1.0,
            "uuid": "4488262c-4790-4774-a462-bf0cc71ff40c",
            "name": "Nitrobenzene",
            "url": "https://haz-map.com/Agents/569",
            "category": "agents"
          },
          {
            "type": "name_match",
            "text": "benzoic acid",
            "confidence": 1.0,
            "uuid": "d2c5d3be-d826-4f55-bc32-7b16821aef40",
            "name": "Benzoic acid",
            "url": "https://haz-map.com/Agents/1883",
            "category": "agents"
          },
          {
            "type": "name_match",
            "text": "3-nitrobenzoic acid",
            "confidence": 1.0,
            "uuid": "ba963eae-d0e8-4fe6-8922-36137387bd98",
            "name": "3-Nitrobenzoic acid",
            "url": "https://haz-map.com/Agents/3469",
            "category": "agents"
          }
        ]
      },
      "biomedical_references": {
        "original_name": "Biomedical References",
        "value": "Search PubMed",
        "links": [
          {
            "text": "Search PubMed",
            "url": "https://www.ncbi.nlm.nih.gov/pubmed?term=2-Nitrobenzoic+acid%20AND%20human%5Bmh%5D%20AND%20%28Occupational%20Diseases%20%5Bmh%5D%20OR%20Occupational%20Exposure%20%5Bmh%5D%29%20%20AND%20%28tox%5Bsb%5D%29&cmd=search"
          }
        ],
        "cross_references": []
      }
    },
    "exposure_assessment": {
      "vapor_pressure": {
        "original_name": "Vapor Pressure",
        "value": "7.14E-05 mm Hg",
        "links": [],
        "cross_references": []
      }
    },
    "diseases_processes_and_activities_linked_to_this_agent": {
      "other_information": {
        "original_name": "Other Information",
        "value": "No other related information on this agent was found.",
        "links": [],
        "cross_references": []
      }
    }
  },
  "cross_references": [
    {
      "type": "name_match",
      "text": "benzene",
      "confidence": 1.0,
      "uuid": "b05124de-5f34-4c14-8f04-ccb20c3780d9",
      "name": "Benzene",
      "url": "https://haz-map.com/Agents/5",
      "category": "agents"
    },
    {
      "type": "name_match",
      "text": "nitrobenzene",
      "confidence": 1.0,
      "uuid": "4488262c-4790-4774-a462-bf0cc71ff40c",
      "name": "Nitrobenzene",
      "url": "https://haz-map.com/Agents/569",
      "category": "agents"
    },
    {
      "type": "name_match",
      "text": "nitrogen",
      "confidence": 1.0,
      "uuid": "db5e90a9-06d2-45b9-8b81-f345a89b0bc0",
      "name": "Nitrogen",
      "url": "https://haz-map.com/Agents/1072",
      "category": "agents"
    },
    {
      "type": "name_match",
      "text": "benzoic acid",
      "confidence": 1.0,
      "uuid": "d2c5d3be-d826-4f55-bc32-7b16821aef40",
      "name": "Benzoic acid",
      "url": "https://haz-map.com/Agents/1883",
      "category": "agents"
    },
    {
      "type": "name_match",
      "text": "3-nitrobenzoic acid",
      "confidence": 1.0,
      "uuid": "ba963eae-d0e8-4fe6-8922-36137387bd98",
      "name": "3-Nitrobenzoic acid",
      "url": "https://haz-map.com/Agents/3469",
      "category": "agents"
    },
    {
      "type": "name_match",
      "text": "2-nitrobenzoic acid",
      "confidence": 1.0,
      "uuid": "f52505d9-267f-4e07-a29b-f9dd050ea165",
      "name": "2-Nitrobenzoic acid",
      "url": "https://haz-map.com/Agents/10940",
      "category": "agents"
    }
  ],
  "all_links": [
    {
      "text": "Search PubMed",
      "url": "https://www.ncbi.nlm.nih.gov/pubmed?term=2-Nitrobenzoic+acid%20AND%20human%5Bmh%5D%20AND%20%28Occupational%20Diseases%20%5Bmh%5D%20OR%20Occupational%20Exposure%20%5Bmh%5D%29%20%20AND%20%28tox%5Bsb%5D%29&cmd=search"
    }
  ]
}