{
  "metadata": {
    "scraped_from": "https://haz-map.com/Agents/552",
    "entity_name": "Methyl isobutyl carbinol",
    "category": "agents",
    "uuid": "f5628617-fb2b-4bf8-b8a9-367b52e71edb",
    "scraped_at": "2025-07-23T18:44:12.716595"
  },
  "parsed_at": "2025-07-24T00:53:34.667546",
  "title": "Methyl isobutyl carbinol",
  "sections": {
    "general": {
      "agent_name": {
        "original_name": "Agent Name",
        "value": "Methyl isobutyl carbinol",
        "links": [],
        "cross_references": [
          {
            "type": "name_match",
            "text": "methyl isobutyl carbinol",
            "confidence": 1.0,
            "uuid": "f5628617-fb2b-4bf8-b8a9-367b52e71edb",
            "name": "Methyl isobutyl carbinol",
            "url": "https://haz-map.com/Agents/552",
            "category": "agents"
          }
        ]
      },
      "alternative_name": {
        "original_name": "Alternative Name",
        "value": "Methyl amyl alcohol",
        "links": [],
        "cross_references": []
      },
      "cas_number": {
        "original_name": "CAS Number",
        "value": "108-11-2",
        "links": [],
        "cross_references": []
      },
      "formula": {
        "original_name": "Formula",
        "value": "C6-H14-O",
        "links": [],
        "cross_references": []
      },
      "major_category": {
        "original_name": "Major Category",
        "value": "Solvents",
        "links": [],
        "cross_references": []
      },
      "synonyms": {
        "original_name": "Synonyms",
        "value": "Methyl amyl alcohol; (+-)-4-Methyl-2-pentanol; 1,3-Dimethylbutanol; 2-Methyl-4-pentanol; 2-Pentanol, 4-methyl-; 3-MIC; 4-Methyl-2-amyl alcohol; 4-Methyl-2-pentyl alcohol; 4-Methylpentanol-2; 4-Metilpentan-2-olo [Italian]; 4-Pentanol, 2-methyl-; Alcohol methyl amylique [French]; Alcool methyl amylique [French]; Isobutylmethylcarbinol; Isobutylmethylmethanol; M.I.B.C.; MAOH; MIBC; MIC; Methyl amyl alcohol; Methyl isobutyl carbinol; Methyl-isobutylkarbinol [Czech]; Methylisobutyl carbinol; Methylisobutylcarbinol; Metilamil alcohol [Italian]; dl-Methylisobutylcarbinol; [ChemIDplus] UN2053",
        "links": [],
        "cross_references": [
          {
            "type": "name_match",
            "text": "methyl isobutyl carbinol",
            "confidence": 1.0,
            "uuid": "f5628617-fb2b-4bf8-b8a9-367b52e71edb",
            "name": "Methyl isobutyl carbinol",
            "url": "https://haz-map.com/Agents/552",
            "category": "agents"
          },
          {
            "type": "name_match",
            "text": "tali",
            "confidence": 1.0,
            "uuid": "8c3a0f99-2143-4122-b539-ec5cc49596b0",
            "name": "Tali",
            "url": "https://haz-map.com/Agents/1128",
            "category": "agents"
          },
          {
            "type": "name_match",
            "text": "2-pentanol",
            "confidence": 1.0,
            "uuid": "50f8d728-2f7d-4c2c-99d6-98c425268e54",
            "name": "2-Pentanol",
            "url": "https://haz-map.com/Agents/8529",
            "category": "agents"
          },
          {
            "type": "name_match",
            "text": "4-methylpentanol",
            "confidence": 1.0,
            "uuid": "cc3a8401-1749-4eae-ba08-687176552125",
            "name": "4-Methylpentanol",
            "url": "https://haz-map.com/Agents/20060",
            "category": "agents"
          }
        ]
      },
      "category": {
        "original_name": "Category",
        "value": "Alcohols (<C12)",
        "links": [],
        "cross_references": []
      },
      "description": {
        "original_name": "Description",
        "value": "Colorless liquid with a mild odor; [NIOSH]",
        "links": [],
        "cross_references": []
      },
      "sourcesuses": {
        "original_name": "Sources/Uses",
        "value": "Used primarily in the production of additives for anti-wear and corrosion inhibitors; Used secondarily as a flotation agent (copper ores, coal and tar sand mining); Also used as an additive to surface coatings and solvent to improve binder softness; Usually used in closed systems except as a floating agent; [ACGIH, 2020]",
        "links": [],
        "cross_references": [
          {
            "type": "name_match",
            "text": "mining",
            "confidence": 1.0,
            "uuid": "aaa4a4af-567a-4a01-83bc-ccad9fc73d04",
            "name": "Mining",
            "url": "https://haz-map.com/Processes/219",
            "category": "processes"
          },
          {
            "type": "name_match",
            "text": "copper",
            "confidence": 1.0,
            "uuid": "ec3b6867-24a9-4dd4-bb59-cd8ac790c685",
            "name": "Copper",
            "url": "https://haz-map.com/Agents/374",
            "category": "agents"
          }
        ]
      },
      "comments": {
        "original_name": "Comments",
        "value": "In acute animal studies, high concentrations induce narcosis and anesthesia. [ACGIH] Inhalation of high concentrations can cause CNS depression; A skin, eye, and respiratory tract irritant; [ICSC]",
        "links": [],
        "cross_references": []
      },
      "biomedical_references": {
        "original_name": "Biomedical References",
        "value": "Search PubMed",
        "links": [
          {
            "text": "Search PubMed",
            "url": "https://www.ncbi.nlm.nih.gov/pubmed?term=Methyl+isobutyl+carbinol%20AND%20human%5Bmh%5D%20AND%20%28Occupational%20Diseases%20%5Bmh%5D%20OR%20Occupational%20Exposure%20%5Bmh%5D%29%20%20AND%20%28tox%5Bsb%5D%29&cmd=search"
          }
        ],
        "cross_references": []
      }
    },
    "exposure_assessment": {
      "skin_designation_acgih": {
        "original_name": "Skin Designation (ACGIH)",
        "value": "No",
        "links": [],
        "cross_references": []
      },
      "tlv_acgih": {
        "original_name": "TLV (ACGIH)",
        "value": "20 ppm",
        "links": [],
        "cross_references": []
      },
      "stel_acgih": {
        "original_name": "STEL (ACGIH)",
        "value": "40 ppm",
        "links": [],
        "cross_references": []
      },
      "pel_osha": {
        "original_name": "PEL (OSHA)",
        "value": "25 ppm",
        "links": [],
        "cross_references": []
      },
      "mak": {
        "original_name": "MAK",
        "value": "20 ppm",
        "links": [],
        "cross_references": []
      },
      "idlh_niosh": {
        "original_name": "IDLH (NIOSH)",
        "value": "400 ppm",
        "links": [],
        "cross_references": []
      },
      "excerpts_from_documentation_for_idlhs": {
        "original_name": "Excerpts from Documentation for IDLHs",
        "value": "Human data: Eye irritation has occurred after exposures to 50 ppm for 15 minutes [Silverman et al. 1946].",
        "links": [],
        "cross_references": [
          {
            "type": "name_match",
            "text": "silver",
            "confidence": 1.0,
            "uuid": "d8f69733-c0d2-4da6-9251-c7848c2137d2",
            "name": "Silver",
            "url": "https://haz-map.com/Agents/40",
            "category": "agents"
          }
        ]
      },
      "vapor_pressure": {
        "original_name": "Vapor Pressure",
        "value": "2.8 mm Hg",
        "links": [],
        "cross_references": []
      },
      "odor_threshold_low": {
        "original_name": "Odor Threshold Low",
        "value": "0.01 ppm",
        "links": [],
        "cross_references": []
      },
      "odor_threshold_high": {
        "original_name": "Odor Threshold High",
        "value": "1 ppm",
        "links": [],
        "cross_references": []
      },
      "lethal_concentration": {
        "original_name": "Lethal Concentration",
        "value": "LCLo (rat) = 2,000 ppm/4H",
        "links": [],
        "cross_references": []
      },
      "explanatory_notes": {
        "original_name": "Explanatory Notes",
        "value": "Odor threshold from \"Quick Guide: The Electronic NIOSH Pocket Guide to Chemical Hazards\"; Flash point = 105 deg F; VP from HSDB;",
        "links": [],
        "cross_references": [
          {
            "type": "name_match",
            "text": "mica",
            "confidence": 1.0,
            "uuid": "433f26f1-c399-4596-b179-ce3843cfd465",
            "name": "Mica",
            "url": "https://haz-map.com/Agents/621",
            "category": "agents"
          },
          {
            "type": "name_match",
            "text": "ash",
            "confidence": 1.0,
            "uuid": "68b360f1-5ad0-4337-bea0-d7adca2961b5",
            "name": "Ash",
            "url": "https://haz-map.com/Agents/965",
            "category": "agents"
          }
        ]
      },
      "nfpa": {
        "original_name": "NFPA",
        "value": "high ambient temp required",
        "links": [],
        "cross_references": []
      }
    },
    "adverse_effects": {
      "neurotoxin": {
        "original_name": "Neurotoxin",
        "value": "Acute solvent syndrome",
        "links": [],
        "cross_references": []
      }
    },
    "diseases_processes_and_activities_linked_to_this_agent": {
      "diseases": {
        "original_name": "Diseases",
        "value": "Occupational diseases associated with exposure to this agent: Solvents, acute toxic effect",
        "links": [
          {
            "text": "Solvents, acute toxic effect",
            "url": "https://haz-map.com/Diseases/326"
          }
        ],
        "cross_references": [
          {
            "type": "url_match",
            "text": "Solvents, acute toxic effect",
            "url": "https://haz-map.com/Diseases/326",
            "confidence": 1.0,
            "uuid": "581e90e3-9d0c-45f0-aa6c-3468c28da129",
            "name": "Solvents, acute toxic effect",
            "category": "diseases"
          }
        ]
      }
    }
  },
  "cross_references": [
    {
      "type": "url_match",
      "text": "Solvents, acute toxic effect",
      "url": "https://haz-map.com/Diseases/326",
      "confidence": 1.0,
      "uuid": "581e90e3-9d0c-45f0-aa6c-3468c28da129",
      "name": "Solvents, acute toxic effect",
      "category": "diseases"
    },
    {
      "type": "name_match",
      "text": "mining",
      "confidence": 1.0,
      "uuid": "aaa4a4af-567a-4a01-83bc-ccad9fc73d04",
      "name": "Mining",
      "url": "https://haz-map.com/Processes/219",
      "category": "processes"
    },
    {
      "type": "name_match",
      "text": "silver",
      "confidence": 1.0,
      "uuid": "d8f69733-c0d2-4da6-9251-c7848c2137d2",
      "name": "Silver",
      "url": "https://haz-map.com/Agents/40",
      "category": "agents"
    },
    {
      "type": "name_match",
      "text": "copper",
      "confidence": 1.0,
      "uuid": "ec3b6867-24a9-4dd4-bb59-cd8ac790c685",
      "name": "Copper",
      "url": "https://haz-map.com/Agents/374",
      "category": "agents"
    },
    {
      "type": "name_match",
      "text": "methyl isobutyl carbinol",
      "confidence": 1.0,
      "uuid": "f5628617-fb2b-4bf8-b8a9-367b52e71edb",
      "name": "Methyl isobutyl carbinol",
      "url": "https://haz-map.com/Agents/552",
      "category": "agents"
    },
    {
      "type": "name_match",
      "text": "mica",
      "confidence": 1.0,
      "uuid": "433f26f1-c399-4596-b179-ce3843cfd465",
      "name": "Mica",
      "url": "https://haz-map.com/Agents/621",
      "category": "agents"
    },
    {
      "type": "name_match",
      "text": "ash",
      "confidence": 1.0,
      "uuid": "68b360f1-5ad0-4337-bea0-d7adca2961b5",
      "name": "Ash",
      "url": "https://haz-map.com/Agents/965",
      "category": "agents"
    },
    {
      "type": "name_match",
      "text": "tali",
      "confidence": 1.0,
      "uuid": "8c3a0f99-2143-4122-b539-ec5cc49596b0",
      "name": "Tali",
      "url": "https://haz-map.com/Agents/1128",
      "category": "agents"
    },
    {
      "type": "name_match",
      "text": "2-pentanol",
      "confidence": 1.0,
      "uuid": "50f8d728-2f7d-4c2c-99d6-98c425268e54",
      "name": "2-Pentanol",
      "url": "https://haz-map.com/Agents/8529",
      "category": "agents"
    },
    {
      "type": "name_match",
      "text": "4-methylpentanol",
      "confidence": 1.0,
      "uuid": "cc3a8401-1749-4eae-ba08-687176552125",
      "name": "4-Methylpentanol",
      "url": "https://haz-map.com/Agents/20060",
      "category": "agents"
    }
  ],
  "all_links": [
    {
      "text": "Search PubMed",
      "url": "https://www.ncbi.nlm.nih.gov/pubmed?term=Methyl+isobutyl+carbinol%20AND%20human%5Bmh%5D%20AND%20%28Occupational%20Diseases%20%5Bmh%5D%20OR%20Occupational%20Exposure%20%5Bmh%5D%29%20%20AND%20%28tox%5Bsb%5D%29&cmd=search"
    },
    {
      "text": "Solvents, acute toxic effect",
      "url": "https://haz-map.com/Diseases/326"
    }
  ]
}