{
  "metadata": {
    "scraped_from": "https://haz-map.com/Agents/15619",
    "entity_name": "Methylphosphonyl difluoride",
    "category": "agents",
    "uuid": "f57ea5e8-5815-40c5-a188-fc87d58cba08",
    "scraped_at": "2025-07-23T21:31:07.625554"
  },
  "parsed_at": "2025-07-24T01:10:22.970122",
  "title": "Methylphosphonyl difluoride",
  "sections": {
    "general": {
      "agent_name": {
        "original_name": "Agent Name",
        "value": "Methylphosphonyl difluoride",
        "links": [],
        "cross_references": [
          {
            "type": "name_match",
            "text": "methylphosphonyl difluoride",
            "confidence": 1.0,
            "uuid": "f57ea5e8-5815-40c5-a188-fc87d58cba08",
            "name": "Methylphosphonyl difluoride",
            "url": "https://haz-map.com/Agents/15619",
            "category": "agents"
          }
        ]
      },
      "cas_number": {
        "original_name": "CAS Number",
        "value": "676-99-3",
        "links": [],
        "cross_references": []
      },
      "formula": {
        "original_name": "Formula",
        "value": "C-H3-F2-O-P",
        "links": [],
        "cross_references": []
      },
      "major_category": {
        "original_name": "Major Category",
        "value": "Toxic Gases & Vapors",
        "links": [],
        "cross_references": []
      },
      "synonyms": {
        "original_name": "Synonyms",
        "value": "DF; Difluoro; Difluoromethylphosphine oxide; Methyl difluorophosphite; Methylphosphonic difluoride; Methylphosphonyldifluoride; Phosphonodifluoridic acid, methyl-; Phosphonic difluoride, P-methyl-; Phosphonic difluoride, methyl-; [ChemIDplus] Agent DF; Difluor; [HSDB]",
        "links": [],
        "cross_references": [
          {
            "type": "name_match",
            "text": "phosphine",
            "confidence": 1.0,
            "uuid": "b9783685-a2f4-44ef-8b65-6c1ab72fbfde",
            "name": "Phosphine",
            "url": "https://haz-map.com/Agents/74",
            "category": "agents"
          },
          {
            "type": "name_match",
            "text": "phosphonic difluoride",
            "confidence": 1.0,
            "uuid": "4d859d39-fa90-49ea-ab75-95be41fa686a",
            "name": "Phosphonic difluoride",
            "url": "https://haz-map.com/Agents/6682",
            "category": "agents"
          },
          {
            "type": "name_match",
            "text": "phosphine oxide",
            "confidence": 1.0,
            "uuid": "40bd4350-9947-43ef-9dcc-388ee0a52680",
            "name": "Phosphine oxide",
            "url": "https://haz-map.com/Agents/16591",
            "category": "agents"
          }
        ]
      },
      "category": {
        "original_name": "Category",
        "value": "Chemical Weapons",
        "links": [],
        "cross_references": [
          {
            "type": "name_match",
            "text": "mica",
            "confidence": 1.0,
            "uuid": "433f26f1-c399-4596-b179-ce3843cfd465",
            "name": "Mica",
            "url": "https://haz-map.com/Agents/621",
            "category": "agents"
          }
        ]
      },
      "description": {
        "original_name": "Description",
        "value": "Liquid with a pungent acrid odor; [HSDB]",
        "links": [],
        "cross_references": []
      },
      "sourcesuses": {
        "original_name": "Sources/Uses",
        "value": "Used to make 'G' series nerve agents (i.e. sarin and soman) and as a component of GB2 (binary nerve agent); [HSDB]",
        "links": [],
        "cross_references": [
          {
            "type": "name_match",
            "text": "sarin",
            "confidence": 1.0,
            "uuid": "0b2477bd-5683-4fa1-a959-0f0b278d6300",
            "name": "Sarin",
            "url": "https://haz-map.com/Agents/1452",
            "category": "agents"
          },
          {
            "type": "name_match",
            "text": "soman",
            "confidence": 1.0,
            "uuid": "7ba8fa7c-eb4e-45ad-bde5-5365fd12f0ae",
            "name": "Soman",
            "url": "https://haz-map.com/Agents/1453",
            "category": "agents"
          }
        ]
      },
      "comments": {
        "original_name": "Comments",
        "value": "Causes cyanosis, dehydration, other changes in olfaction, aggression, dyspnea, muscle weakness, and ataxia in acute inhalation studies of mammals; [RTECS] See \"Methylphosphonofluoridic acid.\" See \"Phosphonic difluoride.\"",
        "links": [],
        "cross_references": [
          {
            "type": "name_match",
            "text": "weakness",
            "confidence": 1.0,
            "uuid": "44bfccd5-0f7a-48f7-b4eb-de9a6ef23064",
            "name": "weakness",
            "url": "https://haz-map.com/Findings/83",
            "category": "findings"
          },
          {
            "type": "name_match",
            "text": "phosphonic difluoride",
            "confidence": 1.0,
            "uuid": "4d859d39-fa90-49ea-ab75-95be41fa686a",
            "name": "Phosphonic difluoride",
            "url": "https://haz-map.com/Agents/6682",
            "category": "agents"
          },
          {
            "type": "name_match",
            "text": "methylphosphonofluoridic acid",
            "confidence": 1.0,
            "uuid": "095267f3-5add-433e-a97e-abe26122d944",
            "name": "Methylphosphonofluoridic acid",
            "url": "https://haz-map.com/Agents/15620",
            "category": "agents"
          }
        ]
      },
      "biomedical_references": {
        "original_name": "Biomedical References",
        "value": "Search PubMed",
        "links": [
          {
            "text": "Search PubMed",
            "url": "https://www.ncbi.nlm.nih.gov/pubmed?term=Methylphosphonyl+difluoride%20AND%20human%5Bmh%5D%20AND%20%28Occupational%20Diseases%20%5Bmh%5D%20OR%20Occupational%20Exposure%20%5Bmh%5D%29%20%20AND%20%28tox%5Bsb%5D%29&cmd=search"
          }
        ],
        "cross_references": []
      }
    },
    "exposure_assessment": {
      "vapor_pressure": {
        "original_name": "Vapor Pressure",
        "value": "36 mm Hg",
        "links": [],
        "cross_references": []
      },
      "lethal_concentration": {
        "original_name": "Lethal Concentration",
        "value": "LCLo (rat) = 1,842 mg/m3/30min",
        "links": [],
        "cross_references": []
      }
    },
    "diseases_processes_and_activities_linked_to_this_agent": {
      "other_information": {
        "original_name": "Other Information",
        "value": "No other related information on this agent was found.",
        "links": [],
        "cross_references": []
      }
    }
  },
  "cross_references": [
    {
      "type": "name_match",
      "text": "weakness",
      "confidence": 1.0,
      "uuid": "44bfccd5-0f7a-48f7-b4eb-de9a6ef23064",
      "name": "weakness",
      "url": "https://haz-map.com/Findings/83",
      "category": "findings"
    },
    {
      "type": "name_match",
      "text": "phosphine",
      "confidence": 1.0,
      "uuid": "b9783685-a2f4-44ef-8b65-6c1ab72fbfde",
      "name": "Phosphine",
      "url": "https://haz-map.com/Agents/74",
      "category": "agents"
    },
    {
      "type": "name_match",
      "text": "mica",
      "confidence": 1.0,
      "uuid": "433f26f1-c399-4596-b179-ce3843cfd465",
      "name": "Mica",
      "url": "https://haz-map.com/Agents/621",
      "category": "agents"
    },
    {
      "type": "name_match",
      "text": "sarin",
      "confidence": 1.0,
      "uuid": "0b2477bd-5683-4fa1-a959-0f0b278d6300",
      "name": "Sarin",
      "url": "https://haz-map.com/Agents/1452",
      "category": "agents"
    },
    {
      "type": "name_match",
      "text": "soman",
      "confidence": 1.0,
      "uuid": "7ba8fa7c-eb4e-45ad-bde5-5365fd12f0ae",
      "name": "Soman",
      "url": "https://haz-map.com/Agents/1453",
      "category": "agents"
    },
    {
      "type": "name_match",
      "text": "phosphonic difluoride",
      "confidence": 1.0,
      "uuid": "4d859d39-fa90-49ea-ab75-95be41fa686a",
      "name": "Phosphonic difluoride",
      "url": "https://haz-map.com/Agents/6682",
      "category": "agents"
    },
    {
      "type": "name_match",
      "text": "methylphosphonyl difluoride",
      "confidence": 1.0,
      "uuid": "f57ea5e8-5815-40c5-a188-fc87d58cba08",
      "name": "Methylphosphonyl difluoride",
      "url": "https://haz-map.com/Agents/15619",
      "category": "agents"
    },
    {
      "type": "name_match",
      "text": "methylphosphonofluoridic acid",
      "confidence": 1.0,
      "uuid": "095267f3-5add-433e-a97e-abe26122d944",
      "name": "Methylphosphonofluoridic acid",
      "url": "https://haz-map.com/Agents/15620",
      "category": "agents"
    },
    {
      "type": "name_match",
      "text": "phosphine oxide",
      "confidence": 1.0,
      "uuid": "40bd4350-9947-43ef-9dcc-388ee0a52680",
      "name": "Phosphine oxide",
      "url": "https://haz-map.com/Agents/16591",
      "category": "agents"
    }
  ],
  "all_links": [
    {
      "text": "Search PubMed",
      "url": "https://www.ncbi.nlm.nih.gov/pubmed?term=Methylphosphonyl+difluoride%20AND%20human%5Bmh%5D%20AND%20%28Occupational%20Diseases%20%5Bmh%5D%20OR%20Occupational%20Exposure%20%5Bmh%5D%29%20%20AND%20%28tox%5Bsb%5D%29&cmd=search"
    }
  ]
}