{
  "metadata": {
    "scraped_from": "https://haz-map.com/Agents/19297",
    "entity_name": "1,6-Hexanediol dimethacrylate",
    "category": "agents",
    "uuid": "f5b7d4bc-623f-4608-99bd-d1ce82d432e1",
    "scraped_at": "2025-07-23T22:03:14.525887"
  },
  "parsed_at": "2025-07-24T01:06:58.889882",
  "title": "1,6-Hexanediol dimethacrylate",
  "sections": {
    "general": {
      "agent_name": {
        "original_name": "Agent Name",
        "value": "1,6-Hexanediol dimethacrylate",
        "links": [],
        "cross_references": [
          {
            "type": "name_match",
            "text": "1,6-hexanediol",
            "confidence": 1.0,
            "uuid": "4d481266-ad07-487e-978f-4c80668ec8e7",
            "name": "1,6-Hexanediol",
            "url": "https://haz-map.com/Agents/7930",
            "category": "agents"
          },
          {
            "type": "name_match",
            "text": "1,6-hexanediol dimethacrylate",
            "confidence": 1.0,
            "uuid": "f5b7d4bc-623f-4608-99bd-d1ce82d432e1",
            "name": "1,6-Hexanediol dimethacrylate",
            "url": "https://haz-map.com/Agents/19297",
            "category": "agents"
          }
        ]
      },
      "cas_number": {
        "original_name": "CAS Number",
        "value": "6606-59-3",
        "links": [],
        "cross_references": []
      },
      "formula": {
        "original_name": "Formula",
        "value": "C14-H22-O4",
        "links": [],
        "cross_references": []
      },
      "major_category": {
        "original_name": "Major Category",
        "value": "Plastics & Rubber",
        "links": [],
        "cross_references": []
      },
      "synonyms": {
        "original_name": "Synonyms",
        "value": "1,6-Hexanediyl bismethacrylate; 2-Propenoic acid, 2-methyl-, 1,1'-(1,6-hexanediyl) ester; 2-Propenoic acid, 2-methyl-, 1,6-hexanediyl ester; [ChemIDplus]",
        "links": [],
        "cross_references": []
      },
      "category": {
        "original_name": "Category",
        "value": "(Meth)acrylates",
        "links": [],
        "cross_references": []
      },
      "description": {
        "original_name": "Description",
        "value": "Clear light yellow liquid with an unpleasant odor; [Sigma-Aldrich MSDS]",
        "links": [],
        "cross_references": [
          {
            "type": "name_match",
            "text": "ht",
            "confidence": 1.0,
            "uuid": "764df367-8d53-4a11-81a2-31ccfe122a8d",
            "name": "HT",
            "url": "https://haz-map.com/Agents/2168",
            "category": "agents"
          }
        ]
      },
      "comments": {
        "original_name": "Comments",
        "value": "An irritant; [Sigma-Aldrich MSDS] See \"Triethylene glycol dimethacrylate\" and \"1,4-Butanediol dimethacrylate.\" See \"ACRYLIC RESINS (MONOMERS).\"",
        "links": [],
        "cross_references": [
          {
            "type": "name_match",
            "text": "ethylene glycol",
            "confidence": 1.0,
            "uuid": "99589035-d71c-415a-914c-81c7a166be11",
            "name": "Ethylene glycol",
            "url": "https://haz-map.com/Agents/488",
            "category": "agents"
          },
          {
            "type": "name_match",
            "text": "acrylic resins (monomers)",
            "confidence": 1.0,
            "uuid": "602c61a5-dc0b-412e-bc40-98ecfee92bc4",
            "name": "ACRYLIC RESINS (MONOMERS)",
            "url": "https://haz-map.com/Agents/1006",
            "category": "agents"
          },
          {
            "type": "name_match",
            "text": "ethylene",
            "confidence": 1.0,
            "uuid": "958eacc0-5135-4b62-bb93-6df972bf552f",
            "name": "Ethylene",
            "url": "https://haz-map.com/Agents/1076",
            "category": "agents"
          },
          {
            "type": "name_match",
            "text": "1,4-butanediol dimethacrylate",
            "confidence": 1.0,
            "uuid": "7ca6d4c6-3fcd-4ba4-86d2-20f64b3f33a7",
            "name": "1,4-Butanediol dimethacrylate",
            "url": "https://haz-map.com/Agents/1248",
            "category": "agents"
          },
          {
            "type": "name_match",
            "text": "ethylene glycol dimethacrylate",
            "confidence": 1.0,
            "uuid": "635349fa-c81f-421f-ab55-8ea9393efca2",
            "name": "Ethylene glycol dimethacrylate",
            "url": "https://haz-map.com/Agents/1249",
            "category": "agents"
          },
          {
            "type": "name_match",
            "text": "triethylene glycol dimethacrylate",
            "confidence": 1.0,
            "uuid": "aa943d57-e33d-4fa6-b22d-11f67b97d3f6",
            "name": "Triethylene glycol dimethacrylate",
            "url": "https://haz-map.com/Agents/1255",
            "category": "agents"
          },
          {
            "type": "name_match",
            "text": "1,4-butanediol",
            "confidence": 1.0,
            "uuid": "4fcfde27-fcb1-4332-a2e4-017c95271f10",
            "name": "1,4-Butanediol",
            "url": "https://haz-map.com/Agents/2812",
            "category": "agents"
          },
          {
            "type": "name_match",
            "text": "triethylene glycol",
            "confidence": 1.0,
            "uuid": "d663b8c5-8e07-4966-958a-ce0f5e532bd0",
            "name": "Triethylene glycol",
            "url": "https://haz-map.com/Agents/7567",
            "category": "agents"
          },
          {
            "type": "name_match",
            "text": "butanediol",
            "confidence": 1.0,
            "uuid": "4503a08d-7604-45cb-97d3-9fc34b6475f6",
            "name": "Butanediol",
            "url": "https://haz-map.com/Agents/12518",
            "category": "agents"
          }
        ]
      },
      "biomedical_references": {
        "original_name": "Biomedical References",
        "value": "Search PubMed",
        "links": [
          {
            "text": "Search PubMed",
            "url": "https://www.ncbi.nlm.nih.gov/pubmed?term=1%2c6-Hexanediol+dimethacrylate%20AND%20human%5Bmh%5D%20AND%20%28Occupational%20Diseases%20%5Bmh%5D%20OR%20Occupational%20Exposure%20%5Bmh%5D%29%20%20AND%20%28tox%5Bsb%5D%29&cmd=search"
          }
        ],
        "cross_references": []
      }
    },
    "exposure_assessment": {
      "explanatory_notes": {
        "original_name": "Explanatory Notes",
        "value": "Vapor pressure = 0.02 mm Hg at 100 deg C; [Sigma-Aldrich MSDS]",
        "links": [],
        "cross_references": []
      }
    },
    "adverse_effects": {
      "skin_sensitizer": {
        "original_name": "Skin Sensitizer",
        "value": "Yes",
        "links": [],
        "cross_references": []
      }
    },
    "diseases_processes_and_activities_linked_to_this_agent": {
      "diseases": {
        "original_name": "Diseases",
        "value": "Occupational diseases associated with exposure to this agent: Contact dermatitis, allergic",
        "links": [
          {
            "text": "Contact dermatitis, allergic",
            "url": "https://haz-map.com/Diseases/18"
          }
        ],
        "cross_references": [
          {
            "type": "url_match",
            "text": "Contact dermatitis, allergic",
            "url": "https://haz-map.com/Diseases/18",
            "confidence": 1.0,
            "uuid": "c9499de0-9aa1-41bf-8753-cd5b28a63e29",
            "name": "Contact dermatitis, allergic",
            "category": "diseases"
          },
          {
            "type": "name_match",
            "text": "dermatitis",
            "confidence": 1.0,
            "uuid": "fe9c05f2-b19f-4ceb-ac7a-ffb7d7a0cae0",
            "name": "dermatitis",
            "url": "https://haz-map.com/Findings/59",
            "category": "findings"
          }
        ]
      }
    }
  },
  "cross_references": [
    {
      "type": "url_match",
      "text": "Contact dermatitis, allergic",
      "url": "https://haz-map.com/Diseases/18",
      "confidence": 1.0,
      "uuid": "c9499de0-9aa1-41bf-8753-cd5b28a63e29",
      "name": "Contact dermatitis, allergic",
      "category": "diseases"
    },
    {
      "type": "name_match",
      "text": "dermatitis",
      "confidence": 1.0,
      "uuid": "fe9c05f2-b19f-4ceb-ac7a-ffb7d7a0cae0",
      "name": "dermatitis",
      "url": "https://haz-map.com/Findings/59",
      "category": "findings"
    },
    {
      "type": "name_match",
      "text": "ethylene glycol",
      "confidence": 1.0,
      "uuid": "99589035-d71c-415a-914c-81c7a166be11",
      "name": "Ethylene glycol",
      "url": "https://haz-map.com/Agents/488",
      "category": "agents"
    },
    {
      "type": "name_match",
      "text": "acrylic resins (monomers)",
      "confidence": 1.0,
      "uuid": "602c61a5-dc0b-412e-bc40-98ecfee92bc4",
      "name": "ACRYLIC RESINS (MONOMERS)",
      "url": "https://haz-map.com/Agents/1006",
      "category": "agents"
    },
    {
      "type": "name_match",
      "text": "ethylene",
      "confidence": 1.0,
      "uuid": "958eacc0-5135-4b62-bb93-6df972bf552f",
      "name": "Ethylene",
      "url": "https://haz-map.com/Agents/1076",
      "category": "agents"
    },
    {
      "type": "name_match",
      "text": "1,4-butanediol dimethacrylate",
      "confidence": 1.0,
      "uuid": "7ca6d4c6-3fcd-4ba4-86d2-20f64b3f33a7",
      "name": "1,4-Butanediol dimethacrylate",
      "url": "https://haz-map.com/Agents/1248",
      "category": "agents"
    },
    {
      "type": "name_match",
      "text": "ethylene glycol dimethacrylate",
      "confidence": 1.0,
      "uuid": "635349fa-c81f-421f-ab55-8ea9393efca2",
      "name": "Ethylene glycol dimethacrylate",
      "url": "https://haz-map.com/Agents/1249",
      "category": "agents"
    },
    {
      "type": "name_match",
      "text": "triethylene glycol dimethacrylate",
      "confidence": 1.0,
      "uuid": "aa943d57-e33d-4fa6-b22d-11f67b97d3f6",
      "name": "Triethylene glycol dimethacrylate",
      "url": "https://haz-map.com/Agents/1255",
      "category": "agents"
    },
    {
      "type": "name_match",
      "text": "ht",
      "confidence": 1.0,
      "uuid": "764df367-8d53-4a11-81a2-31ccfe122a8d",
      "name": "HT",
      "url": "https://haz-map.com/Agents/2168",
      "category": "agents"
    },
    {
      "type": "name_match",
      "text": "1,4-butanediol",
      "confidence": 1.0,
      "uuid": "4fcfde27-fcb1-4332-a2e4-017c95271f10",
      "name": "1,4-Butanediol",
      "url": "https://haz-map.com/Agents/2812",
      "category": "agents"
    },
    {
      "type": "name_match",
      "text": "triethylene glycol",
      "confidence": 1.0,
      "uuid": "d663b8c5-8e07-4966-958a-ce0f5e532bd0",
      "name": "Triethylene glycol",
      "url": "https://haz-map.com/Agents/7567",
      "category": "agents"
    },
    {
      "type": "name_match",
      "text": "1,6-hexanediol",
      "confidence": 1.0,
      "uuid": "4d481266-ad07-487e-978f-4c80668ec8e7",
      "name": "1,6-Hexanediol",
      "url": "https://haz-map.com/Agents/7930",
      "category": "agents"
    },
    {
      "type": "name_match",
      "text": "butanediol",
      "confidence": 1.0,
      "uuid": "4503a08d-7604-45cb-97d3-9fc34b6475f6",
      "name": "Butanediol",
      "url": "https://haz-map.com/Agents/12518",
      "category": "agents"
    },
    {
      "type": "name_match",
      "text": "1,6-hexanediol dimethacrylate",
      "confidence": 1.0,
      "uuid": "f5b7d4bc-623f-4608-99bd-d1ce82d432e1",
      "name": "1,6-Hexanediol dimethacrylate",
      "url": "https://haz-map.com/Agents/19297",
      "category": "agents"
    }
  ],
  "all_links": [
    {
      "text": "Search PubMed",
      "url": "https://www.ncbi.nlm.nih.gov/pubmed?term=1%2c6-Hexanediol+dimethacrylate%20AND%20human%5Bmh%5D%20AND%20%28Occupational%20Diseases%20%5Bmh%5D%20OR%20Occupational%20Exposure%20%5Bmh%5D%29%20%20AND%20%28tox%5Bsb%5D%29&cmd=search"
    },
    {
      "text": "Contact dermatitis, allergic",
      "url": "https://haz-map.com/Diseases/18"
    }
  ]
}