{
  "metadata": {
    "scraped_from": "https://haz-map.com/Agents/5496",
    "entity_name": "Heptachlorodibenzo-p-dioxin",
    "category": "agents",
    "uuid": "f5eb4331-28d2-4b85-8b6e-272a049ad40f",
    "scraped_at": "2025-07-23T19:53:02.665912"
  },
  "parsed_at": "2025-07-24T01:01:56.414392",
  "title": "Heptachlorodibenzo-p-dioxin",
  "sections": {
    "general": {
      "agent_name": {
        "original_name": "Agent Name",
        "value": "Heptachlorodibenzo-p-dioxin",
        "links": [],
        "cross_references": [
          {
            "type": "name_match",
            "text": "heptachlor",
            "confidence": 1.0,
            "uuid": "ded5ea83-1b52-45d6-b4c5-1cc7e4d64ece",
            "name": "Heptachlor",
            "url": "https://haz-map.com/Agents/236",
            "category": "agents"
          },
          {
            "type": "name_match",
            "text": "dibenzo-p-dioxin",
            "confidence": 1.0,
            "uuid": "8bc7b9fd-d722-4be5-af1b-a8c4db467174",
            "name": "Dibenzo-p-dioxin",
            "url": "https://haz-map.com/Agents/4729",
            "category": "agents"
          },
          {
            "type": "name_match",
            "text": "heptachlorodibenzo-p-dioxin",
            "confidence": 1.0,
            "uuid": "f5eb4331-28d2-4b85-8b6e-272a049ad40f",
            "name": "Heptachlorodibenzo-p-dioxin",
            "url": "https://haz-map.com/Agents/5496",
            "category": "agents"
          }
        ]
      },
      "cas_number": {
        "original_name": "CAS Number",
        "value": "35822-46-9",
        "links": [],
        "cross_references": []
      },
      "formula": {
        "original_name": "Formula",
        "value": "C12-H-Cl7-O2",
        "links": [],
        "cross_references": []
      },
      "major_category": {
        "original_name": "Major Category",
        "value": "Other Classes",
        "links": [],
        "cross_references": []
      },
      "synonyms": {
        "original_name": "Synonyms",
        "value": "1,2,3,4,6,7,8-Heptachlorodibenzo-p-dioxin; 1,2,3,4,6,7,8-Heptachlorodibenzo-para-dioxin; 1,2,3,4,6,7,8-Heptachlorodibenzodioxin; 1,2,3,4,6,7,8-Heptapolychlorinated dibenzo-p-dioxin; Dibenzo(b,e)(1,4)dioxin, 1,2,3,4,6,7,8-heptachloro-; 1,2,3,4,6,7,8-Heptachlorodibenzo(b,e)(1,4)dioxin; [ChemIDplus] UN2811",
        "links": [],
        "cross_references": [
          {
            "type": "name_match",
            "text": "heptachlor",
            "confidence": 1.0,
            "uuid": "ded5ea83-1b52-45d6-b4c5-1cc7e4d64ece",
            "name": "Heptachlor",
            "url": "https://haz-map.com/Agents/236",
            "category": "agents"
          },
          {
            "type": "name_match",
            "text": "dibenzo-p-dioxin",
            "confidence": 1.0,
            "uuid": "8bc7b9fd-d722-4be5-af1b-a8c4db467174",
            "name": "Dibenzo-p-dioxin",
            "url": "https://haz-map.com/Agents/4729",
            "category": "agents"
          },
          {
            "type": "name_match",
            "text": "heptachlorodibenzo-p-dioxin",
            "confidence": 1.0,
            "uuid": "f5eb4331-28d2-4b85-8b6e-272a049ad40f",
            "name": "Heptachlorodibenzo-p-dioxin",
            "url": "https://haz-map.com/Agents/5496",
            "category": "agents"
          },
          {
            "type": "name_match",
            "text": "chlorin",
            "confidence": 1.0,
            "uuid": "4a566fec-ec7e-42b0-9f14-ec586335e694",
            "name": "Chlorin",
            "url": "https://haz-map.com/Agents/20422",
            "category": "agents"
          }
        ]
      },
      "category": {
        "original_name": "Category",
        "value": "Halogenated Polyaromatics",
        "links": [],
        "cross_references": []
      },
      "description": {
        "original_name": "Description",
        "value": "Off-white solid; [CAMEO] White crystalline solid; [MSDSonline]",
        "links": [],
        "cross_references": [
          {
            "type": "fuzzy_match",
            "text": "crystalline",
            "matched_name": "Silica, crystalline",
            "confidence": 0.7061403508771931,
            "uuid": "f920e8a2-46df-41b7-af8d-0368a777251e",
            "category": "agents",
            "url": "https://haz-map.com/Agents/427"
          }
        ]
      },
      "sourcesuses": {
        "original_name": "Sources/Uses",
        "value": "Contaminant of pentachlorophenol; [ChemIDplus]",
        "links": [],
        "cross_references": [
          {
            "type": "name_match",
            "text": "pentachlorophenol",
            "confidence": 1.0,
            "uuid": "932cef10-2ea1-446c-8acd-cf572d61731b",
            "name": "Pentachlorophenol",
            "url": "https://haz-map.com/Agents/36",
            "category": "agents"
          },
          {
            "type": "name_match",
            "text": "phenol",
            "confidence": 1.0,
            "uuid": "03141a03-a7df-4f51-9a37-adde1a7c4b31",
            "name": "Phenol",
            "url": "https://haz-map.com/Agents/84",
            "category": "agents"
          }
        ]
      },
      "comments": {
        "original_name": "Comments",
        "value": "May cause chloracne; [HSDB] An eye irritant; Can be absorbed through skin; May cause chloracne and liver injury; [CAMEO] See \"Dibenzo-p-dioxin\" and \"2,3,7,8-Tetrachlorodibenzo-p-dioxin.\"",
        "links": [],
        "cross_references": [
          {
            "type": "name_match",
            "text": "chloracne",
            "confidence": 1.0,
            "uuid": "5bb01810-1c34-450f-986e-26a644748ce8",
            "name": "Chloracne",
            "url": "https://haz-map.com/Diseases/215",
            "category": "diseases"
          },
          {
            "type": "name_match",
            "text": "acne",
            "confidence": 1.0,
            "uuid": "f329eccb-9e30-4782-83cb-36dfe9817bbf",
            "name": "acne",
            "url": "https://haz-map.com/Findings/133",
            "category": "findings"
          },
          {
            "type": "name_match",
            "text": "2,3,7,8-tetrachlorodibenzo-p-dioxin",
            "confidence": 1.0,
            "uuid": "163dd479-9e9d-4fe3-87bc-9bb274c69bc1",
            "name": "2,3,7,8-Tetrachlorodibenzo-p-dioxin",
            "url": "https://haz-map.com/Agents/431",
            "category": "agents"
          },
          {
            "type": "name_match",
            "text": "dibenzo-p-dioxin",
            "confidence": 1.0,
            "uuid": "8bc7b9fd-d722-4be5-af1b-a8c4db467174",
            "name": "Dibenzo-p-dioxin",
            "url": "https://haz-map.com/Agents/4729",
            "category": "agents"
          },
          {
            "type": "name_match",
            "text": "tetrachlorodibenzo-p-dioxin",
            "confidence": 1.0,
            "uuid": "c540fc3f-af1e-43e1-a7ed-a72d9c5877b5",
            "name": "Tetrachlorodibenzo-p-dioxin",
            "url": "https://haz-map.com/Agents/7336",
            "category": "agents"
          }
        ]
      },
      "biomedical_references": {
        "original_name": "Biomedical References",
        "value": "Search PubMed",
        "links": [
          {
            "text": "Search PubMed",
            "url": "https://www.ncbi.nlm.nih.gov/pubmed?term=Heptachlorodibenzo-p-dioxin%20AND%20human%5Bmh%5D%20AND%20%28Occupational%20Diseases%20%5Bmh%5D%20OR%20Occupational%20Exposure%20%5Bmh%5D%29%20%20AND%20%28tox%5Bsb%5D%29&cmd=search"
          }
        ],
        "cross_references": []
      }
    },
    "exposure_assessment": {
      "vapor_pressure": {
        "original_name": "Vapor Pressure",
        "value": "7.5E-10 mm Hg",
        "links": [],
        "cross_references": []
      },
      "explanatory_notes": {
        "original_name": "Explanatory Notes",
        "value": "The Guide in the Emergency Response Guidebook is for \"Toxic solid, organic, n.o.s.\"",
        "links": [],
        "cross_references": []
      }
    },
    "adverse_effects": {
      "hepatotoxin": {
        "original_name": "Hepatotoxin",
        "value": "Hepatoxic (a) from occupational exposure (secondary effect) or (b) in animal studies or in humans after ingestion",
        "links": [],
        "cross_references": []
      },
      "dermatotoxin": {
        "original_name": "Dermatotoxin",
        "value": "Chloracne",
        "links": [],
        "cross_references": [
          {
            "type": "name_match",
            "text": "chloracne",
            "confidence": 1.0,
            "uuid": "5bb01810-1c34-450f-986e-26a644748ce8",
            "name": "Chloracne",
            "url": "https://haz-map.com/Diseases/215",
            "category": "diseases"
          },
          {
            "type": "name_match",
            "text": "acne",
            "confidence": 1.0,
            "uuid": "f329eccb-9e30-4782-83cb-36dfe9817bbf",
            "name": "acne",
            "url": "https://haz-map.com/Findings/133",
            "category": "findings"
          }
        ]
      }
    },
    "diseases_processes_and_activities_linked_to_this_agent": {
      "diseases": {
        "original_name": "Diseases",
        "value": "Occupational diseases associated with exposure to this agent: Chloracne",
        "links": [
          {
            "text": "Chloracne",
            "url": "https://haz-map.com/Diseases/215"
          }
        ],
        "cross_references": [
          {
            "type": "url_match",
            "text": "Chloracne",
            "url": "https://haz-map.com/Diseases/215",
            "confidence": 1.0,
            "uuid": "5bb01810-1c34-450f-986e-26a644748ce8",
            "name": "Chloracne",
            "category": "diseases"
          },
          {
            "type": "name_match",
            "text": "acne",
            "confidence": 1.0,
            "uuid": "f329eccb-9e30-4782-83cb-36dfe9817bbf",
            "name": "acne",
            "url": "https://haz-map.com/Findings/133",
            "category": "findings"
          }
        ]
      }
    }
  },
  "cross_references": [
    {
      "type": "url_match",
      "text": "Chloracne",
      "url": "https://haz-map.com/Diseases/215",
      "confidence": 1.0,
      "uuid": "5bb01810-1c34-450f-986e-26a644748ce8",
      "name": "Chloracne",
      "category": "diseases"
    },
    {
      "type": "name_match",
      "text": "acne",
      "confidence": 1.0,
      "uuid": "f329eccb-9e30-4782-83cb-36dfe9817bbf",
      "name": "acne",
      "url": "https://haz-map.com/Findings/133",
      "category": "findings"
    },
    {
      "type": "name_match",
      "text": "pentachlorophenol",
      "confidence": 1.0,
      "uuid": "932cef10-2ea1-446c-8acd-cf572d61731b",
      "name": "Pentachlorophenol",
      "url": "https://haz-map.com/Agents/36",
      "category": "agents"
    },
    {
      "type": "name_match",
      "text": "phenol",
      "confidence": 1.0,
      "uuid": "03141a03-a7df-4f51-9a37-adde1a7c4b31",
      "name": "Phenol",
      "url": "https://haz-map.com/Agents/84",
      "category": "agents"
    },
    {
      "type": "name_match",
      "text": "heptachlor",
      "confidence": 1.0,
      "uuid": "ded5ea83-1b52-45d6-b4c5-1cc7e4d64ece",
      "name": "Heptachlor",
      "url": "https://haz-map.com/Agents/236",
      "category": "agents"
    },
    {
      "type": "name_match",
      "text": "2,3,7,8-tetrachlorodibenzo-p-dioxin",
      "confidence": 1.0,
      "uuid": "163dd479-9e9d-4fe3-87bc-9bb274c69bc1",
      "name": "2,3,7,8-Tetrachlorodibenzo-p-dioxin",
      "url": "https://haz-map.com/Agents/431",
      "category": "agents"
    },
    {
      "type": "name_match",
      "text": "dibenzo-p-dioxin",
      "confidence": 1.0,
      "uuid": "8bc7b9fd-d722-4be5-af1b-a8c4db467174",
      "name": "Dibenzo-p-dioxin",
      "url": "https://haz-map.com/Agents/4729",
      "category": "agents"
    },
    {
      "type": "name_match",
      "text": "heptachlorodibenzo-p-dioxin",
      "confidence": 1.0,
      "uuid": "f5eb4331-28d2-4b85-8b6e-272a049ad40f",
      "name": "Heptachlorodibenzo-p-dioxin",
      "url": "https://haz-map.com/Agents/5496",
      "category": "agents"
    },
    {
      "type": "name_match",
      "text": "tetrachlorodibenzo-p-dioxin",
      "confidence": 1.0,
      "uuid": "c540fc3f-af1e-43e1-a7ed-a72d9c5877b5",
      "name": "Tetrachlorodibenzo-p-dioxin",
      "url": "https://haz-map.com/Agents/7336",
      "category": "agents"
    },
    {
      "type": "name_match",
      "text": "chlorin",
      "confidence": 1.0,
      "uuid": "4a566fec-ec7e-42b0-9f14-ec586335e694",
      "name": "Chlorin",
      "url": "https://haz-map.com/Agents/20422",
      "category": "agents"
    },
    {
      "type": "fuzzy_match",
      "text": "crystalline",
      "matched_name": "Silica, crystalline",
      "confidence": 0.7061403508771931,
      "uuid": "f920e8a2-46df-41b7-af8d-0368a777251e",
      "category": "agents",
      "url": "https://haz-map.com/Agents/427"
    }
  ],
  "all_links": [
    {
      "text": "Search PubMed",
      "url": "https://www.ncbi.nlm.nih.gov/pubmed?term=Heptachlorodibenzo-p-dioxin%20AND%20human%5Bmh%5D%20AND%20%28Occupational%20Diseases%20%5Bmh%5D%20OR%20Occupational%20Exposure%20%5Bmh%5D%29%20%20AND%20%28tox%5Bsb%5D%29&cmd=search"
    },
    {
      "text": "Chloracne",
      "url": "https://haz-map.com/Diseases/215"
    }
  ]
}