{
  "metadata": {
    "scraped_from": "https://haz-map.com/Agents/18155",
    "entity_name": "Tricaprylin",
    "category": "agents",
    "uuid": "f6512e14-48ba-401e-89cd-6b3544569586",
    "scraped_at": "2025-07-23T21:53:24.162155"
  },
  "parsed_at": "2025-07-24T01:16:31.731429",
  "title": "Tricaprylin",
  "sections": {
    "general": {
      "agent_name": {
        "original_name": "Agent Name",
        "value": "Tricaprylin",
        "links": [],
        "cross_references": [
          {
            "type": "name_match",
            "text": "tricaprylin",
            "confidence": 1.0,
            "uuid": "f6512e14-48ba-401e-89cd-6b3544569586",
            "name": "Tricaprylin",
            "url": "https://haz-map.com/Agents/18155",
            "category": "agents"
          }
        ]
      },
      "cas_number": {
        "original_name": "CAS Number",
        "value": "538-23-8",
        "links": [],
        "cross_references": []
      },
      "formula": {
        "original_name": "Formula",
        "value": "C27-H50-O6",
        "links": [],
        "cross_references": []
      },
      "major_category": {
        "original_name": "Major Category",
        "value": "Biological Agents",
        "links": [],
        "cross_references": []
      },
      "synonyms": {
        "original_name": "Synonyms",
        "value": "1,2,3-Propanetriol trioctanoate; Caprylic acid, 1,2,3-propanetriyl ester; Octanoic acid, 1,1',1''-(1,2,3-propanetriyl) ester; Propane-1,2,3-triyl trioctanoate; Trioctanoin; Octanoin, tri-; Caprylic acid triglyceride; Caprylin; Glycerol tricaprylate; Glycerol trioctanoate; Glyceryl trioctanoate; Maceight; Octanoic acid triglyceride; Octanoic acid, 1,2,3-propanetriyl ester; Panacete 800; RATO; Sefsol 800; Tricaprilin; Tricaprylic glyceride; Trioctanoin oil; Trioctanoylglycerol; [ChemIDplus]",
        "links": [],
        "cross_references": [
          {
            "type": "name_match",
            "text": "propane",
            "confidence": 1.0,
            "uuid": "563a611b-46ea-4bdc-b77b-17d8f7646283",
            "name": "Propane",
            "url": "https://haz-map.com/Agents/607",
            "category": "agents"
          },
          {
            "type": "name_match",
            "text": "ht",
            "confidence": 1.0,
            "uuid": "764df367-8d53-4a11-81a2-31ccfe122a8d",
            "name": "HT",
            "url": "https://haz-map.com/Agents/2168",
            "category": "agents"
          },
          {
            "type": "name_match",
            "text": "octanoic acid",
            "confidence": 1.0,
            "uuid": "91031b08-c749-4488-913e-e44380cc24cd",
            "name": "Octanoic acid",
            "url": "https://haz-map.com/Agents/2211",
            "category": "agents"
          }
        ]
      },
      "category": {
        "original_name": "Category",
        "value": "Fatty Acids and Fats",
        "links": [],
        "cross_references": []
      },
      "description": {
        "original_name": "Description",
        "value": "Colorless to amber-brown viscous, odorless liquid; mp = 10 deg C; [NTP] Colorless to light yellow odorless liquid; [Acros Organics MSDS]",
        "links": [],
        "cross_references": [
          {
            "type": "name_match",
            "text": "ht",
            "confidence": 1.0,
            "uuid": "764df367-8d53-4a11-81a2-31ccfe122a8d",
            "name": "HT",
            "url": "https://haz-map.com/Agents/2168",
            "category": "agents"
          }
        ]
      },
      "sourcesuses": {
        "original_name": "Sources/Uses",
        "value": "13C-labeled form is used in breath tests for diagnosis of fat malabsorption; [ChemIDplus] Used to make drug suspensions (unstable in aqueous media) and as a solubilizer for flavors, fragrances, and medicinals; [NTP] Used as an energy source for burn patients and those with difficulty digesting long-chain fatty acids, as a skin conditioning agent, and antihistamine; [HSDB] \"Axona is a medical food marketed for the clinical dietary management of the impairment of metabolic processes associated with mild to moderate Alzheimer's disease. It is a proprietary formulation of fractionated coconut oil (caprylic triglyceride), a medium-chain triglyceride.\" [Wikipedia]",
        "links": [],
        "cross_references": [
          {
            "type": "name_match",
            "text": "burn",
            "confidence": 1.0,
            "uuid": "63665de5-6376-4918-8dbf-4c10c4d63837",
            "name": "burn",
            "url": "https://haz-map.com/Findings/204",
            "category": "findings"
          },
          {
            "type": "name_match",
            "text": "coconut oil",
            "confidence": 1.0,
            "uuid": "e703b4dd-2431-4c6b-9f20-4273ce7099ea",
            "name": "Coconut oil",
            "url": "https://haz-map.com/Agents/20464",
            "category": "agents"
          }
        ]
      },
      "comments": {
        "original_name": "Comments",
        "value": "May cause minor skin and eye irritation; [NTP] May cause eye irritation; [Acros Organics MSDS]",
        "links": [],
        "cross_references": []
      },
      "biomedical_references": {
        "original_name": "Biomedical References",
        "value": "Search PubMed",
        "links": [
          {
            "text": "Search PubMed",
            "url": "https://www.ncbi.nlm.nih.gov/pubmed?term=Tricaprylin%20AND%20human%5Bmh%5D%20AND%20%28Occupational%20Diseases%20%5Bmh%5D%20OR%20Occupational%20Exposure%20%5Bmh%5D%29%20%20AND%20%28tox%5Bsb%5D%29&cmd=search"
          }
        ],
        "cross_references": []
      }
    },
    "exposure_assessment": {
      "vapor_pressure": {
        "original_name": "Vapor Pressure",
        "value": "0.0669 mm Hg",
        "links": [],
        "cross_references": []
      }
    },
    "diseases_processes_and_activities_linked_to_this_agent": {
      "other_information": {
        "original_name": "Other Information",
        "value": "No other related information on this agent was found.",
        "links": [],
        "cross_references": []
      }
    }
  },
  "cross_references": [
    {
      "type": "name_match",
      "text": "burn",
      "confidence": 1.0,
      "uuid": "63665de5-6376-4918-8dbf-4c10c4d63837",
      "name": "burn",
      "url": "https://haz-map.com/Findings/204",
      "category": "findings"
    },
    {
      "type": "name_match",
      "text": "propane",
      "confidence": 1.0,
      "uuid": "563a611b-46ea-4bdc-b77b-17d8f7646283",
      "name": "Propane",
      "url": "https://haz-map.com/Agents/607",
      "category": "agents"
    },
    {
      "type": "name_match",
      "text": "ht",
      "confidence": 1.0,
      "uuid": "764df367-8d53-4a11-81a2-31ccfe122a8d",
      "name": "HT",
      "url": "https://haz-map.com/Agents/2168",
      "category": "agents"
    },
    {
      "type": "name_match",
      "text": "octanoic acid",
      "confidence": 1.0,
      "uuid": "91031b08-c749-4488-913e-e44380cc24cd",
      "name": "Octanoic acid",
      "url": "https://haz-map.com/Agents/2211",
      "category": "agents"
    },
    {
      "type": "name_match",
      "text": "tricaprylin",
      "confidence": 1.0,
      "uuid": "f6512e14-48ba-401e-89cd-6b3544569586",
      "name": "Tricaprylin",
      "url": "https://haz-map.com/Agents/18155",
      "category": "agents"
    },
    {
      "type": "name_match",
      "text": "coconut oil",
      "confidence": 1.0,
      "uuid": "e703b4dd-2431-4c6b-9f20-4273ce7099ea",
      "name": "Coconut oil",
      "url": "https://haz-map.com/Agents/20464",
      "category": "agents"
    }
  ],
  "all_links": [
    {
      "text": "Search PubMed",
      "url": "https://www.ncbi.nlm.nih.gov/pubmed?term=Tricaprylin%20AND%20human%5Bmh%5D%20AND%20%28Occupational%20Diseases%20%5Bmh%5D%20OR%20Occupational%20Exposure%20%5Bmh%5D%29%20%20AND%20%28tox%5Bsb%5D%29&cmd=search"
    }
  ]
}