{
  "metadata": {
    "scraped_from": "https://haz-map.com/Agents/3481",
    "entity_name": "4-Nitroanthranilic acid",
    "category": "agents",
    "uuid": "f67dafcb-9fcd-42ae-b30e-b016980d15c1",
    "scraped_at": "2025-07-23T19:29:54.962688"
  },
  "parsed_at": "2025-07-24T01:16:35.688579",
  "title": "4-Nitroanthranilic acid",
  "sections": {
    "general": {
      "agent_name": {
        "original_name": "Agent Name",
        "value": "4-Nitroanthranilic acid",
        "links": [],
        "cross_references": [
          {
            "type": "name_match",
            "text": "4-nitroanthranilic acid",
            "confidence": 1.0,
            "uuid": "f67dafcb-9fcd-42ae-b30e-b016980d15c1",
            "name": "4-Nitroanthranilic acid",
            "url": "https://haz-map.com/Agents/3481",
            "category": "agents"
          },
          {
            "type": "name_match",
            "text": "anthranilic acid",
            "confidence": 1.0,
            "uuid": "8912c66e-c272-4ed8-9b29-b25a22d08647",
            "name": "Anthranilic acid",
            "url": "https://haz-map.com/Agents/3712",
            "category": "agents"
          }
        ]
      },
      "cas_number": {
        "original_name": "CAS Number",
        "value": "619-17-0",
        "links": [],
        "cross_references": []
      },
      "formula": {
        "original_name": "Formula",
        "value": "C7-H6-N2-O4",
        "links": [],
        "cross_references": []
      },
      "major_category": {
        "original_name": "Major Category",
        "value": "Nitrogen Compounds",
        "links": [],
        "cross_references": [
          {
            "type": "name_match",
            "text": "nitrogen",
            "confidence": 1.0,
            "uuid": "db5e90a9-06d2-45b9-8b81-f345a89b0bc0",
            "name": "Nitrogen",
            "url": "https://haz-map.com/Agents/1072",
            "category": "agents"
          }
        ]
      },
      "synonyms": {
        "original_name": "Synonyms",
        "value": "2-Amino-4-nitrobenzoic acid; Anthranilic acid, 4-nitro-; Benzoic acid, 2-amino-4-nitro-; [ChemIDplus]",
        "links": [],
        "cross_references": [
          {
            "type": "name_match",
            "text": "benzoic acid",
            "confidence": 1.0,
            "uuid": "d2c5d3be-d826-4f55-bc32-7b16821aef40",
            "name": "Benzoic acid",
            "url": "https://haz-map.com/Agents/1883",
            "category": "agents"
          },
          {
            "type": "name_match",
            "text": "4-nitrobenzoic acid",
            "confidence": 1.0,
            "uuid": "cf325835-0608-49f6-958b-29a6ad74091a",
            "name": "4-Nitrobenzoic acid",
            "url": "https://haz-map.com/Agents/3482",
            "category": "agents"
          },
          {
            "type": "name_match",
            "text": "anthranilic acid",
            "confidence": 1.0,
            "uuid": "8912c66e-c272-4ed8-9b29-b25a22d08647",
            "name": "Anthranilic acid",
            "url": "https://haz-map.com/Agents/3712",
            "category": "agents"
          }
        ]
      },
      "category": {
        "original_name": "Category",
        "value": "Nitrobenzoic Acids",
        "links": [],
        "cross_references": [
          {
            "type": "name_match",
            "text": "benzoic acid",
            "confidence": 1.0,
            "uuid": "d2c5d3be-d826-4f55-bc32-7b16821aef40",
            "name": "Benzoic acid",
            "url": "https://haz-map.com/Agents/1883",
            "category": "agents"
          }
        ]
      },
      "description": {
        "original_name": "Description",
        "value": "Orange solid; [HSDB]",
        "links": [],
        "cross_references": []
      },
      "sourcesuses": {
        "original_name": "Sources/Uses",
        "value": "Used as a research chemical; Not commercially produced in the US; [HSDB] Formerly used as a dye intermediate; [NTP]",
        "links": [],
        "cross_references": [
          {
            "type": "name_match",
            "text": "mica",
            "confidence": 1.0,
            "uuid": "433f26f1-c399-4596-b179-ce3843cfd465",
            "name": "Mica",
            "url": "https://haz-map.com/Agents/621",
            "category": "agents"
          }
        ]
      },
      "comments": {
        "original_name": "Comments",
        "value": "No significant increase in tumors in animal feeding studies; [NTP] An irritant; [MSDSonline]",
        "links": [],
        "cross_references": []
      },
      "biomedical_references": {
        "original_name": "Biomedical References",
        "value": "Search PubMed",
        "links": [
          {
            "text": "Search PubMed",
            "url": "https://www.ncbi.nlm.nih.gov/pubmed?term=4-Nitroanthranilic+acid%20AND%20human%5Bmh%5D%20AND%20%28Occupational%20Diseases%20%5Bmh%5D%20OR%20Occupational%20Exposure%20%5Bmh%5D%29%20%20AND%20%28tox%5Bsb%5D%29&cmd=search"
          }
        ],
        "cross_references": []
      }
    },
    "exposure_assessment": {
      "vapor_pressure": {
        "original_name": "Vapor Pressure",
        "value": "2.93E-06 mm Hg",
        "links": [],
        "cross_references": []
      }
    },
    "diseases_processes_and_activities_linked_to_this_agent": {
      "other_information": {
        "original_name": "Other Information",
        "value": "No other related information on this agent was found.",
        "links": [],
        "cross_references": []
      }
    }
  },
  "cross_references": [
    {
      "type": "name_match",
      "text": "mica",
      "confidence": 1.0,
      "uuid": "433f26f1-c399-4596-b179-ce3843cfd465",
      "name": "Mica",
      "url": "https://haz-map.com/Agents/621",
      "category": "agents"
    },
    {
      "type": "name_match",
      "text": "nitrogen",
      "confidence": 1.0,
      "uuid": "db5e90a9-06d2-45b9-8b81-f345a89b0bc0",
      "name": "Nitrogen",
      "url": "https://haz-map.com/Agents/1072",
      "category": "agents"
    },
    {
      "type": "name_match",
      "text": "benzoic acid",
      "confidence": 1.0,
      "uuid": "d2c5d3be-d826-4f55-bc32-7b16821aef40",
      "name": "Benzoic acid",
      "url": "https://haz-map.com/Agents/1883",
      "category": "agents"
    },
    {
      "type": "name_match",
      "text": "4-nitroanthranilic acid",
      "confidence": 1.0,
      "uuid": "f67dafcb-9fcd-42ae-b30e-b016980d15c1",
      "name": "4-Nitroanthranilic acid",
      "url": "https://haz-map.com/Agents/3481",
      "category": "agents"
    },
    {
      "type": "name_match",
      "text": "4-nitrobenzoic acid",
      "confidence": 1.0,
      "uuid": "cf325835-0608-49f6-958b-29a6ad74091a",
      "name": "4-Nitrobenzoic acid",
      "url": "https://haz-map.com/Agents/3482",
      "category": "agents"
    },
    {
      "type": "name_match",
      "text": "anthranilic acid",
      "confidence": 1.0,
      "uuid": "8912c66e-c272-4ed8-9b29-b25a22d08647",
      "name": "Anthranilic acid",
      "url": "https://haz-map.com/Agents/3712",
      "category": "agents"
    }
  ],
  "all_links": [
    {
      "text": "Search PubMed",
      "url": "https://www.ncbi.nlm.nih.gov/pubmed?term=4-Nitroanthranilic+acid%20AND%20human%5Bmh%5D%20AND%20%28Occupational%20Diseases%20%5Bmh%5D%20OR%20Occupational%20Exposure%20%5Bmh%5D%29%20%20AND%20%28tox%5Bsb%5D%29&cmd=search"
    }
  ]
}