{
  "metadata": {
    "scraped_from": "https://haz-map.com/Agents/4897",
    "entity_name": "Diisooctyl adipate",
    "category": "agents",
    "uuid": "f6ad7cbd-0164-41fd-b892-9c299ed159b7",
    "scraped_at": "2025-07-23T19:46:19.205947"
  },
  "parsed_at": "2025-07-24T01:05:35.746310",
  "title": "Diisooctyl adipate",
  "sections": {
    "general": {
      "agent_name": {
        "original_name": "Agent Name",
        "value": "Diisooctyl adipate",
        "links": [],
        "cross_references": [
          {
            "type": "name_match",
            "text": "diisooctyl adipate",
            "confidence": 1.0,
            "uuid": "f6ad7cbd-0164-41fd-b892-9c299ed159b7",
            "name": "Diisooctyl adipate",
            "url": "https://haz-map.com/Agents/4897",
            "category": "agents"
          }
        ]
      },
      "cas_number": {
        "original_name": "CAS Number",
        "value": "1330-86-5",
        "links": [],
        "cross_references": []
      },
      "formula": {
        "original_name": "Formula",
        "value": "C22-H42-O4",
        "links": [],
        "cross_references": []
      },
      "major_category": {
        "original_name": "Major Category",
        "value": "Plastics & Rubber",
        "links": [],
        "cross_references": []
      },
      "synonyms": {
        "original_name": "Synonyms",
        "value": "Adipic acid, diisooctyl ester; Adipol 10A; DB 32 (ester); Di-iso-octyl adipate; Dimethyl heptyladipate; DIOA; Hatcol 2906; Hexanedioic acid, diisooctyl ester; Isooctyl alcohol, adipate (2:1); PX 208; [ChemIDplus]",
        "links": [],
        "cross_references": [
          {
            "type": "name_match",
            "text": "isooctyl alcohol",
            "confidence": 1.0,
            "uuid": "ee4740dc-b699-4818-96ef-202b348cf699",
            "name": "Isooctyl alcohol",
            "url": "https://haz-map.com/Agents/530",
            "category": "agents"
          },
          {
            "type": "name_match",
            "text": "adipic acid",
            "confidence": 1.0,
            "uuid": "2acec3e0-0784-4c7a-ac91-efee327d26af",
            "name": "Adipic acid",
            "url": "https://haz-map.com/Agents/1660",
            "category": "agents"
          }
        ]
      },
      "category": {
        "original_name": "Category",
        "value": "Other Plasticizers",
        "links": [],
        "cross_references": []
      },
      "description": {
        "original_name": "Description",
        "value": "Light straw-colored liquid; [Hawley] Colorless or very pale amber liquid; [HSDB] Clear liquid; [MSDSonline]",
        "links": [],
        "cross_references": [
          {
            "type": "name_match",
            "text": "ht",
            "confidence": 1.0,
            "uuid": "764df367-8d53-4a11-81a2-31ccfe122a8d",
            "name": "HT",
            "url": "https://haz-map.com/Agents/2168",
            "category": "agents"
          }
        ]
      },
      "sourcesuses": {
        "original_name": "Sources/Uses",
        "value": "Used as low temperature plasticizer for cellulose acetate butyrate resin, cellulose nitrate, ethyl cellulose, polymethyl methacrylate resins, polystyrene resins, and polyvinyl chloride; [HSDB]",
        "links": [],
        "cross_references": [
          {
            "type": "name_match",
            "text": "vinyl chloride",
            "confidence": 1.0,
            "uuid": "7b74b11d-1ba5-4dde-8d86-ed88645b5ce1",
            "name": "Vinyl chloride",
            "url": "https://haz-map.com/Agents/15",
            "category": "agents"
          },
          {
            "type": "name_match",
            "text": "styrene",
            "confidence": 1.0,
            "uuid": "03c5632f-5079-4688-82bd-0dacf3d0d36a",
            "name": "Styrene",
            "url": "https://haz-map.com/Agents/32",
            "category": "agents"
          },
          {
            "type": "name_match",
            "text": "methyl methacrylate",
            "confidence": 1.0,
            "uuid": "2199439b-5703-45e3-97fa-22fd2d480eb9",
            "name": "Methyl methacrylate",
            "url": "https://haz-map.com/Agents/216",
            "category": "agents"
          },
          {
            "type": "name_match",
            "text": "cellulose",
            "confidence": 1.0,
            "uuid": "b9b1b190-806c-4622-8201-8f09b0a87eca",
            "name": "Cellulose",
            "url": "https://haz-map.com/Agents/347",
            "category": "agents"
          },
          {
            "type": "name_match",
            "text": "ethyl methacrylate",
            "confidence": 1.0,
            "uuid": "c6fffbc1-19c8-4d59-a80f-43c99fc33e11",
            "name": "Ethyl methacrylate",
            "url": "https://haz-map.com/Agents/825",
            "category": "agents"
          },
          {
            "type": "name_match",
            "text": "polyvinyl chloride",
            "confidence": 1.0,
            "uuid": "b11c91ba-ec9a-445f-a605-51f00a75c949",
            "name": "Polyvinyl chloride",
            "url": "https://haz-map.com/Agents/849",
            "category": "agents"
          },
          {
            "type": "name_match",
            "text": "cellulose acetate",
            "confidence": 1.0,
            "uuid": "49569e1f-799a-41c1-89b6-2457a776e513",
            "name": "Cellulose acetate",
            "url": "https://haz-map.com/Agents/4251",
            "category": "agents"
          },
          {
            "type": "name_match",
            "text": "ethyl cellulose",
            "confidence": 1.0,
            "uuid": "b3245a3e-f347-440d-8981-e7c57a38f238",
            "name": "Ethyl cellulose",
            "url": "https://haz-map.com/Agents/8356",
            "category": "agents"
          },
          {
            "type": "name_match",
            "text": "cellulose acetate butyrate",
            "confidence": 1.0,
            "uuid": "84fa751e-0a0e-4c60-9cc7-292c0340b5cb",
            "name": "Cellulose acetate butyrate",
            "url": "https://haz-map.com/Agents/12801",
            "category": "agents"
          }
        ]
      },
      "comments": {
        "original_name": "Comments",
        "value": "May cause irritation; [MSDSonline]",
        "links": [],
        "cross_references": []
      },
      "biomedical_references": {
        "original_name": "Biomedical References",
        "value": "Search PubMed",
        "links": [
          {
            "text": "Search PubMed",
            "url": "https://www.ncbi.nlm.nih.gov/pubmed?term=Diisooctyl+adipate%20AND%20human%5Bmh%5D%20AND%20%28Occupational%20Diseases%20%5Bmh%5D%20OR%20Occupational%20Exposure%20%5Bmh%5D%29%20%20AND%20%28tox%5Bsb%5D%29&cmd=search"
          }
        ],
        "cross_references": []
      }
    },
    "exposure_assessment": {
      "vapor_pressure": {
        "original_name": "Vapor Pressure",
        "value": "2.65E-05 mm Hg",
        "links": [],
        "cross_references": []
      }
    },
    "diseases_processes_and_activities_linked_to_this_agent": {
      "other_information": {
        "original_name": "Other Information",
        "value": "No other related information on this agent was found.",
        "links": [],
        "cross_references": []
      }
    }
  },
  "cross_references": [
    {
      "type": "name_match",
      "text": "vinyl chloride",
      "confidence": 1.0,
      "uuid": "7b74b11d-1ba5-4dde-8d86-ed88645b5ce1",
      "name": "Vinyl chloride",
      "url": "https://haz-map.com/Agents/15",
      "category": "agents"
    },
    {
      "type": "name_match",
      "text": "styrene",
      "confidence": 1.0,
      "uuid": "03c5632f-5079-4688-82bd-0dacf3d0d36a",
      "name": "Styrene",
      "url": "https://haz-map.com/Agents/32",
      "category": "agents"
    },
    {
      "type": "name_match",
      "text": "methyl methacrylate",
      "confidence": 1.0,
      "uuid": "2199439b-5703-45e3-97fa-22fd2d480eb9",
      "name": "Methyl methacrylate",
      "url": "https://haz-map.com/Agents/216",
      "category": "agents"
    },
    {
      "type": "name_match",
      "text": "cellulose",
      "confidence": 1.0,
      "uuid": "b9b1b190-806c-4622-8201-8f09b0a87eca",
      "name": "Cellulose",
      "url": "https://haz-map.com/Agents/347",
      "category": "agents"
    },
    {
      "type": "name_match",
      "text": "isooctyl alcohol",
      "confidence": 1.0,
      "uuid": "ee4740dc-b699-4818-96ef-202b348cf699",
      "name": "Isooctyl alcohol",
      "url": "https://haz-map.com/Agents/530",
      "category": "agents"
    },
    {
      "type": "name_match",
      "text": "ethyl methacrylate",
      "confidence": 1.0,
      "uuid": "c6fffbc1-19c8-4d59-a80f-43c99fc33e11",
      "name": "Ethyl methacrylate",
      "url": "https://haz-map.com/Agents/825",
      "category": "agents"
    },
    {
      "type": "name_match",
      "text": "polyvinyl chloride",
      "confidence": 1.0,
      "uuid": "b11c91ba-ec9a-445f-a605-51f00a75c949",
      "name": "Polyvinyl chloride",
      "url": "https://haz-map.com/Agents/849",
      "category": "agents"
    },
    {
      "type": "name_match",
      "text": "adipic acid",
      "confidence": 1.0,
      "uuid": "2acec3e0-0784-4c7a-ac91-efee327d26af",
      "name": "Adipic acid",
      "url": "https://haz-map.com/Agents/1660",
      "category": "agents"
    },
    {
      "type": "name_match",
      "text": "ht",
      "confidence": 1.0,
      "uuid": "764df367-8d53-4a11-81a2-31ccfe122a8d",
      "name": "HT",
      "url": "https://haz-map.com/Agents/2168",
      "category": "agents"
    },
    {
      "type": "name_match",
      "text": "cellulose acetate",
      "confidence": 1.0,
      "uuid": "49569e1f-799a-41c1-89b6-2457a776e513",
      "name": "Cellulose acetate",
      "url": "https://haz-map.com/Agents/4251",
      "category": "agents"
    },
    {
      "type": "name_match",
      "text": "diisooctyl adipate",
      "confidence": 1.0,
      "uuid": "f6ad7cbd-0164-41fd-b892-9c299ed159b7",
      "name": "Diisooctyl adipate",
      "url": "https://haz-map.com/Agents/4897",
      "category": "agents"
    },
    {
      "type": "name_match",
      "text": "ethyl cellulose",
      "confidence": 1.0,
      "uuid": "b3245a3e-f347-440d-8981-e7c57a38f238",
      "name": "Ethyl cellulose",
      "url": "https://haz-map.com/Agents/8356",
      "category": "agents"
    },
    {
      "type": "name_match",
      "text": "cellulose acetate butyrate",
      "confidence": 1.0,
      "uuid": "84fa751e-0a0e-4c60-9cc7-292c0340b5cb",
      "name": "Cellulose acetate butyrate",
      "url": "https://haz-map.com/Agents/12801",
      "category": "agents"
    }
  ],
  "all_links": [
    {
      "text": "Search PubMed",
      "url": "https://www.ncbi.nlm.nih.gov/pubmed?term=Diisooctyl+adipate%20AND%20human%5Bmh%5D%20AND%20%28Occupational%20Diseases%20%5Bmh%5D%20OR%20Occupational%20Exposure%20%5Bmh%5D%29%20%20AND%20%28tox%5Bsb%5D%29&cmd=search"
    }
  ]
}