{
  "metadata": {
    "scraped_from": "https://haz-map.com/Agents/19422",
    "entity_name": "2,2,2-Trifluoroacetamide",
    "category": "agents",
    "uuid": "f6cd8455-d9b8-491d-908b-5c7be47e29f6",
    "scraped_at": "2025-07-23T22:05:46.617199"
  },
  "parsed_at": "2025-07-24T01:03:57.353889",
  "title": "2,2,2-Trifluoroacetamide",
  "sections": {
    "general": {
      "agent_name": {
        "original_name": "Agent Name",
        "value": "2,2,2-Trifluoroacetamide",
        "links": [],
        "cross_references": [
          {
            "type": "name_match",
            "text": "acetamide",
            "confidence": 1.0,
            "uuid": "dd8ffc77-2f5f-4c87-8995-3206d6c9affc",
            "name": "Acetamide",
            "url": "https://haz-map.com/Agents/3385",
            "category": "agents"
          },
          {
            "type": "name_match",
            "text": "fluoroacetamide",
            "confidence": 1.0,
            "uuid": "3e32b252-3df8-4df5-b30e-f2158d479a26",
            "name": "Fluoroacetamide",
            "url": "https://haz-map.com/Agents/5347",
            "category": "agents"
          },
          {
            "type": "name_match",
            "text": "2,2,2-trifluoroacetamide",
            "confidence": 1.0,
            "uuid": "f6cd8455-d9b8-491d-908b-5c7be47e29f6",
            "name": "2,2,2-Trifluoroacetamide",
            "url": "https://haz-map.com/Agents/19422",
            "category": "agents"
          }
        ]
      },
      "cas_number": {
        "original_name": "CAS Number",
        "value": "354-38-1",
        "links": [],
        "cross_references": []
      },
      "formula": {
        "original_name": "Formula",
        "value": "C2-H2-F3-N-O",
        "links": [],
        "cross_references": []
      },
      "major_category": {
        "original_name": "Major Category",
        "value": "Nitrogen Compounds",
        "links": [],
        "cross_references": [
          {
            "type": "name_match",
            "text": "nitrogen",
            "confidence": 1.0,
            "uuid": "db5e90a9-06d2-45b9-8b81-f345a89b0bc0",
            "name": "Nitrogen",
            "url": "https://haz-map.com/Agents/1072",
            "category": "agents"
          }
        ]
      },
      "synonyms": {
        "original_name": "Synonyms",
        "value": "Trifluoroacetamide; Acetamide, 2,2,2-trifluoro-; [ChemIDplus]",
        "links": [],
        "cross_references": [
          {
            "type": "name_match",
            "text": "acetamide",
            "confidence": 1.0,
            "uuid": "dd8ffc77-2f5f-4c87-8995-3206d6c9affc",
            "name": "Acetamide",
            "url": "https://haz-map.com/Agents/3385",
            "category": "agents"
          },
          {
            "type": "name_match",
            "text": "fluoroacetamide",
            "confidence": 1.0,
            "uuid": "3e32b252-3df8-4df5-b30e-f2158d479a26",
            "name": "Fluoroacetamide",
            "url": "https://haz-map.com/Agents/5347",
            "category": "agents"
          }
        ]
      },
      "category": {
        "original_name": "Category",
        "value": "Other Nitrogen Compounds",
        "links": [],
        "cross_references": [
          {
            "type": "name_match",
            "text": "nitrogen",
            "confidence": 1.0,
            "uuid": "db5e90a9-06d2-45b9-8b81-f345a89b0bc0",
            "name": "Nitrogen",
            "url": "https://haz-map.com/Agents/1072",
            "category": "agents"
          }
        ]
      },
      "description": {
        "original_name": "Description",
        "value": "White to light yellow crystalline powder with a slight ether-like odor; [Acros Organics MSDS]",
        "links": [],
        "cross_references": [
          {
            "type": "name_match",
            "text": "ht",
            "confidence": 1.0,
            "uuid": "764df367-8d53-4a11-81a2-31ccfe122a8d",
            "name": "HT",
            "url": "https://haz-map.com/Agents/2168",
            "category": "agents"
          },
          {
            "type": "fuzzy_match",
            "text": "crystalline",
            "matched_name": "Silica, crystalline",
            "confidence": 0.7061403508771931,
            "uuid": "f920e8a2-46df-41b7-af8d-0368a777251e",
            "category": "agents",
            "url": "https://haz-map.com/Agents/427"
          }
        ]
      },
      "sourcesuses": {
        "original_name": "Sources/Uses",
        "value": "Used as an intermediate in fine chemical manufacture and in scientific research and development; [ECHA REACH Registrations]",
        "links": [],
        "cross_references": [
          {
            "type": "name_match",
            "text": "mica",
            "confidence": 1.0,
            "uuid": "433f26f1-c399-4596-b179-ce3843cfd465",
            "name": "Mica",
            "url": "https://haz-map.com/Agents/621",
            "category": "agents"
          }
        ]
      },
      "comments": {
        "original_name": "Comments",
        "value": "A skin and strong eye irritant; Harmful by ingestion; [ECHA REACH Registrations] An irritant; [Acros Organics MSDS] See \"Chloroacetamide\" and \"Fluoroacetamide.\"",
        "links": [],
        "cross_references": [
          {
            "type": "name_match",
            "text": "chloroacetamide",
            "confidence": 1.0,
            "uuid": "b2b0b04d-4e53-4d86-abb9-a32942431f4a",
            "name": "Chloroacetamide",
            "url": "https://haz-map.com/Agents/1270",
            "category": "agents"
          },
          {
            "type": "name_match",
            "text": "acetamide",
            "confidence": 1.0,
            "uuid": "dd8ffc77-2f5f-4c87-8995-3206d6c9affc",
            "name": "Acetamide",
            "url": "https://haz-map.com/Agents/3385",
            "category": "agents"
          },
          {
            "type": "name_match",
            "text": "fluoroacetamide",
            "confidence": 1.0,
            "uuid": "3e32b252-3df8-4df5-b30e-f2158d479a26",
            "name": "Fluoroacetamide",
            "url": "https://haz-map.com/Agents/5347",
            "category": "agents"
          }
        ]
      },
      "biomedical_references": {
        "original_name": "Biomedical References",
        "value": "Search PubMed",
        "links": [
          {
            "text": "Search PubMed",
            "url": "https://www.ncbi.nlm.nih.gov/pubmed?term=2%2c2%2c2-Trifluoroacetamide%20AND%20human%5Bmh%5D%20AND%20%28Occupational%20Diseases%20%5Bmh%5D%20OR%20Occupational%20Exposure%20%5Bmh%5D%29%20%20AND%20%28tox%5Bsb%5D%29&cmd=search"
          }
        ],
        "cross_references": []
      }
    },
    "exposure_assessment": {
      "vapor_pressure": {
        "original_name": "Vapor Pressure",
        "value": "1.85 mm Hg",
        "links": [],
        "cross_references": []
      }
    },
    "diseases_processes_and_activities_linked_to_this_agent": {
      "other_information": {
        "original_name": "Other Information",
        "value": "No other related information on this agent was found.",
        "links": [],
        "cross_references": []
      }
    }
  },
  "cross_references": [
    {
      "type": "name_match",
      "text": "mica",
      "confidence": 1.0,
      "uuid": "433f26f1-c399-4596-b179-ce3843cfd465",
      "name": "Mica",
      "url": "https://haz-map.com/Agents/621",
      "category": "agents"
    },
    {
      "type": "name_match",
      "text": "nitrogen",
      "confidence": 1.0,
      "uuid": "db5e90a9-06d2-45b9-8b81-f345a89b0bc0",
      "name": "Nitrogen",
      "url": "https://haz-map.com/Agents/1072",
      "category": "agents"
    },
    {
      "type": "name_match",
      "text": "chloroacetamide",
      "confidence": 1.0,
      "uuid": "b2b0b04d-4e53-4d86-abb9-a32942431f4a",
      "name": "Chloroacetamide",
      "url": "https://haz-map.com/Agents/1270",
      "category": "agents"
    },
    {
      "type": "name_match",
      "text": "ht",
      "confidence": 1.0,
      "uuid": "764df367-8d53-4a11-81a2-31ccfe122a8d",
      "name": "HT",
      "url": "https://haz-map.com/Agents/2168",
      "category": "agents"
    },
    {
      "type": "name_match",
      "text": "acetamide",
      "confidence": 1.0,
      "uuid": "dd8ffc77-2f5f-4c87-8995-3206d6c9affc",
      "name": "Acetamide",
      "url": "https://haz-map.com/Agents/3385",
      "category": "agents"
    },
    {
      "type": "name_match",
      "text": "fluoroacetamide",
      "confidence": 1.0,
      "uuid": "3e32b252-3df8-4df5-b30e-f2158d479a26",
      "name": "Fluoroacetamide",
      "url": "https://haz-map.com/Agents/5347",
      "category": "agents"
    },
    {
      "type": "name_match",
      "text": "2,2,2-trifluoroacetamide",
      "confidence": 1.0,
      "uuid": "f6cd8455-d9b8-491d-908b-5c7be47e29f6",
      "name": "2,2,2-Trifluoroacetamide",
      "url": "https://haz-map.com/Agents/19422",
      "category": "agents"
    },
    {
      "type": "fuzzy_match",
      "text": "crystalline",
      "matched_name": "Silica, crystalline",
      "confidence": 0.7061403508771931,
      "uuid": "f920e8a2-46df-41b7-af8d-0368a777251e",
      "category": "agents",
      "url": "https://haz-map.com/Agents/427"
    }
  ],
  "all_links": [
    {
      "text": "Search PubMed",
      "url": "https://www.ncbi.nlm.nih.gov/pubmed?term=2%2c2%2c2-Trifluoroacetamide%20AND%20human%5Bmh%5D%20AND%20%28Occupational%20Diseases%20%5Bmh%5D%20OR%20Occupational%20Exposure%20%5Bmh%5D%29%20%20AND%20%28tox%5Bsb%5D%29&cmd=search"
    }
  ]
}