{
  "metadata": {
    "scraped_from": "https://haz-map.com/Agents/6066",
    "entity_name": "2,2-Dimethoxyethyl(methyl)amine",
    "category": "agents",
    "uuid": "f7044b3f-2c4b-4524-aa33-23038d8c7b5e",
    "scraped_at": "2025-07-23T19:58:11.452749"
  },
  "parsed_at": "2025-07-24T01:13:38.045832",
  "title": "2,2-Dimethoxyethyl(methyl)amine",
  "sections": {
    "general": {
      "agent_name": {
        "original_name": "Agent Name",
        "value": "2,2-Dimethoxyethyl(methyl)amine",
        "links": [],
        "cross_references": [
          {
            "type": "name_match",
            "text": "2,2-dimethoxyethyl(methyl)amine",
            "confidence": 1.0,
            "uuid": "f7044b3f-2c4b-4524-aa33-23038d8c7b5e",
            "name": "2,2-Dimethoxyethyl(methyl)amine",
            "url": "https://haz-map.com/Agents/6066",
            "category": "agents"
          }
        ]
      },
      "cas_number": {
        "original_name": "CAS Number",
        "value": "122-07-6",
        "links": [],
        "cross_references": []
      },
      "formula": {
        "original_name": "Formula",
        "value": "C5-H13-N-O2",
        "links": [],
        "cross_references": []
      },
      "major_category": {
        "original_name": "Major Category",
        "value": "Nitrogen Compounds",
        "links": [],
        "cross_references": [
          {
            "type": "name_match",
            "text": "nitrogen",
            "confidence": 1.0,
            "uuid": "db5e90a9-06d2-45b9-8b81-f345a89b0bc0",
            "name": "Nitrogen",
            "url": "https://haz-map.com/Agents/1072",
            "category": "agents"
          }
        ]
      },
      "synonyms": {
        "original_name": "Synonyms",
        "value": "2-(Methylamino)acetaldehyde dimethyl acetal; Acetaldehyde, (methylamino)-, dimethyl acetal; Ethanamine, 2,2-dimethoxy-N-methyl-; Methylaminoacetaldehyde dimethyl acetal; N-Methylaminoacetaldehyde dimethyl acetal; [ChemIDplus]",
        "links": [],
        "cross_references": [
          {
            "type": "name_match",
            "text": "acetaldehyde",
            "confidence": 1.0,
            "uuid": "fe4656a6-c05e-430a-bdd9-e053a298707a",
            "name": "Acetaldehyde",
            "url": "https://haz-map.com/Agents/94",
            "category": "agents"
          },
          {
            "type": "name_match",
            "text": "acetal",
            "confidence": 1.0,
            "uuid": "1ee09b5b-04fd-47c0-ab34-a2d9db740bcb",
            "name": "Acetal",
            "url": "https://haz-map.com/Agents/3381",
            "category": "agents"
          }
        ]
      },
      "category": {
        "original_name": "Category",
        "value": "Other Nitrogen Compounds",
        "links": [],
        "cross_references": [
          {
            "type": "name_match",
            "text": "nitrogen",
            "confidence": 1.0,
            "uuid": "db5e90a9-06d2-45b9-8b81-f345a89b0bc0",
            "name": "Nitrogen",
            "url": "https://haz-map.com/Agents/1072",
            "category": "agents"
          }
        ]
      },
      "description": {
        "original_name": "Description",
        "value": "Nearly colorless clear liquid; [MSDSonline]",
        "links": [],
        "cross_references": []
      },
      "comments": {
        "original_name": "Comments",
        "value": "An irritant; May cause serious eye damage; [Alfa Aesar MSDS]",
        "links": [],
        "cross_references": []
      },
      "biomedical_references": {
        "original_name": "Biomedical References",
        "value": "Search PubMed",
        "links": [
          {
            "text": "Search PubMed",
            "url": "https://www.ncbi.nlm.nih.gov/pubmed?term=2%2c2-Dimethoxyethyl(methyl)amine%20AND%20human%5Bmh%5D%20AND%20%28Occupational%20Diseases%20%5Bmh%5D%20OR%20Occupational%20Exposure%20%5Bmh%5D%29%20%20AND%20%28tox%5Bsb%5D%29&cmd=search"
          }
        ],
        "cross_references": []
      }
    },
    "exposure_assessment": {
      "vapor_pressure": {
        "original_name": "Vapor Pressure",
        "value": "4.5 mm Hg",
        "links": [],
        "cross_references": []
      }
    },
    "diseases_processes_and_activities_linked_to_this_agent": {
      "other_information": {
        "original_name": "Other Information",
        "value": "No other related information on this agent was found.",
        "links": [],
        "cross_references": []
      }
    }
  },
  "cross_references": [
    {
      "type": "name_match",
      "text": "acetaldehyde",
      "confidence": 1.0,
      "uuid": "fe4656a6-c05e-430a-bdd9-e053a298707a",
      "name": "Acetaldehyde",
      "url": "https://haz-map.com/Agents/94",
      "category": "agents"
    },
    {
      "type": "name_match",
      "text": "nitrogen",
      "confidence": 1.0,
      "uuid": "db5e90a9-06d2-45b9-8b81-f345a89b0bc0",
      "name": "Nitrogen",
      "url": "https://haz-map.com/Agents/1072",
      "category": "agents"
    },
    {
      "type": "name_match",
      "text": "acetal",
      "confidence": 1.0,
      "uuid": "1ee09b5b-04fd-47c0-ab34-a2d9db740bcb",
      "name": "Acetal",
      "url": "https://haz-map.com/Agents/3381",
      "category": "agents"
    },
    {
      "type": "name_match",
      "text": "2,2-dimethoxyethyl(methyl)amine",
      "confidence": 1.0,
      "uuid": "f7044b3f-2c4b-4524-aa33-23038d8c7b5e",
      "name": "2,2-Dimethoxyethyl(methyl)amine",
      "url": "https://haz-map.com/Agents/6066",
      "category": "agents"
    }
  ],
  "all_links": [
    {
      "text": "Search PubMed",
      "url": "https://www.ncbi.nlm.nih.gov/pubmed?term=2%2c2-Dimethoxyethyl(methyl)amine%20AND%20human%5Bmh%5D%20AND%20%28Occupational%20Diseases%20%5Bmh%5D%20OR%20Occupational%20Exposure%20%5Bmh%5D%29%20%20AND%20%28tox%5Bsb%5D%29&cmd=search"
    }
  ]
}