{
  "metadata": {
    "scraped_from": "https://haz-map.com/Agents/9721",
    "entity_name": "1,3-Diphenyl-2-propanone",
    "category": "agents",
    "uuid": "f7143a3a-0a57-4979-ac38-8122c8f61f4d",
    "scraped_at": "2025-07-23T20:41:58.784784"
  },
  "parsed_at": "2025-07-24T00:58:38.194055",
  "title": "1,3-Diphenyl-2-propanone",
  "sections": {
    "general": {
      "agent_name": {
        "original_name": "Agent Name",
        "value": "1,3-Diphenyl-2-propanone",
        "links": [],
        "cross_references": [
          {
            "type": "name_match",
            "text": "1,3-diphenyl-2-propanone",
            "confidence": 1.0,
            "uuid": "f7143a3a-0a57-4979-ac38-8122c8f61f4d",
            "name": "1,3-Diphenyl-2-propanone",
            "url": "https://haz-map.com/Agents/9721",
            "category": "agents"
          }
        ]
      },
      "cas_number": {
        "original_name": "CAS Number",
        "value": "102-04-5",
        "links": [],
        "cross_references": []
      },
      "formula": {
        "original_name": "Formula",
        "value": "C15-H14-O",
        "links": [],
        "cross_references": []
      },
      "major_category": {
        "original_name": "Major Category",
        "value": "Other Classes",
        "links": [],
        "cross_references": []
      },
      "synonyms": {
        "original_name": "Synonyms",
        "value": "1,3-Diphenylacetone; 1,3-Diphenylpropanone; 2-Propanone, 1,3-diphenyl-; Benzyl ketone; Dibenzyl ketone; alpha,alpha'-Diphenylacetone; [ChemIDplus]",
        "links": [],
        "cross_references": [
          {
            "type": "name_match",
            "text": "acetone",
            "confidence": 1.0,
            "uuid": "31b7bdae-eb37-44cc-9c56-b6dfc1908d64",
            "name": "Acetone",
            "url": "https://haz-map.com/Agents/138",
            "category": "agents"
          },
          {
            "type": "name_match",
            "text": "phenylacetone",
            "confidence": 1.0,
            "uuid": "5f37302c-d6b4-4818-a9a3-87ff372dc0b1",
            "name": "Phenylacetone",
            "url": "https://haz-map.com/Agents/21465",
            "category": "agents"
          }
        ]
      },
      "category": {
        "original_name": "Category",
        "value": "Aromatic Ketones",
        "links": [],
        "cross_references": []
      },
      "description": {
        "original_name": "Description",
        "value": "Melting point = 35 deg C; [ChemIDplus] Light yellow or white crystalline solid; mp = 32-36 deg C; [Alfa Aesar MSDS]",
        "links": [],
        "cross_references": [
          {
            "type": "name_match",
            "text": "ht",
            "confidence": 1.0,
            "uuid": "764df367-8d53-4a11-81a2-31ccfe122a8d",
            "name": "HT",
            "url": "https://haz-map.com/Agents/2168",
            "category": "agents"
          },
          {
            "type": "fuzzy_match",
            "text": "crystalline",
            "matched_name": "Silica, crystalline",
            "confidence": 0.7061403508771931,
            "uuid": "f920e8a2-46df-41b7-af8d-0368a777251e",
            "category": "agents",
            "url": "https://haz-map.com/Agents/427"
          }
        ]
      },
      "sourcesuses": {
        "original_name": "Sources/Uses",
        "value": "Used as a flavoring agent or adjuvant; [FDA]",
        "links": [],
        "cross_references": []
      },
      "comments": {
        "original_name": "Comments",
        "value": "Safe when used as a flavoring agent in food; [JECFA] Causes ataxia in oral lethal-dose studies of rats; [RTECS] May cause irritation; [Alfa Aesar MSDS] See \"Propiophenone.\"",
        "links": [],
        "cross_references": [
          {
            "type": "name_match",
            "text": "propiophenone",
            "confidence": 1.0,
            "uuid": "7da9d448-8304-472f-a193-08ed596513f7",
            "name": "Propiophenone",
            "url": "https://haz-map.com/Agents/6647",
            "category": "agents"
          }
        ]
      },
      "biomedical_references": {
        "original_name": "Biomedical References",
        "value": "Search PubMed",
        "links": [
          {
            "text": "Search PubMed",
            "url": "https://www.ncbi.nlm.nih.gov/pubmed?term=1%2c3-Diphenyl-2-propanone%20AND%20human%5Bmh%5D%20AND%20%28Occupational%20Diseases%20%5Bmh%5D%20OR%20Occupational%20Exposure%20%5Bmh%5D%29%20%20AND%20%28tox%5Bsb%5D%29&cmd=search"
          }
        ],
        "cross_references": []
      }
    },
    "diseases_processes_and_activities_linked_to_this_agent": {
      "other_information": {
        "original_name": "Other Information",
        "value": "No other related information on this agent was found.",
        "links": [],
        "cross_references": []
      }
    }
  },
  "cross_references": [
    {
      "type": "name_match",
      "text": "acetone",
      "confidence": 1.0,
      "uuid": "31b7bdae-eb37-44cc-9c56-b6dfc1908d64",
      "name": "Acetone",
      "url": "https://haz-map.com/Agents/138",
      "category": "agents"
    },
    {
      "type": "name_match",
      "text": "ht",
      "confidence": 1.0,
      "uuid": "764df367-8d53-4a11-81a2-31ccfe122a8d",
      "name": "HT",
      "url": "https://haz-map.com/Agents/2168",
      "category": "agents"
    },
    {
      "type": "name_match",
      "text": "propiophenone",
      "confidence": 1.0,
      "uuid": "7da9d448-8304-472f-a193-08ed596513f7",
      "name": "Propiophenone",
      "url": "https://haz-map.com/Agents/6647",
      "category": "agents"
    },
    {
      "type": "name_match",
      "text": "1,3-diphenyl-2-propanone",
      "confidence": 1.0,
      "uuid": "f7143a3a-0a57-4979-ac38-8122c8f61f4d",
      "name": "1,3-Diphenyl-2-propanone",
      "url": "https://haz-map.com/Agents/9721",
      "category": "agents"
    },
    {
      "type": "name_match",
      "text": "phenylacetone",
      "confidence": 1.0,
      "uuid": "5f37302c-d6b4-4818-a9a3-87ff372dc0b1",
      "name": "Phenylacetone",
      "url": "https://haz-map.com/Agents/21465",
      "category": "agents"
    },
    {
      "type": "fuzzy_match",
      "text": "crystalline",
      "matched_name": "Silica, crystalline",
      "confidence": 0.7061403508771931,
      "uuid": "f920e8a2-46df-41b7-af8d-0368a777251e",
      "category": "agents",
      "url": "https://haz-map.com/Agents/427"
    }
  ],
  "all_links": [
    {
      "text": "Search PubMed",
      "url": "https://www.ncbi.nlm.nih.gov/pubmed?term=1%2c3-Diphenyl-2-propanone%20AND%20human%5Bmh%5D%20AND%20%28Occupational%20Diseases%20%5Bmh%5D%20OR%20Occupational%20Exposure%20%5Bmh%5D%29%20%20AND%20%28tox%5Bsb%5D%29&cmd=search"
    }
  ]
}