{
  "metadata": {
    "scraped_from": "https://haz-map.com/Agents/18588",
    "entity_name": "Uridine",
    "category": "agents",
    "uuid": "f72298f0-4b1f-4254-bef8-c50f54c41489",
    "scraped_at": "2025-07-23T21:56:35.901828"
  },
  "parsed_at": "2025-07-24T01:09:59.461642",
  "title": "Uridine",
  "sections": {
    "general": {
      "agent_name": {
        "original_name": "Agent Name",
        "value": "Uridine",
        "links": [],
        "cross_references": [
          {
            "type": "name_match",
            "text": "uridine",
            "confidence": 1.0,
            "uuid": "f72298f0-4b1f-4254-bef8-c50f54c41489",
            "name": "Uridine",
            "url": "https://haz-map.com/Agents/18588",
            "category": "agents"
          }
        ]
      },
      "cas_number": {
        "original_name": "CAS Number",
        "value": "58-96-8",
        "links": [],
        "cross_references": []
      },
      "formula": {
        "original_name": "Formula",
        "value": "C9-H12-N2-O6",
        "links": [],
        "cross_references": []
      },
      "major_category": {
        "original_name": "Major Category",
        "value": "Biological Agents",
        "links": [],
        "cross_references": []
      },
      "synonyms": {
        "original_name": "Synonyms",
        "value": "1-beta-D-Ribofuranosyluracil; Uracil riboside; Uracil, 1-beta-D-ribofuranosyl-; Urd; Uridin; [ChemIDplus]",
        "links": [],
        "cross_references": [
          {
            "type": "name_match",
            "text": "furan",
            "confidence": 1.0,
            "uuid": "96da3d2e-f46b-4100-9000-704d1a86985b",
            "name": "Furan",
            "url": "https://haz-map.com/Agents/1477",
            "category": "agents"
          },
          {
            "type": "name_match",
            "text": "uracil",
            "confidence": 1.0,
            "uuid": "c0961edf-610d-41fb-8b25-bd80c4f22b92",
            "name": "Uracil",
            "url": "https://haz-map.com/Agents/18531",
            "category": "agents"
          }
        ]
      },
      "category": {
        "original_name": "Category",
        "value": "Nucleic Acids and Derivatives",
        "links": [],
        "cross_references": []
      },
      "description": {
        "original_name": "Description",
        "value": "Solid; [Merck Index] White powder; [Alfa Aesar MSDS]",
        "links": [],
        "cross_references": []
      },
      "sourcesuses": {
        "original_name": "Sources/Uses",
        "value": "Nucleoside found throughout nature; [Merck Index]",
        "links": [],
        "cross_references": []
      },
      "comments": {
        "original_name": "Comments",
        "value": "Causes somnolence, other liver changes, effects on transaminases, and inflammation in acute intraperitoneal studies of mice and rats; [RTECS] May cause irritation; [Alfa Aesar MSDS]",
        "links": [],
        "cross_references": []
      },
      "biomedical_references": {
        "original_name": "Biomedical References",
        "value": "Search PubMed",
        "links": [
          {
            "text": "Search PubMed",
            "url": "https://www.ncbi.nlm.nih.gov/pubmed?term=Uridine%20AND%20human%5Bmh%5D%20AND%20%28Occupational%20Diseases%20%5Bmh%5D%20OR%20Occupational%20Exposure%20%5Bmh%5D%29%20%20AND%20%28tox%5Bsb%5D%29&cmd=search"
          }
        ],
        "cross_references": []
      }
    },
    "exposure_assessment": {
      "vapor_pressure": {
        "original_name": "Vapor Pressure",
        "value": "1.34E-15 mm Hg",
        "links": [],
        "cross_references": []
      }
    },
    "diseases_processes_and_activities_linked_to_this_agent": {
      "other_information": {
        "original_name": "Other Information",
        "value": "No other related information on this agent was found.",
        "links": [],
        "cross_references": []
      }
    }
  },
  "cross_references": [
    {
      "type": "name_match",
      "text": "furan",
      "confidence": 1.0,
      "uuid": "96da3d2e-f46b-4100-9000-704d1a86985b",
      "name": "Furan",
      "url": "https://haz-map.com/Agents/1477",
      "category": "agents"
    },
    {
      "type": "name_match",
      "text": "uracil",
      "confidence": 1.0,
      "uuid": "c0961edf-610d-41fb-8b25-bd80c4f22b92",
      "name": "Uracil",
      "url": "https://haz-map.com/Agents/18531",
      "category": "agents"
    },
    {
      "type": "name_match",
      "text": "uridine",
      "confidence": 1.0,
      "uuid": "f72298f0-4b1f-4254-bef8-c50f54c41489",
      "name": "Uridine",
      "url": "https://haz-map.com/Agents/18588",
      "category": "agents"
    }
  ],
  "all_links": [
    {
      "text": "Search PubMed",
      "url": "https://www.ncbi.nlm.nih.gov/pubmed?term=Uridine%20AND%20human%5Bmh%5D%20AND%20%28Occupational%20Diseases%20%5Bmh%5D%20OR%20Occupational%20Exposure%20%5Bmh%5D%29%20%20AND%20%28tox%5Bsb%5D%29&cmd=search"
    }
  ]
}