{
  "metadata": {
    "scraped_from": "https://haz-map.com/Agents/13069",
    "entity_name": "Demecolcine",
    "category": "agents",
    "uuid": "f7639381-2472-4c5a-8345-3771bb0bfd39",
    "scraped_at": "2025-07-23T21:12:01.782906"
  },
  "parsed_at": "2025-07-24T00:54:50.655499",
  "title": "Demecolcine",
  "sections": {
    "general": {
      "agent_name": {
        "original_name": "Agent Name",
        "value": "Demecolcine",
        "links": [],
        "cross_references": [
          {
            "type": "name_match",
            "text": "demecolcine",
            "confidence": 1.0,
            "uuid": "f7639381-2472-4c5a-8345-3771bb0bfd39",
            "name": "Demecolcine",
            "url": "https://haz-map.com/Agents/13069",
            "category": "agents"
          }
        ]
      },
      "alternative_name": {
        "original_name": "Alternative Name",
        "value": "Colcemid",
        "links": [],
        "cross_references": []
      },
      "cas_number": {
        "original_name": "CAS Number",
        "value": "477-30-5",
        "links": [],
        "cross_references": []
      },
      "formula": {
        "original_name": "Formula",
        "value": "C21-H25-N-O5",
        "links": [],
        "cross_references": []
      },
      "major_category": {
        "original_name": "Major Category",
        "value": "Other Uses",
        "links": [],
        "cross_references": []
      },
      "synonyms": {
        "original_name": "Synonyms",
        "value": "(-)-Colchamine; (-)-Demecolcine; 6,7-Dihydro-1,2,3,10-tetramethoxy-7-(methylamino)-benzo(alpha)heptalen-9(5H)-one; Alkaloid H 3, from colchicum antumnale; C-12669; Ciba 12669A; Colcemid; Colchamine; Colchicine, 7-deacetamido-7-(methylamino)-; Colchicine, N-deacetyl-N-methyl-; Deacetyl-N-methylcolchicine; Deacetylmethylcolchicine; Demecolcin; Demecolcina [INN-Spanish]; Demecolcinum [INN-Latin]; Desacetylmethylcolchicine; Desmecolcine; Kolchamin; Kolchicin [Czech]; Kolkamin; N-Deacetyl-N-methylcolchicine; N-Desacetyl-N-methylcolchicine; N-Desacetylmethylcolchicine; N-Methyl-N-deacetylcolchicine; N-Methyl-N-desacetylcolchicine; Omain; Omaine; Reichstein's F; Santavy's substance F; Substance F; X 153; Benzo(a)heptalen-9(5H)-one, 6,7-dihydro-1,2,3,10-tetramethoxy-7-(methylamino)-, (S)-; [ChemIDplus]",
        "links": [],
        "cross_references": [
          {
            "type": "name_match",
            "text": "antu",
            "confidence": 1.0,
            "uuid": "ab42ee74-03af-4b6d-be23-346575f2581d",
            "name": "ANTU",
            "url": "https://haz-map.com/Agents/298",
            "category": "agents"
          },
          {
            "type": "name_match",
            "text": "demecolcine",
            "confidence": 1.0,
            "uuid": "f7639381-2472-4c5a-8345-3771bb0bfd39",
            "name": "Demecolcine",
            "url": "https://haz-map.com/Agents/13069",
            "category": "agents"
          }
        ]
      },
      "category": {
        "original_name": "Category",
        "value": "Biochemical Research",
        "links": [],
        "cross_references": [
          {
            "type": "name_match",
            "text": "mica",
            "confidence": 1.0,
            "uuid": "433f26f1-c399-4596-b179-ce3843cfd465",
            "name": "Mica",
            "url": "https://haz-map.com/Agents/621",
            "category": "agents"
          }
        ]
      },
      "description": {
        "original_name": "Description",
        "value": "Pale yellow solid; [Merck Index] Light yellow crystalline solid; [Sigma-Aldrich MSDS]",
        "links": [],
        "cross_references": [
          {
            "type": "name_match",
            "text": "ht",
            "confidence": 1.0,
            "uuid": "764df367-8d53-4a11-81a2-31ccfe122a8d",
            "name": "HT",
            "url": "https://haz-map.com/Agents/2168",
            "category": "agents"
          },
          {
            "type": "fuzzy_match",
            "text": "crystalline",
            "matched_name": "Silica, crystalline",
            "confidence": 0.7061403508771931,
            "uuid": "f920e8a2-46df-41b7-af8d-0368a777251e",
            "category": "agents",
            "url": "https://haz-map.com/Agents/427"
          }
        ]
      },
      "sourcesuses": {
        "original_name": "Sources/Uses",
        "value": "An anti-tumor alkaloid; Used as a \"cell synchronization agent, for chromosome visualization, to induce oocyte enucleation for somatic cell cloning.\" [Merck Index]",
        "links": [],
        "cross_references": []
      },
      "comments": {
        "original_name": "Comments",
        "value": "Causes somnolence and diarrhea in intravenous lethal-dose studies of mice; [RTECS] May cause irritation; Highly toxic by ingestion; Targets bone marrow; Teratogenic and mutagenic effects observed in laboratory studies; [Sigma-Aldrich MSDS]",
        "links": [],
        "cross_references": [
          {
            "type": "name_match",
            "text": "diarrhea",
            "confidence": 1.0,
            "uuid": "001ae7b5-5f3c-42c2-bc33-81e7581abd53",
            "name": "diarrhea",
            "url": "https://haz-map.com/Findings/15",
            "category": "findings"
          }
        ]
      },
      "biomedical_references": {
        "original_name": "Biomedical References",
        "value": "Search PubMed",
        "links": [
          {
            "text": "Search PubMed",
            "url": "https://www.ncbi.nlm.nih.gov/pubmed?term=Demecolcine%20AND%20human%5Bmh%5D%20AND%20%28Occupational%20Diseases%20%5Bmh%5D%20OR%20Occupational%20Exposure%20%5Bmh%5D%29%20%20AND%20%28tox%5Bsb%5D%29&cmd=search"
          }
        ],
        "cross_references": []
      }
    },
    "exposure_assessment": {
      "vapor_pressure": {
        "original_name": "Vapor Pressure",
        "value": "1.48E-09 mm Hg",
        "links": [],
        "cross_references": []
      }
    },
    "diseases_processes_and_activities_linked_to_this_agent": {
      "other_information": {
        "original_name": "Other Information",
        "value": "No other related information on this agent was found.",
        "links": [],
        "cross_references": []
      }
    }
  },
  "cross_references": [
    {
      "type": "name_match",
      "text": "diarrhea",
      "confidence": 1.0,
      "uuid": "001ae7b5-5f3c-42c2-bc33-81e7581abd53",
      "name": "diarrhea",
      "url": "https://haz-map.com/Findings/15",
      "category": "findings"
    },
    {
      "type": "name_match",
      "text": "antu",
      "confidence": 1.0,
      "uuid": "ab42ee74-03af-4b6d-be23-346575f2581d",
      "name": "ANTU",
      "url": "https://haz-map.com/Agents/298",
      "category": "agents"
    },
    {
      "type": "name_match",
      "text": "mica",
      "confidence": 1.0,
      "uuid": "433f26f1-c399-4596-b179-ce3843cfd465",
      "name": "Mica",
      "url": "https://haz-map.com/Agents/621",
      "category": "agents"
    },
    {
      "type": "name_match",
      "text": "ht",
      "confidence": 1.0,
      "uuid": "764df367-8d53-4a11-81a2-31ccfe122a8d",
      "name": "HT",
      "url": "https://haz-map.com/Agents/2168",
      "category": "agents"
    },
    {
      "type": "name_match",
      "text": "demecolcine",
      "confidence": 1.0,
      "uuid": "f7639381-2472-4c5a-8345-3771bb0bfd39",
      "name": "Demecolcine",
      "url": "https://haz-map.com/Agents/13069",
      "category": "agents"
    },
    {
      "type": "fuzzy_match",
      "text": "crystalline",
      "matched_name": "Silica, crystalline",
      "confidence": 0.7061403508771931,
      "uuid": "f920e8a2-46df-41b7-af8d-0368a777251e",
      "category": "agents",
      "url": "https://haz-map.com/Agents/427"
    }
  ],
  "all_links": [
    {
      "text": "Search PubMed",
      "url": "https://www.ncbi.nlm.nih.gov/pubmed?term=Demecolcine%20AND%20human%5Bmh%5D%20AND%20%28Occupational%20Diseases%20%5Bmh%5D%20OR%20Occupational%20Exposure%20%5Bmh%5D%29%20%20AND%20%28tox%5Bsb%5D%29&cmd=search"
    }
  ]
}