{
  "metadata": {
    "scraped_from": "https://haz-map.com/Agents/6644",
    "entity_name": "p-Bromophenyl phenyl ether",
    "category": "agents",
    "uuid": "f774f315-9c3d-4ca4-a866-163ca4f01828",
    "scraped_at": "2025-07-23T20:03:53.285993"
  },
  "parsed_at": "2025-07-24T01:03:46.648700",
  "title": "p-Bromophenyl phenyl ether",
  "sections": {
    "general": {
      "agent_name": {
        "original_name": "Agent Name",
        "value": "p-Bromophenyl phenyl ether",
        "links": [],
        "cross_references": [
          {
            "type": "name_match",
            "text": "phenyl ether",
            "confidence": 1.0,
            "uuid": "063d5590-1868-48d4-a62d-7f1f2e8cf6d4",
            "name": "Phenyl ether",
            "url": "https://haz-map.com/Agents/591",
            "category": "agents"
          },
          {
            "type": "name_match",
            "text": "p-bromophenyl phenyl ether",
            "confidence": 1.0,
            "uuid": "f774f315-9c3d-4ca4-a866-163ca4f01828",
            "name": "p-Bromophenyl phenyl ether",
            "url": "https://haz-map.com/Agents/6644",
            "category": "agents"
          }
        ]
      },
      "cas_number": {
        "original_name": "CAS Number",
        "value": "101-55-3",
        "links": [],
        "cross_references": []
      },
      "formula": {
        "original_name": "Formula",
        "value": "C12-H9-Br-O",
        "links": [],
        "cross_references": []
      },
      "major_category": {
        "original_name": "Major Category",
        "value": "Other Classes",
        "links": [],
        "cross_references": []
      },
      "synonyms": {
        "original_name": "Synonyms",
        "value": "1-Bromo-4-phenoxybenzene; 4-Bromodiphenyl ether; 4-Bromophenoxybenzene; 4-Bromophenyl phenyl ether; Benzene, 1-bromo-4-phenoxy-; Diphenyl ether, 4-bromo-; Ether, 4-bromophenyl phenyl; Ether, p-bromophenyl phenyl; Phenyl (4-bromophenyl) ether; Phenyl ether, 4-bromo-; p-Bromodiphenyl ether; p-Bromophenoxybenzene; p-Phenoxybromobenzene; [ChemIDplus]",
        "links": [],
        "cross_references": [
          {
            "type": "name_match",
            "text": "benzene",
            "confidence": 1.0,
            "uuid": "b05124de-5f34-4c14-8f04-ccb20c3780d9",
            "name": "Benzene",
            "url": "https://haz-map.com/Agents/5",
            "category": "agents"
          },
          {
            "type": "name_match",
            "text": "phenyl ether",
            "confidence": 1.0,
            "uuid": "063d5590-1868-48d4-a62d-7f1f2e8cf6d4",
            "name": "Phenyl ether",
            "url": "https://haz-map.com/Agents/591",
            "category": "agents"
          },
          {
            "type": "name_match",
            "text": "bromobenzene",
            "confidence": 1.0,
            "uuid": "8d6cd7c3-5ba3-4909-b970-bc239418c7f1",
            "name": "Bromobenzene",
            "url": "https://haz-map.com/Agents/1889",
            "category": "agents"
          }
        ]
      },
      "category": {
        "original_name": "Category",
        "value": "Halogenated Polyaromatics",
        "links": [],
        "cross_references": []
      },
      "description": {
        "original_name": "Description",
        "value": "mp = 18.72 deg C; [HSDB] Liquid; mp = 18 deg C; [CAMEO] Colorless liquid; mp = 17-18 deg C; [MSDSonline]",
        "links": [],
        "cross_references": []
      },
      "sourcesuses": {
        "original_name": "Sources/Uses",
        "value": "Used formerly as additive flame retardant for polymers; Not commercially produced in the US; [HSDB]",
        "links": [],
        "cross_references": []
      },
      "comments": {
        "original_name": "Comments",
        "value": "May form unstable pyrophoric peroxides on exposure to air; [CAMEO]See \"Decabromodiphenyl ether.\"",
        "links": [],
        "cross_references": [
          {
            "type": "name_match",
            "text": "phenyl ether",
            "confidence": 1.0,
            "uuid": "063d5590-1868-48d4-a62d-7f1f2e8cf6d4",
            "name": "Phenyl ether",
            "url": "https://haz-map.com/Agents/591",
            "category": "agents"
          },
          {
            "type": "name_match",
            "text": "decabromodiphenyl ether",
            "confidence": 1.0,
            "uuid": "38394693-98de-4293-bd52-0ef5b2173305",
            "name": "Decabromodiphenyl ether",
            "url": "https://haz-map.com/Agents/4660",
            "category": "agents"
          }
        ]
      },
      "biomedical_references": {
        "original_name": "Biomedical References",
        "value": "Search PubMed",
        "links": [
          {
            "text": "Search PubMed",
            "url": "https://www.ncbi.nlm.nih.gov/pubmed?term=p-Bromophenyl+phenyl+ether%20AND%20human%5Bmh%5D%20AND%20%28Occupational%20Diseases%20%5Bmh%5D%20OR%20Occupational%20Exposure%20%5Bmh%5D%29%20%20AND%20%28tox%5Bsb%5D%29&cmd=search"
          }
        ],
        "cross_references": []
      }
    },
    "exposure_assessment": {
      "vapor_pressure": {
        "original_name": "Vapor Pressure",
        "value": "0.0015 mm Hg",
        "links": [],
        "cross_references": []
      }
    },
    "adverse_effects": {
      "hepatotoxin": {
        "original_name": "Hepatotoxin",
        "value": "Hepatoxic (a) from occupational exposure (secondary effect) or (b) in animal studies or in humans after ingestion",
        "links": [],
        "cross_references": []
      }
    },
    "diseases_processes_and_activities_linked_to_this_agent": {
      "other_information": {
        "original_name": "Other Information",
        "value": "No other related information on this agent was found.",
        "links": [],
        "cross_references": []
      }
    }
  },
  "cross_references": [
    {
      "type": "name_match",
      "text": "benzene",
      "confidence": 1.0,
      "uuid": "b05124de-5f34-4c14-8f04-ccb20c3780d9",
      "name": "Benzene",
      "url": "https://haz-map.com/Agents/5",
      "category": "agents"
    },
    {
      "type": "name_match",
      "text": "phenyl ether",
      "confidence": 1.0,
      "uuid": "063d5590-1868-48d4-a62d-7f1f2e8cf6d4",
      "name": "Phenyl ether",
      "url": "https://haz-map.com/Agents/591",
      "category": "agents"
    },
    {
      "type": "name_match",
      "text": "bromobenzene",
      "confidence": 1.0,
      "uuid": "8d6cd7c3-5ba3-4909-b970-bc239418c7f1",
      "name": "Bromobenzene",
      "url": "https://haz-map.com/Agents/1889",
      "category": "agents"
    },
    {
      "type": "name_match",
      "text": "decabromodiphenyl ether",
      "confidence": 1.0,
      "uuid": "38394693-98de-4293-bd52-0ef5b2173305",
      "name": "Decabromodiphenyl ether",
      "url": "https://haz-map.com/Agents/4660",
      "category": "agents"
    },
    {
      "type": "name_match",
      "text": "p-bromophenyl phenyl ether",
      "confidence": 1.0,
      "uuid": "f774f315-9c3d-4ca4-a866-163ca4f01828",
      "name": "p-Bromophenyl phenyl ether",
      "url": "https://haz-map.com/Agents/6644",
      "category": "agents"
    }
  ],
  "all_links": [
    {
      "text": "Search PubMed",
      "url": "https://www.ncbi.nlm.nih.gov/pubmed?term=p-Bromophenyl+phenyl+ether%20AND%20human%5Bmh%5D%20AND%20%28Occupational%20Diseases%20%5Bmh%5D%20OR%20Occupational%20Exposure%20%5Bmh%5D%29%20%20AND%20%28tox%5Bsb%5D%29&cmd=search"
    }
  ]
}