{
  "metadata": {
    "scraped_from": "https://haz-map.com/Agents/13026",
    "entity_name": "Chrysin",
    "category": "agents",
    "uuid": "f7b153fd-f1a3-4a15-af6c-7f53563b7065",
    "scraped_at": "2025-07-23T21:11:45.257832"
  },
  "parsed_at": "2025-07-24T01:08:57.730740",
  "title": "Chrysin",
  "sections": {
    "general": {
      "agent_name": {
        "original_name": "Agent Name",
        "value": "Chrysin",
        "links": [],
        "cross_references": [
          {
            "type": "name_match",
            "text": "chrysin",
            "confidence": 1.0,
            "uuid": "f7b153fd-f1a3-4a15-af6c-7f53563b7065",
            "name": "Chrysin",
            "url": "https://haz-map.com/Agents/13026",
            "category": "agents"
          }
        ]
      },
      "cas_number": {
        "original_name": "CAS Number",
        "value": "480-40-0",
        "links": [],
        "cross_references": []
      },
      "formula": {
        "original_name": "Formula",
        "value": "C15-H10-O4",
        "links": [],
        "cross_references": []
      },
      "major_category": {
        "original_name": "Major Category",
        "value": "Biological Agents",
        "links": [],
        "cross_references": []
      },
      "synonyms": {
        "original_name": "Synonyms",
        "value": "5,7-Dihydroxy-2-phenyl-4H-1-benzopyran-4-one; 5,7-Dihydroxyflavone; 4H-1-Benzopyran-4-one, 5,7-dihydroxy-2-phenyl- (9CI); 5,7-Dihydroxy-2-phenyl-4H-benzo(b)pyran-4-one; Flavone, 5,7-dihydroxy-; [ChemIDplus] Chrysidenon; [Merck Index]",
        "links": [],
        "cross_references": []
      },
      "category": {
        "original_name": "Category",
        "value": "Wood Dusts & Extracts",
        "links": [],
        "cross_references": []
      },
      "description": {
        "original_name": "Description",
        "value": "Light yellow solid; [Merck Index] Yellow powder; [Alfa Aesar MSDS]",
        "links": [],
        "cross_references": [
          {
            "type": "name_match",
            "text": "ht",
            "confidence": 1.0,
            "uuid": "764df367-8d53-4a11-81a2-31ccfe122a8d",
            "name": "HT",
            "url": "https://haz-map.com/Agents/2168",
            "category": "agents"
          }
        ]
      },
      "sourcesuses": {
        "original_name": "Sources/Uses",
        "value": "From heartwood of Pinus monticola; [Merck Index]",
        "links": [],
        "cross_references": []
      },
      "comments": {
        "original_name": "Comments",
        "value": "May cause irritation; [Alfa Aesar MSDS]",
        "links": [],
        "cross_references": []
      },
      "biomedical_references": {
        "original_name": "Biomedical References",
        "value": "Search PubMed",
        "links": [
          {
            "text": "Search PubMed",
            "url": "https://www.ncbi.nlm.nih.gov/pubmed?term=Chrysin%20AND%20human%5Bmh%5D%20AND%20%28Occupational%20Diseases%20%5Bmh%5D%20OR%20Occupational%20Exposure%20%5Bmh%5D%29%20%20AND%20%28tox%5Bsb%5D%29&cmd=search"
          }
        ],
        "cross_references": []
      }
    },
    "exposure_assessment": {
      "vapor_pressure": {
        "original_name": "Vapor Pressure",
        "value": "1.57E-09 mm Hg",
        "links": [],
        "cross_references": []
      }
    },
    "diseases_processes_and_activities_linked_to_this_agent": {
      "other_information": {
        "original_name": "Other Information",
        "value": "No other related information on this agent was found.",
        "links": [],
        "cross_references": []
      }
    }
  },
  "cross_references": [
    {
      "type": "name_match",
      "text": "ht",
      "confidence": 1.0,
      "uuid": "764df367-8d53-4a11-81a2-31ccfe122a8d",
      "name": "HT",
      "url": "https://haz-map.com/Agents/2168",
      "category": "agents"
    },
    {
      "type": "name_match",
      "text": "chrysin",
      "confidence": 1.0,
      "uuid": "f7b153fd-f1a3-4a15-af6c-7f53563b7065",
      "name": "Chrysin",
      "url": "https://haz-map.com/Agents/13026",
      "category": "agents"
    }
  ],
  "all_links": [
    {
      "text": "Search PubMed",
      "url": "https://www.ncbi.nlm.nih.gov/pubmed?term=Chrysin%20AND%20human%5Bmh%5D%20AND%20%28Occupational%20Diseases%20%5Bmh%5D%20OR%20Occupational%20Exposure%20%5Bmh%5D%29%20%20AND%20%28tox%5Bsb%5D%29&cmd=search"
    }
  ]
}