{
  "metadata": {
    "scraped_from": "https://haz-map.com/Agents/12525",
    "entity_name": "n-Butyl n-butyrate",
    "category": "agents",
    "uuid": "f7f3bd0d-1d06-4177-88a4-9a2c0d560cff",
    "scraped_at": "2025-07-23T21:08:25.169692"
  },
  "parsed_at": "2025-07-24T01:14:36.591576",
  "title": "n-Butyl n-butyrate",
  "sections": {
    "general": {
      "agent_name": {
        "original_name": "Agent Name",
        "value": "n-Butyl n-butyrate",
        "links": [],
        "cross_references": [
          {
            "type": "name_match",
            "text": "n-butyl n-butyrate",
            "confidence": 1.0,
            "uuid": "f7f3bd0d-1d06-4177-88a4-9a2c0d560cff",
            "name": "n-Butyl n-butyrate",
            "url": "https://haz-map.com/Agents/12525",
            "category": "agents"
          }
        ]
      },
      "cas_number": {
        "original_name": "CAS Number",
        "value": "109-21-7",
        "links": [],
        "cross_references": []
      },
      "formula": {
        "original_name": "Formula",
        "value": "C8-H16-O2",
        "links": [],
        "cross_references": []
      },
      "major_category": {
        "original_name": "Major Category",
        "value": "Solvents",
        "links": [],
        "cross_references": []
      },
      "synonyms": {
        "original_name": "Synonyms",
        "value": "1-Butyl butyrate; Butanoic acid, butyl ester; Butyl butanoate; Butyl butylate; Butyl butyrate; Butyl butyrate (natural); Butyric acid, butyl ester; n-Butyl butanoate; n-Butyl butyrate; [ChemIDplus]",
        "links": [],
        "cross_references": [
          {
            "type": "name_match",
            "text": "butyric acid",
            "confidence": 1.0,
            "uuid": "a59c4184-bd52-40af-8450-80d14bbee018",
            "name": "Butyric acid",
            "url": "https://haz-map.com/Agents/1391",
            "category": "agents"
          },
          {
            "type": "name_match",
            "text": "butylate",
            "confidence": 1.0,
            "uuid": "b12d0560-252c-45cd-b876-db833a25c2a7",
            "name": "Butylate",
            "url": "https://haz-map.com/Agents/4040",
            "category": "agents"
          }
        ]
      },
      "category": {
        "original_name": "Category",
        "value": "Esters (<C12)",
        "links": [],
        "cross_references": []
      },
      "description": {
        "original_name": "Description",
        "value": "Liquid; [Merck Index] Colorless liquid with an ester-like odor; [CHRIS] Colorless liquid with an odor like pineapple; [Acros Organics MSDS]",
        "links": [],
        "cross_references": []
      },
      "sourcesuses": {
        "original_name": "Sources/Uses",
        "value": "Permitted for use as an inert ingredient in non-food pesticide products; [EPA] Used as flavoring agent or adjuvant; [FDA] Used to make printed circuit boards and in the flavoring and fragrance industries; [OSHA]",
        "links": [],
        "cross_references": []
      },
      "comments": {
        "original_name": "Comments",
        "value": "A moderate skin irritant; [RTECS] A mild skin and eye irritant; [CAMEO] A skin and eye irritant; Inhalation or ingestion may cause headache, dizziness, nausea, vomiting, and narcosis; [CHRIS] A moderate eye, mucous membrane, and respiratory tract irritant; [OSHA] Safe when used as a flavoring agent in food; [JECFA] An irritant; Vapors may cause dizziness or suffocation; Narcotic in high concentrations; [Acros Organics MSDS]",
        "links": [],
        "cross_references": [
          {
            "type": "name_match",
            "text": "nausea, vomiting",
            "confidence": 1.0,
            "uuid": "05a86649-6de9-4497-b905-fed87695c637",
            "name": "nausea, vomiting",
            "url": "https://haz-map.com/Findings/10",
            "category": "findings"
          },
          {
            "type": "name_match",
            "text": "dizziness",
            "confidence": 1.0,
            "uuid": "4b0e6043-b228-49de-996c-b42ec8b3780e",
            "name": "dizziness",
            "url": "https://haz-map.com/Findings/16",
            "category": "findings"
          },
          {
            "type": "name_match",
            "text": "headache",
            "confidence": 1.0,
            "uuid": "a474a38d-66ac-44da-92de-de1c781a30e7",
            "name": "headache",
            "url": "https://haz-map.com/Findings/17",
            "category": "findings"
          }
        ]
      },
      "biomedical_references": {
        "original_name": "Biomedical References",
        "value": "Search PubMed",
        "links": [
          {
            "text": "Search PubMed",
            "url": "https://www.ncbi.nlm.nih.gov/pubmed?term=n-Butyl+n-butyrate%20AND%20human%5Bmh%5D%20AND%20%28Occupational%20Diseases%20%5Bmh%5D%20OR%20Occupational%20Exposure%20%5Bmh%5D%29%20%20AND%20%28tox%5Bsb%5D%29&cmd=search"
          }
        ],
        "cross_references": []
      }
    },
    "exposure_assessment": {
      "vapor_pressure": {
        "original_name": "Vapor Pressure",
        "value": "1.81 mm Hg",
        "links": [],
        "cross_references": []
      },
      "nfpa": {
        "original_name": "NFPA",
        "value": "high ambient temp required",
        "links": [],
        "cross_references": []
      }
    },
    "adverse_effects": {
      "neurotoxin": {
        "original_name": "Neurotoxin",
        "value": "Acute solvent syndrome",
        "links": [],
        "cross_references": []
      }
    },
    "diseases_processes_and_activities_linked_to_this_agent": {
      "diseases": {
        "original_name": "Diseases",
        "value": "Occupational diseases associated with exposure to this agent: Solvents, acute toxic effect",
        "links": [
          {
            "text": "Solvents, acute toxic effect",
            "url": "https://haz-map.com/Diseases/326"
          }
        ],
        "cross_references": [
          {
            "type": "url_match",
            "text": "Solvents, acute toxic effect",
            "url": "https://haz-map.com/Diseases/326",
            "confidence": 1.0,
            "uuid": "581e90e3-9d0c-45f0-aa6c-3468c28da129",
            "name": "Solvents, acute toxic effect",
            "category": "diseases"
          }
        ]
      }
    }
  },
  "cross_references": [
    {
      "type": "url_match",
      "text": "Solvents, acute toxic effect",
      "url": "https://haz-map.com/Diseases/326",
      "confidence": 1.0,
      "uuid": "581e90e3-9d0c-45f0-aa6c-3468c28da129",
      "name": "Solvents, acute toxic effect",
      "category": "diseases"
    },
    {
      "type": "name_match",
      "text": "nausea, vomiting",
      "confidence": 1.0,
      "uuid": "05a86649-6de9-4497-b905-fed87695c637",
      "name": "nausea, vomiting",
      "url": "https://haz-map.com/Findings/10",
      "category": "findings"
    },
    {
      "type": "name_match",
      "text": "dizziness",
      "confidence": 1.0,
      "uuid": "4b0e6043-b228-49de-996c-b42ec8b3780e",
      "name": "dizziness",
      "url": "https://haz-map.com/Findings/16",
      "category": "findings"
    },
    {
      "type": "name_match",
      "text": "headache",
      "confidence": 1.0,
      "uuid": "a474a38d-66ac-44da-92de-de1c781a30e7",
      "name": "headache",
      "url": "https://haz-map.com/Findings/17",
      "category": "findings"
    },
    {
      "type": "name_match",
      "text": "butyric acid",
      "confidence": 1.0,
      "uuid": "a59c4184-bd52-40af-8450-80d14bbee018",
      "name": "Butyric acid",
      "url": "https://haz-map.com/Agents/1391",
      "category": "agents"
    },
    {
      "type": "name_match",
      "text": "butylate",
      "confidence": 1.0,
      "uuid": "b12d0560-252c-45cd-b876-db833a25c2a7",
      "name": "Butylate",
      "url": "https://haz-map.com/Agents/4040",
      "category": "agents"
    },
    {
      "type": "name_match",
      "text": "n-butyl n-butyrate",
      "confidence": 1.0,
      "uuid": "f7f3bd0d-1d06-4177-88a4-9a2c0d560cff",
      "name": "n-Butyl n-butyrate",
      "url": "https://haz-map.com/Agents/12525",
      "category": "agents"
    }
  ],
  "all_links": [
    {
      "text": "Search PubMed",
      "url": "https://www.ncbi.nlm.nih.gov/pubmed?term=n-Butyl+n-butyrate%20AND%20human%5Bmh%5D%20AND%20%28Occupational%20Diseases%20%5Bmh%5D%20OR%20Occupational%20Exposure%20%5Bmh%5D%29%20%20AND%20%28tox%5Bsb%5D%29&cmd=search"
    },
    {
      "text": "Solvents, acute toxic effect",
      "url": "https://haz-map.com/Diseases/326"
    }
  ]
}