{
  "metadata": {
    "scraped_from": "https://haz-map.com/Agents/21447",
    "entity_name": "Perfluoro-n-nonanoic acid",
    "category": "agents",
    "uuid": "f850d81f-9abf-4ae4-9ce5-cb86c11befc4",
    "scraped_at": "2025-07-23T22:44:09.337848"
  },
  "parsed_at": "2025-07-24T01:15:15.600358",
  "title": "Perfluoro-n-nonanoic acid",
  "sections": {
    "general": {
      "agent_name": {
        "original_name": "Agent Name",
        "value": "Perfluoro-n-nonanoic acid",
        "links": [],
        "cross_references": [
          {
            "type": "name_match",
            "text": "nonanoic acid",
            "confidence": 1.0,
            "uuid": "6e6fd588-0c9d-45b3-a3e5-bf3b150b712b",
            "name": "Nonanoic acid",
            "url": "https://haz-map.com/Agents/6387",
            "category": "agents"
          },
          {
            "type": "name_match",
            "text": "perfluoro-n-nonanoic acid",
            "confidence": 1.0,
            "uuid": "f850d81f-9abf-4ae4-9ce5-cb86c11befc4",
            "name": "Perfluoro-n-nonanoic acid",
            "url": "https://haz-map.com/Agents/21447",
            "category": "agents"
          }
        ]
      },
      "cas_number": {
        "original_name": "CAS Number",
        "value": "375-95-1",
        "links": [],
        "cross_references": []
      },
      "formula": {
        "original_name": "Formula",
        "value": "C9-H-F17-O2",
        "links": [],
        "cross_references": []
      },
      "major_category": {
        "original_name": "Major Category",
        "value": "Other Classes",
        "links": [],
        "cross_references": []
      },
      "synonyms": {
        "original_name": "Synonyms",
        "value": "Nonanoic acid, 2,2,3,3,4,4,5,5,6,6,7,7,8,8,9,9,9-heptadecafluoro-; Nonanoic acid, heptadecafluoro-; Perfluorononan-1-oic acid; [ChemIDplus] PFNA; [HSDB] 2,2,3,3,4,4,5,5,6,6,7,7,8,8,9,9,9-Heptadecafluorononanoic acid; [ECHA - Proposal for Harmonised Classification and Labelling] Heptadecafluorononanoic acid; Perfluorononanoic acid; [Sigma-Aldrich MSDS]",
        "links": [],
        "cross_references": [
          {
            "type": "name_match",
            "text": "nonanoic acid",
            "confidence": 1.0,
            "uuid": "6e6fd588-0c9d-45b3-a3e5-bf3b150b712b",
            "name": "Nonanoic acid",
            "url": "https://haz-map.com/Agents/6387",
            "category": "agents"
          }
        ]
      },
      "category": {
        "original_name": "Category",
        "value": "Perfluoroalkyl Acids",
        "links": [],
        "cross_references": []
      },
      "description": {
        "original_name": "Description",
        "value": "Beige crystalline solid; [Sigma-Aldrich MSDS]",
        "links": [],
        "cross_references": [
          {
            "type": "fuzzy_match",
            "text": "crystalline",
            "matched_name": "Silica, crystalline",
            "confidence": 0.7061403508771931,
            "uuid": "f920e8a2-46df-41b7-af8d-0368a777251e",
            "category": "agents",
            "url": "https://haz-map.com/Agents/427"
          }
        ]
      },
      "sourcesuses": {
        "original_name": "Sources/Uses",
        "value": "Used as a surfactant; [HSDB] Used mainly as a processing aid in the manufacture of fluoropolymers; Also as a lubricating oil additive, surfactant for fire extinguishers, cleaning agent, textile finishing agent, polishing surfactant, and in liquid crystal display panels; [ExPub: ECHA - Proposal for Harmonised Classification and Labelling]",
        "links": [],
        "cross_references": []
      },
      "comments": {
        "original_name": "Comments",
        "value": "Causes changes in spleen, inflammation, changes in blood serum composition, androgenic and estrogenic effects, and effects on enzymes in acute oral studies of rats; [RTECS] A skin and strong eye irritant; [Sigma-Aldrich MSDS] \"Serum PFAS concentrations were not associated with increased cardiometabolic risk measures in this population of firefighters.\" [ PMID 33105404 ] See \"Perfluorodecanoic acid.\" See \"Perfluorooctane sulfonic acid.\"",
        "links": [
          {
            "text": "PMID 33105404",
            "url": "https://www.ncbi.nlm.nih.gov/pubmed/33105404"
          }
        ],
        "cross_references": [
          {
            "type": "name_match",
            "text": "octane",
            "confidence": 1.0,
            "uuid": "feb2932c-69c5-4142-b6b6-bde017998940",
            "name": "Octane",
            "url": "https://haz-map.com/Agents/106",
            "category": "agents"
          },
          {
            "type": "name_match",
            "text": "enzymes",
            "confidence": 1.0,
            "uuid": "fe84a5f3-127f-4a3f-bd93-9a905dddee93",
            "name": "ENZYMES",
            "url": "https://haz-map.com/Agents/741",
            "category": "agents"
          },
          {
            "type": "name_match",
            "text": "ht",
            "confidence": 1.0,
            "uuid": "764df367-8d53-4a11-81a2-31ccfe122a8d",
            "name": "HT",
            "url": "https://haz-map.com/Agents/2168",
            "category": "agents"
          },
          {
            "type": "name_match",
            "text": "perfluorooctane sulfonic acid",
            "confidence": 1.0,
            "uuid": "46f639ba-2369-4a45-ad87-6e2af19c8175",
            "name": "Perfluorooctane sulfonic acid",
            "url": "https://haz-map.com/Agents/6595",
            "category": "agents"
          },
          {
            "type": "name_match",
            "text": "perfluorodecanoic acid",
            "confidence": 1.0,
            "uuid": "fd7177e5-1ad2-4ee0-8330-bf4107fd5193",
            "name": "Perfluorodecanoic acid",
            "url": "https://haz-map.com/Agents/21444",
            "category": "agents"
          }
        ]
      },
      "biomedical_references": {
        "original_name": "Biomedical References",
        "value": "Search PubMed",
        "links": [
          {
            "text": "Search PubMed",
            "url": "https://www.ncbi.nlm.nih.gov/pubmed?term=Perfluoro-n-nonanoic+acid%20AND%20human%5Bmh%5D%20AND%20%28Occupational%20Diseases%20%5Bmh%5D%20OR%20Occupational%20Exposure%20%5Bmh%5D%29%20%20AND%20%28tox%5Bsb%5D%29&cmd=search"
          }
        ],
        "cross_references": []
      }
    },
    "exposure_assessment": {
      "vapor_pressure": {
        "original_name": "Vapor Pressure",
        "value": "0.083 mm Hg",
        "links": [],
        "cross_references": []
      }
    },
    "diseases_processes_and_activities_linked_to_this_agent": {
      "processes": {
        "original_name": "Processes",
        "value": "Industrial Processes with risk of exposure: Textiles (Printing, Dyeing, or Finishing)",
        "links": [
          {
            "text": "Textiles (Printing, Dyeing, or Finishing)",
            "url": "https://haz-map.com/Processes/235"
          }
        ],
        "cross_references": []
      }
    }
  },
  "cross_references": [
    {
      "type": "name_match",
      "text": "octane",
      "confidence": 1.0,
      "uuid": "feb2932c-69c5-4142-b6b6-bde017998940",
      "name": "Octane",
      "url": "https://haz-map.com/Agents/106",
      "category": "agents"
    },
    {
      "type": "name_match",
      "text": "enzymes",
      "confidence": 1.0,
      "uuid": "fe84a5f3-127f-4a3f-bd93-9a905dddee93",
      "name": "ENZYMES",
      "url": "https://haz-map.com/Agents/741",
      "category": "agents"
    },
    {
      "type": "name_match",
      "text": "ht",
      "confidence": 1.0,
      "uuid": "764df367-8d53-4a11-81a2-31ccfe122a8d",
      "name": "HT",
      "url": "https://haz-map.com/Agents/2168",
      "category": "agents"
    },
    {
      "type": "name_match",
      "text": "nonanoic acid",
      "confidence": 1.0,
      "uuid": "6e6fd588-0c9d-45b3-a3e5-bf3b150b712b",
      "name": "Nonanoic acid",
      "url": "https://haz-map.com/Agents/6387",
      "category": "agents"
    },
    {
      "type": "name_match",
      "text": "perfluorooctane sulfonic acid",
      "confidence": 1.0,
      "uuid": "46f639ba-2369-4a45-ad87-6e2af19c8175",
      "name": "Perfluorooctane sulfonic acid",
      "url": "https://haz-map.com/Agents/6595",
      "category": "agents"
    },
    {
      "type": "name_match",
      "text": "perfluorodecanoic acid",
      "confidence": 1.0,
      "uuid": "fd7177e5-1ad2-4ee0-8330-bf4107fd5193",
      "name": "Perfluorodecanoic acid",
      "url": "https://haz-map.com/Agents/21444",
      "category": "agents"
    },
    {
      "type": "name_match",
      "text": "perfluoro-n-nonanoic acid",
      "confidence": 1.0,
      "uuid": "f850d81f-9abf-4ae4-9ce5-cb86c11befc4",
      "name": "Perfluoro-n-nonanoic acid",
      "url": "https://haz-map.com/Agents/21447",
      "category": "agents"
    },
    {
      "type": "fuzzy_match",
      "text": "crystalline",
      "matched_name": "Silica, crystalline",
      "confidence": 0.7061403508771931,
      "uuid": "f920e8a2-46df-41b7-af8d-0368a777251e",
      "category": "agents",
      "url": "https://haz-map.com/Agents/427"
    }
  ],
  "all_links": [
    {
      "text": "PMID 33105404",
      "url": "https://www.ncbi.nlm.nih.gov/pubmed/33105404"
    },
    {
      "text": "Search PubMed",
      "url": "https://www.ncbi.nlm.nih.gov/pubmed?term=Perfluoro-n-nonanoic+acid%20AND%20human%5Bmh%5D%20AND%20%28Occupational%20Diseases%20%5Bmh%5D%20OR%20Occupational%20Exposure%20%5Bmh%5D%29%20%20AND%20%28tox%5Bsb%5D%29&cmd=search"
    },
    {
      "text": "Textiles (Printing, Dyeing, or Finishing)",
      "url": "https://haz-map.com/Processes/235"
    }
  ]
}