{
  "metadata": {
    "scraped_from": "https://haz-map.com/Agents/4089",
    "entity_name": "C.I. Disperse Blue 3",
    "category": "agents",
    "uuid": "f96cd019-3d8c-4abb-a1a1-e1b329396e1b",
    "scraped_at": "2025-07-23T19:37:00.489869"
  },
  "parsed_at": "2025-07-24T00:54:33.300171",
  "title": "C.I. Disperse Blue 3",
  "sections": {
    "general": {
      "agent_name": {
        "original_name": "Agent Name",
        "value": "C.I. Disperse Blue 3",
        "links": [],
        "cross_references": [
          {
            "type": "name_match",
            "text": "c.i. disperse blue 3",
            "confidence": 1.0,
            "uuid": "f96cd019-3d8c-4abb-a1a1-e1b329396e1b",
            "name": "C.I. Disperse Blue 3",
            "url": "https://haz-map.com/Agents/4089",
            "category": "agents"
          }
        ]
      },
      "cas_number": {
        "original_name": "CAS Number",
        "value": "2475-46-9",
        "links": [],
        "cross_references": []
      },
      "formula": {
        "original_name": "Formula",
        "value": "C17-H16-N2-O3",
        "links": [],
        "cross_references": []
      },
      "major_category": {
        "original_name": "Major Category",
        "value": "Dyes",
        "links": [],
        "cross_references": []
      },
      "synonyms": {
        "original_name": "Synonyms",
        "value": "9,10-Anthracenedione, 1-((2-hydroxyethyl)amino)-4-(methylamino)-; 1-MA-4OEAA [Russian]; 1-Methylamino-4-oxyethylaminoanthraquinone [Russian]; Acetate Brilliant Blue 4B; Acetoquinone Light Pure Blue R; Akasperse Blue GLF; Altocyl Brilliant Blue B; Amacel Blue BNN; Amacel Brilliant Blue B; Artisil Blue BSG; Artisil Blue BSQ; Atlantic Disperse Blue BNA; C. I. Disperse Blue 41; C. I. Disperse Blue 66; C.I. 61505; Calcosyn Sapphire Blue 2GS; Calcosyn Sapphire Blue R; Celanthrene Brilliant Blue; Celanthrene Brilliant Blue FFS; Celliton Blue FFR; Celliton Fast Blue FBBN; Celliton Fast Blue FFR; Celliton Fast Blue FFRN; Celliton Fast Blue FFRS; Celutate Blue BLT; Celutate Blue RNH; Celutate Brilliant Blue B; Cibacet Blue BNG; Cibacet Blue F3R; Cibacete Brilliant Blue BG New; Cilla Fast Blue FFR; Diacelliton Fast Brilliant Blue B; Diacelliton Fast Brilliant Blue BF; Disperse Blue 3; Disperse Blue K; Duranol Brilliant Blue B; Duranol Brilliant Blue BN; Duranol Printing Blue B; Eastman Blue BNN; Eastman Blue GBN; Fenacet Fast Blue FF; Fenacet Fast Blue FFN; Interchem Acetate Blue B; Interchem Acetate Blue NBN; Interchem Acetate Blue RBN; Interchem Acetate Blue WNBN; Kayalon Fast Blue FN; Lurafix Blue 660; Lurafix Blue FFR; Microsetile Blue FF; Microsetile Blue FFR; Miketon Brilliant Blue B; Modr Disperzni 3 [Czech]; Modr Ostacetova P3R [Czech]; Nacelan Blue KLT; Nyloquinone Pure Blue; Nyloquinone Pure Blue R; Perliton Blue FFR; Serinyl Hosiery Blue; Serinyl Hosiery Blue BG; Serisol Brilliant Blue BG; Serisol Brilliant Blue BP; Serisol Brilliant Blue FF; Setacyl Blue BN; Setacyl Blue FG; Setacyl Blue RF; Setacyl Brilliant Blue; Setacyl Brilliant Blue BG; Supracet Brilliant Blue BG; Transetile Blue P-FER; Transetile Blue P-FFR; [ChemIDplus]",
        "links": [],
        "cross_references": [
          {
            "type": "name_match",
            "text": "quinone",
            "confidence": 1.0,
            "uuid": "d01e66c3-ad06-4707-8d42-3c6655001c1a",
            "name": "Quinone",
            "url": "https://haz-map.com/Agents/303",
            "category": "agents"
          },
          {
            "type": "name_match",
            "text": "ht",
            "confidence": 1.0,
            "uuid": "764df367-8d53-4a11-81a2-31ccfe122a8d",
            "name": "HT",
            "url": "https://haz-map.com/Agents/2168",
            "category": "agents"
          },
          {
            "type": "name_match",
            "text": "anthraquinone",
            "confidence": 1.0,
            "uuid": "953f43e3-2275-41f0-9f8e-f5764f83b717",
            "name": "Anthraquinone",
            "url": "https://haz-map.com/Agents/3713",
            "category": "agents"
          },
          {
            "type": "name_match",
            "text": "anthracene",
            "confidence": 1.0,
            "uuid": "f11a62e4-1e69-4f6d-a8b7-240c9de086ff",
            "name": "Anthracene",
            "url": "https://haz-map.com/Agents/7821",
            "category": "agents"
          },
          {
            "type": "name_match",
            "text": "sapphire",
            "confidence": 1.0,
            "uuid": "44be626a-4ea6-4895-ad37-16efc5492c3b",
            "name": "Sapphire",
            "url": "https://haz-map.com/Agents/17193",
            "category": "agents"
          }
        ]
      },
      "category": {
        "original_name": "Category",
        "value": "Anthraquinone Dyes",
        "links": [],
        "cross_references": [
          {
            "type": "name_match",
            "text": "quinone",
            "confidence": 1.0,
            "uuid": "d01e66c3-ad06-4707-8d42-3c6655001c1a",
            "name": "Quinone",
            "url": "https://haz-map.com/Agents/303",
            "category": "agents"
          },
          {
            "type": "name_match",
            "text": "anthraquinone",
            "confidence": 1.0,
            "uuid": "953f43e3-2275-41f0-9f8e-f5764f83b717",
            "name": "Anthraquinone",
            "url": "https://haz-map.com/Agents/3713",
            "category": "agents"
          }
        ]
      },
      "description": {
        "original_name": "Description",
        "value": "Grey-black powder; [MSDSonline]",
        "links": [],
        "cross_references": []
      },
      "sourcesuses": {
        "original_name": "Sources/Uses",
        "value": "Used as dye for synthetic fibers (e.g., acetate, nylon, and acrylic), wool sheepskins, furs, and plastics; [HSDB]",
        "links": [],
        "cross_references": [
          {
            "type": "name_match",
            "text": "nylon",
            "confidence": 1.0,
            "uuid": "0e2f3b4e-3e5c-4698-94b9-095a82afcc37",
            "name": "Nylon",
            "url": "https://haz-map.com/Agents/16189",
            "category": "agents"
          }
        ]
      },
      "comments": {
        "original_name": "Comments",
        "value": "An irritant; Anthraquinones are toxic by ingestion: vomiting, diarrhea, kidney and liver damage, and coma; Deaths have been reported after children ingested Rhamnus berries; [HSDB] A mild eye irritant; May cause skin sensitization; [MSDSonline]",
        "links": [],
        "cross_references": [
          {
            "type": "name_match",
            "text": "diarrhea",
            "confidence": 1.0,
            "uuid": "001ae7b5-5f3c-42c2-bc33-81e7581abd53",
            "name": "diarrhea",
            "url": "https://haz-map.com/Findings/15",
            "category": "findings"
          },
          {
            "type": "name_match",
            "text": "quinone",
            "confidence": 1.0,
            "uuid": "d01e66c3-ad06-4707-8d42-3c6655001c1a",
            "name": "Quinone",
            "url": "https://haz-map.com/Agents/303",
            "category": "agents"
          },
          {
            "type": "name_match",
            "text": "anthraquinone",
            "confidence": 1.0,
            "uuid": "953f43e3-2275-41f0-9f8e-f5764f83b717",
            "name": "Anthraquinone",
            "url": "https://haz-map.com/Agents/3713",
            "category": "agents"
          }
        ]
      },
      "restricted": {
        "original_name": "Restricted",
        "value": "Banned in UE for garment dyeing because potential skin sensitizer; [Ullmann]",
        "links": [],
        "cross_references": []
      },
      "biomedical_references": {
        "original_name": "Biomedical References",
        "value": "Search PubMed",
        "links": [
          {
            "text": "Search PubMed",
            "url": "https://www.ncbi.nlm.nih.gov/pubmed?term=C.I.+Disperse+Blue+3%20AND%20human%5Bmh%5D%20AND%20%28Occupational%20Diseases%20%5Bmh%5D%20OR%20Occupational%20Exposure%20%5Bmh%5D%29%20%20AND%20%28tox%5Bsb%5D%29&cmd=search"
          }
        ],
        "cross_references": []
      }
    },
    "exposure_assessment": {
      "vapor_pressure": {
        "original_name": "Vapor Pressure",
        "value": "6.43E-12 mm Hg",
        "links": [],
        "cross_references": []
      }
    },
    "adverse_effects": {
      "skin_sensitizer": {
        "original_name": "Skin Sensitizer",
        "value": "Yes",
        "links": [],
        "cross_references": []
      },
      "hepatotoxin": {
        "original_name": "Hepatotoxin",
        "value": "Hepatoxic (a) from occupational exposure (secondary effect) or (b) in animal studies or in humans after ingestion",
        "links": [],
        "cross_references": []
      }
    },
    "diseases_processes_and_activities_linked_to_this_agent": {
      "diseases": {
        "original_name": "Diseases",
        "value": "Occupational diseases associated with exposure to this agent: Contact dermatitis, allergic",
        "links": [
          {
            "text": "Contact dermatitis, allergic",
            "url": "https://haz-map.com/Diseases/18"
          }
        ],
        "cross_references": [
          {
            "type": "url_match",
            "text": "Contact dermatitis, allergic",
            "url": "https://haz-map.com/Diseases/18",
            "confidence": 1.0,
            "uuid": "c9499de0-9aa1-41bf-8753-cd5b28a63e29",
            "name": "Contact dermatitis, allergic",
            "category": "diseases"
          },
          {
            "type": "name_match",
            "text": "dermatitis",
            "confidence": 1.0,
            "uuid": "fe9c05f2-b19f-4ceb-ac7a-ffb7d7a0cae0",
            "name": "dermatitis",
            "url": "https://haz-map.com/Findings/59",
            "category": "findings"
          }
        ]
      },
      "processes": {
        "original_name": "Processes",
        "value": "Industrial Processes with risk of exposure: Fur Dressing and Dyeing Textiles (Printing, Dyeing, or Finishing)",
        "links": [
          {
            "text": "Fur Dressing and Dyeing",
            "url": "https://haz-map.com/Processes/233"
          },
          {
            "text": "Textiles (Printing, Dyeing, or Finishing)",
            "url": "https://haz-map.com/Processes/235"
          }
        ],
        "cross_references": []
      }
    }
  },
  "cross_references": [
    {
      "type": "url_match",
      "text": "Contact dermatitis, allergic",
      "url": "https://haz-map.com/Diseases/18",
      "confidence": 1.0,
      "uuid": "c9499de0-9aa1-41bf-8753-cd5b28a63e29",
      "name": "Contact dermatitis, allergic",
      "category": "diseases"
    },
    {
      "type": "name_match",
      "text": "diarrhea",
      "confidence": 1.0,
      "uuid": "001ae7b5-5f3c-42c2-bc33-81e7581abd53",
      "name": "diarrhea",
      "url": "https://haz-map.com/Findings/15",
      "category": "findings"
    },
    {
      "type": "name_match",
      "text": "dermatitis",
      "confidence": 1.0,
      "uuid": "fe9c05f2-b19f-4ceb-ac7a-ffb7d7a0cae0",
      "name": "dermatitis",
      "url": "https://haz-map.com/Findings/59",
      "category": "findings"
    },
    {
      "type": "name_match",
      "text": "quinone",
      "confidence": 1.0,
      "uuid": "d01e66c3-ad06-4707-8d42-3c6655001c1a",
      "name": "Quinone",
      "url": "https://haz-map.com/Agents/303",
      "category": "agents"
    },
    {
      "type": "name_match",
      "text": "ht",
      "confidence": 1.0,
      "uuid": "764df367-8d53-4a11-81a2-31ccfe122a8d",
      "name": "HT",
      "url": "https://haz-map.com/Agents/2168",
      "category": "agents"
    },
    {
      "type": "name_match",
      "text": "anthraquinone",
      "confidence": 1.0,
      "uuid": "953f43e3-2275-41f0-9f8e-f5764f83b717",
      "name": "Anthraquinone",
      "url": "https://haz-map.com/Agents/3713",
      "category": "agents"
    },
    {
      "type": "name_match",
      "text": "c.i. disperse blue 3",
      "confidence": 1.0,
      "uuid": "f96cd019-3d8c-4abb-a1a1-e1b329396e1b",
      "name": "C.I. Disperse Blue 3",
      "url": "https://haz-map.com/Agents/4089",
      "category": "agents"
    },
    {
      "type": "name_match",
      "text": "anthracene",
      "confidence": 1.0,
      "uuid": "f11a62e4-1e69-4f6d-a8b7-240c9de086ff",
      "name": "Anthracene",
      "url": "https://haz-map.com/Agents/7821",
      "category": "agents"
    },
    {
      "type": "name_match",
      "text": "nylon",
      "confidence": 1.0,
      "uuid": "0e2f3b4e-3e5c-4698-94b9-095a82afcc37",
      "name": "Nylon",
      "url": "https://haz-map.com/Agents/16189",
      "category": "agents"
    },
    {
      "type": "name_match",
      "text": "sapphire",
      "confidence": 1.0,
      "uuid": "44be626a-4ea6-4895-ad37-16efc5492c3b",
      "name": "Sapphire",
      "url": "https://haz-map.com/Agents/17193",
      "category": "agents"
    }
  ],
  "all_links": [
    {
      "text": "Search PubMed",
      "url": "https://www.ncbi.nlm.nih.gov/pubmed?term=C.I.+Disperse+Blue+3%20AND%20human%5Bmh%5D%20AND%20%28Occupational%20Diseases%20%5Bmh%5D%20OR%20Occupational%20Exposure%20%5Bmh%5D%29%20%20AND%20%28tox%5Bsb%5D%29&cmd=search"
    },
    {
      "text": "Contact dermatitis, allergic",
      "url": "https://haz-map.com/Diseases/18"
    },
    {
      "text": "Fur Dressing and Dyeing",
      "url": "https://haz-map.com/Processes/233"
    },
    {
      "text": "Textiles (Printing, Dyeing, or Finishing)",
      "url": "https://haz-map.com/Processes/235"
    }
  ]
}