{
  "metadata": {
    "scraped_from": "https://haz-map.com/Agents/7594",
    "entity_name": "Triisopropanolamine",
    "category": "agents",
    "uuid": "f9e76591-e203-4afd-b8e5-2a7d7d96d401",
    "scraped_at": "2025-07-23T20:14:36.720789"
  },
  "parsed_at": "2025-07-24T01:16:34.218341",
  "title": "Triisopropanolamine",
  "sections": {
    "general": {
      "agent_name": {
        "original_name": "Agent Name",
        "value": "Triisopropanolamine",
        "links": [],
        "cross_references": [
          {
            "type": "name_match",
            "text": "triisopropanolamine",
            "confidence": 1.0,
            "uuid": "f9e76591-e203-4afd-b8e5-2a7d7d96d401",
            "name": "Triisopropanolamine",
            "url": "https://haz-map.com/Agents/7594",
            "category": "agents"
          },
          {
            "type": "name_match",
            "text": "propanolamine",
            "confidence": 1.0,
            "uuid": "78b52db3-5b9f-4736-ba30-3974704fd400",
            "name": "Propanolamine",
            "url": "https://haz-map.com/Agents/11012",
            "category": "agents"
          }
        ]
      },
      "cas_number": {
        "original_name": "CAS Number",
        "value": "122-20-3",
        "links": [],
        "cross_references": []
      },
      "formula": {
        "original_name": "Formula",
        "value": "C9-H21-N-O3",
        "links": [],
        "cross_references": []
      },
      "major_category": {
        "original_name": "Major Category",
        "value": "Nitrogen Compounds",
        "links": [],
        "cross_references": [
          {
            "type": "name_match",
            "text": "nitrogen",
            "confidence": 1.0,
            "uuid": "db5e90a9-06d2-45b9-8b81-f345a89b0bc0",
            "name": "Nitrogen",
            "url": "https://haz-map.com/Agents/1072",
            "category": "agents"
          }
        ]
      },
      "synonyms": {
        "original_name": "Synonyms",
        "value": "1,1',1''-Nitrilotri-2-propanol; 1,1',1''-Nitrilotris(2-propanol); 2-Propanol, 1,1',1''-nitrilotri-; 2-Propanol, 1,1',1''-nitrilotris-; 3,3',3\"-Nitrilotri(2-propanol); TIPA; Tri-2-propanolamine; Tri-iso-propanolamine; Tris(2-hydroxy-1-propyl)amine; Tris(2-hydroxypropyl)amine; Tris(2-propanol)amine; [ChemIDplus] UN3259",
        "links": [],
        "cross_references": [
          {
            "type": "name_match",
            "text": "propanolamine",
            "confidence": 1.0,
            "uuid": "78b52db3-5b9f-4736-ba30-3974704fd400",
            "name": "Propanolamine",
            "url": "https://haz-map.com/Agents/11012",
            "category": "agents"
          }
        ]
      },
      "category": {
        "original_name": "Category",
        "value": "Amines, Aliphatic",
        "links": [],
        "cross_references": []
      },
      "description": {
        "original_name": "Description",
        "value": "White hygroscopic solid; [ICSC] Mild ammoniacal odor; [CAMEO] White waxy solid; [MSDSonline]",
        "links": [],
        "cross_references": [
          {
            "type": "name_match",
            "text": "ammonia",
            "confidence": 1.0,
            "uuid": "4a9ab845-a2cc-47e0-ab5c-e53693380800",
            "name": "Ammonia",
            "url": "https://haz-map.com/Agents/291",
            "category": "agents"
          }
        ]
      },
      "sourcesuses": {
        "original_name": "Sources/Uses",
        "value": "Used as an emulsifying agent, rubber cross-linking agent, corrosion inhibitor in metal working fluids, and surfactant; [HSDB] Used in cyanide-free zinc plating and in the rubber industry; [CHEMINFO] Used in coatings (cross-linker and stabilizer) and pesticides (neutralizer and stabilizer); [Reference #1]",
        "links": [],
        "cross_references": [
          {
            "type": "name_match",
            "text": "zinc",
            "confidence": 1.0,
            "uuid": "4fdb846b-d1fc-4677-99fd-bdbabeadebdc",
            "name": "Zinc",
            "url": "https://haz-map.com/Agents/1920",
            "category": "agents"
          },
          {
            "type": "name_match",
            "text": "cyanide",
            "confidence": 1.0,
            "uuid": "0b4d38ba-cc5c-4386-8079-9e7ff8fb2d3a",
            "name": "Cyanide",
            "url": "https://haz-map.com/Agents/13350",
            "category": "agents"
          }
        ]
      },
      "comments": {
        "original_name": "Comments",
        "value": "A skin, respiratory tract, and severe eye irritant; [ICSC] A moderate skin and severe eye irritant in rabbits; No evidence of mutagenicity; [HSDB] An eye irritant; [eChemPortal: ESIS]",
        "links": [],
        "cross_references": []
      },
      "reference_link_1": {
        "original_name": "Reference Link #1",
        "value": "OECD SIDS: Isopropanolamines - 2009",
        "links": [
          {
            "text": "OECD SIDS: Isopropanolamines - 2009",
            "url": "http://webnet.oecd.org/Hpv/UI/handler.axd?id=92bff26c-f369-4369-87f2-4132c5bbec28"
          }
        ],
        "cross_references": [
          {
            "type": "name_match",
            "text": "propanolamine",
            "confidence": 1.0,
            "uuid": "78b52db3-5b9f-4736-ba30-3974704fd400",
            "name": "Propanolamine",
            "url": "https://haz-map.com/Agents/11012",
            "category": "agents"
          }
        ]
      },
      "biomedical_references": {
        "original_name": "Biomedical References",
        "value": "Search PubMed",
        "links": [
          {
            "text": "Search PubMed",
            "url": "https://www.ncbi.nlm.nih.gov/pubmed?term=Triisopropanolamine%20AND%20human%5Bmh%5D%20AND%20%28Occupational%20Diseases%20%5Bmh%5D%20OR%20Occupational%20Exposure%20%5Bmh%5D%29%20%20AND%20%28tox%5Bsb%5D%29&cmd=search"
          }
        ],
        "cross_references": []
      }
    },
    "exposure_assessment": {
      "vapor_pressure": {
        "original_name": "Vapor Pressure",
        "value": "1.86E-05 mm Hg",
        "links": [],
        "cross_references": []
      },
      "explanatory_notes": {
        "original_name": "Explanatory Notes",
        "value": "The Guide in the Emergency Response Guidebook is for \"Amines, solid, corrosive, n.o.s.\"",
        "links": [],
        "cross_references": []
      },
      "nfpa": {
        "original_name": "NFPA",
        "value": "must be preheated",
        "links": [],
        "cross_references": []
      }
    },
    "diseases_processes_and_activities_linked_to_this_agent": {
      "processes": {
        "original_name": "Processes",
        "value": "Industrial Processes with risk of exposure: Electroplating Farming (Pesticides) Metal Machining Painting (Pigments, Binders, and Biocides)",
        "links": [
          {
            "text": "Electroplating",
            "url": "https://haz-map.com/Processes/66"
          },
          {
            "text": "Farming (Pesticides)",
            "url": "https://haz-map.com/Processes/218"
          },
          {
            "text": "Metal Machining",
            "url": "https://haz-map.com/Processes/35"
          },
          {
            "text": "Painting (Pigments, Binders, and Biocides)",
            "url": "https://haz-map.com/Processes/145"
          }
        ],
        "cross_references": [
          {
            "type": "url_match",
            "text": "Electroplating",
            "url": "https://haz-map.com/Processes/66",
            "confidence": 1.0,
            "uuid": "ae1bd2c1-37de-4b26-82b6-47ee206af837",
            "name": "Electroplating",
            "category": "processes"
          },
          {
            "type": "url_match",
            "text": "Farming (Pesticides)",
            "url": "https://haz-map.com/Processes/218",
            "confidence": 1.0,
            "uuid": "cf1e5815-c9bb-4917-82a5-391848170b7e",
            "name": "Farming (Pesticides)",
            "category": "processes"
          },
          {
            "type": "url_match",
            "text": "Metal Machining",
            "url": "https://haz-map.com/Processes/35",
            "confidence": 1.0,
            "uuid": "742028ba-ba09-4d7c-bb80-f70af1454300",
            "name": "Metal Machining",
            "category": "processes"
          },
          {
            "type": "url_match",
            "text": "Painting (Pigments, Binders, and Biocides)",
            "url": "https://haz-map.com/Processes/145",
            "confidence": 1.0,
            "uuid": "25867878-e178-4c21-906f-d392d86b76de",
            "name": "Painting (Pigments, Binders, and Biocides)",
            "category": "processes"
          },
          {
            "type": "name_match",
            "text": "painting",
            "confidence": 1.0,
            "uuid": "19816ce9-9edf-4a86-8e64-b0cbf7dcf520",
            "name": "Painting",
            "url": "https://haz-map.com/Activities/9",
            "category": "activities"
          }
        ]
      }
    }
  },
  "cross_references": [
    {
      "type": "url_match",
      "text": "Electroplating",
      "url": "https://haz-map.com/Processes/66",
      "confidence": 1.0,
      "uuid": "ae1bd2c1-37de-4b26-82b6-47ee206af837",
      "name": "Electroplating",
      "category": "processes"
    },
    {
      "type": "url_match",
      "text": "Farming (Pesticides)",
      "url": "https://haz-map.com/Processes/218",
      "confidence": 1.0,
      "uuid": "cf1e5815-c9bb-4917-82a5-391848170b7e",
      "name": "Farming (Pesticides)",
      "category": "processes"
    },
    {
      "type": "url_match",
      "text": "Metal Machining",
      "url": "https://haz-map.com/Processes/35",
      "confidence": 1.0,
      "uuid": "742028ba-ba09-4d7c-bb80-f70af1454300",
      "name": "Metal Machining",
      "category": "processes"
    },
    {
      "type": "url_match",
      "text": "Painting (Pigments, Binders, and Biocides)",
      "url": "https://haz-map.com/Processes/145",
      "confidence": 1.0,
      "uuid": "25867878-e178-4c21-906f-d392d86b76de",
      "name": "Painting (Pigments, Binders, and Biocides)",
      "category": "processes"
    },
    {
      "type": "name_match",
      "text": "painting",
      "confidence": 1.0,
      "uuid": "19816ce9-9edf-4a86-8e64-b0cbf7dcf520",
      "name": "Painting",
      "url": "https://haz-map.com/Activities/9",
      "category": "activities"
    },
    {
      "type": "name_match",
      "text": "ammonia",
      "confidence": 1.0,
      "uuid": "4a9ab845-a2cc-47e0-ab5c-e53693380800",
      "name": "Ammonia",
      "url": "https://haz-map.com/Agents/291",
      "category": "agents"
    },
    {
      "type": "name_match",
      "text": "nitrogen",
      "confidence": 1.0,
      "uuid": "db5e90a9-06d2-45b9-8b81-f345a89b0bc0",
      "name": "Nitrogen",
      "url": "https://haz-map.com/Agents/1072",
      "category": "agents"
    },
    {
      "type": "name_match",
      "text": "zinc",
      "confidence": 1.0,
      "uuid": "4fdb846b-d1fc-4677-99fd-bdbabeadebdc",
      "name": "Zinc",
      "url": "https://haz-map.com/Agents/1920",
      "category": "agents"
    },
    {
      "type": "name_match",
      "text": "triisopropanolamine",
      "confidence": 1.0,
      "uuid": "f9e76591-e203-4afd-b8e5-2a7d7d96d401",
      "name": "Triisopropanolamine",
      "url": "https://haz-map.com/Agents/7594",
      "category": "agents"
    },
    {
      "type": "name_match",
      "text": "propanolamine",
      "confidence": 1.0,
      "uuid": "78b52db3-5b9f-4736-ba30-3974704fd400",
      "name": "Propanolamine",
      "url": "https://haz-map.com/Agents/11012",
      "category": "agents"
    },
    {
      "type": "name_match",
      "text": "cyanide",
      "confidence": 1.0,
      "uuid": "0b4d38ba-cc5c-4386-8079-9e7ff8fb2d3a",
      "name": "Cyanide",
      "url": "https://haz-map.com/Agents/13350",
      "category": "agents"
    }
  ],
  "all_links": [
    {
      "text": "OECD SIDS: Isopropanolamines - 2009",
      "url": "http://webnet.oecd.org/Hpv/UI/handler.axd?id=92bff26c-f369-4369-87f2-4132c5bbec28"
    },
    {
      "text": "Search PubMed",
      "url": "https://www.ncbi.nlm.nih.gov/pubmed?term=Triisopropanolamine%20AND%20human%5Bmh%5D%20AND%20%28Occupational%20Diseases%20%5Bmh%5D%20OR%20Occupational%20Exposure%20%5Bmh%5D%29%20%20AND%20%28tox%5Bsb%5D%29&cmd=search"
    },
    {
      "text": "Electroplating",
      "url": "https://haz-map.com/Processes/66"
    },
    {
      "text": "Farming (Pesticides)",
      "url": "https://haz-map.com/Processes/218"
    },
    {
      "text": "Metal Machining",
      "url": "https://haz-map.com/Processes/35"
    },
    {
      "text": "Painting (Pigments, Binders, and Biocides)",
      "url": "https://haz-map.com/Processes/145"
    }
  ]
}