{
  "metadata": {
    "scraped_from": "https://haz-map.com/Agents/18489",
    "entity_name": "Tyrosine",
    "category": "agents",
    "uuid": "f9f78e9e-985b-45af-8557-02c83fa04d59",
    "scraped_at": "2025-07-23T21:56:00.643999"
  },
  "parsed_at": "2025-07-24T00:51:20.472620",
  "title": "Tyrosine",
  "sections": {
    "general": {
      "agent_name": {
        "original_name": "Agent Name",
        "value": "Tyrosine",
        "links": [],
        "cross_references": [
          {
            "type": "name_match",
            "text": "tyrosine",
            "confidence": 1.0,
            "uuid": "f9f78e9e-985b-45af-8557-02c83fa04d59",
            "name": "Tyrosine",
            "url": "https://haz-map.com/Agents/18489",
            "category": "agents"
          }
        ]
      },
      "cas_number": {
        "original_name": "CAS Number",
        "value": "60-18-4",
        "links": [],
        "cross_references": []
      },
      "formula": {
        "original_name": "Formula",
        "value": "C9-H11-N-O3",
        "links": [],
        "cross_references": []
      },
      "major_category": {
        "original_name": "Major Category",
        "value": "Biological Agents",
        "links": [],
        "cross_references": []
      },
      "synonyms": {
        "original_name": "Synonyms",
        "value": "(-)-alpha-Amino-p-hydroxyhydrocinnamic acid; (S)-Tyrosine; (S)-alpha-Amino-4-hydroxybenzenepropanoic acid; 2-Amino-3-(4-hydroxyphenyl)propanoic acid, (S)-; 4-Hydroxy-L-phenylalanine; Benzenepropanoic acid, alpha-amino-4-hydroxy-, (S)-; L-2-Amino-3-p-hydroxyphenylpropanoic acid; L-Phenylalanine, 4-hydroxy-; L-Tyrosine; L-p-Tyrosine; Propanoic acid, 2-amino-3-(4-hydroxyphenyl)-, (S)-; Tirosina [Spanish]; Tyrosinum [Latin]; alpha-Amino-4-hydroxybenzenepropanoic acid, (S)-; alpha-Amino-beta-(4-hydroxyphenyl)propionic acid; alpha-Amino-p-hydroxyhydrocinnamic acid, (-)-; beta-(p-Hydroxyphenyl)alanine; p-Tyrosine; Tyrosine, L-; [ChemIDplus] Tyr; Y; alpha-Amino-p-hydroxyhydrocinnamic acid; [Merck Index]",
        "links": [],
        "cross_references": [
          {
            "type": "name_match",
            "text": "benzene",
            "confidence": 1.0,
            "uuid": "b05124de-5f34-4c14-8f04-ccb20c3780d9",
            "name": "Benzene",
            "url": "https://haz-map.com/Agents/5",
            "category": "agents"
          },
          {
            "type": "name_match",
            "text": "propionic acid",
            "confidence": 1.0,
            "uuid": "519c4d0a-ac6f-4f79-a08f-47ebc278e0b4",
            "name": "Propionic acid",
            "url": "https://haz-map.com/Agents/609",
            "category": "agents"
          },
          {
            "type": "name_match",
            "text": "hydrocinnamic acid",
            "confidence": 1.0,
            "uuid": "28fc8081-c387-4095-b941-c137a15eb862",
            "name": "Hydrocinnamic acid",
            "url": "https://haz-map.com/Agents/10825",
            "category": "agents"
          },
          {
            "type": "name_match",
            "text": "alanine",
            "confidence": 1.0,
            "uuid": "0829012c-76c4-4cb5-91ac-cacb73278dc5",
            "name": "Alanine",
            "url": "https://haz-map.com/Agents/11406",
            "category": "agents"
          },
          {
            "type": "name_match",
            "text": "cinnamic acid",
            "confidence": 1.0,
            "uuid": "36c7cc13-9a22-4833-a693-400904298b8e",
            "name": "Cinnamic acid",
            "url": "https://haz-map.com/Agents/13034",
            "category": "agents"
          },
          {
            "type": "name_match",
            "text": "phenylalanine",
            "confidence": 1.0,
            "uuid": "8be416e5-4a8c-41fd-bcc7-d2a9217599fb",
            "name": "Phenylalanine",
            "url": "https://haz-map.com/Agents/16561",
            "category": "agents"
          },
          {
            "type": "name_match",
            "text": "tyrosine",
            "confidence": 1.0,
            "uuid": "f9f78e9e-985b-45af-8557-02c83fa04d59",
            "name": "Tyrosine",
            "url": "https://haz-map.com/Agents/18489",
            "category": "agents"
          }
        ]
      },
      "category": {
        "original_name": "Category",
        "value": "Amino Acids and Derivatives",
        "links": [],
        "cross_references": []
      },
      "description": {
        "original_name": "Description",
        "value": "Solid; [Merck Index] White fine crystals and fragments; [Sigma-Aldrich MSDS]",
        "links": [],
        "cross_references": []
      },
      "sourcesuses": {
        "original_name": "Sources/Uses",
        "value": "Non-essential amino acid; Used in biochemical research; [Merck Index] Used as a flavoring agent and nutritional supplement; [FDA]",
        "links": [],
        "cross_references": [
          {
            "type": "name_match",
            "text": "mica",
            "confidence": 1.0,
            "uuid": "433f26f1-c399-4596-b179-ce3843cfd465",
            "name": "Mica",
            "url": "https://haz-map.com/Agents/621",
            "category": "agents"
          }
        ]
      },
      "comments": {
        "original_name": "Comments",
        "value": "Safe when used as a flavoring agent in food; [JECFA] A skin and strong eye irritant; [Sigma-Aldrich MSDS]",
        "links": [],
        "cross_references": []
      },
      "biomedical_references": {
        "original_name": "Biomedical References",
        "value": "Search PubMed",
        "links": [
          {
            "text": "Search PubMed",
            "url": "https://www.ncbi.nlm.nih.gov/pubmed?term=Tyrosine%20AND%20human%5Bmh%5D%20AND%20%28Occupational%20Diseases%20%5Bmh%5D%20OR%20Occupational%20Exposure%20%5Bmh%5D%29%20%20AND%20%28tox%5Bsb%5D%29&cmd=search"
          }
        ],
        "cross_references": []
      }
    },
    "exposure_assessment": {
      "vapor_pressure": {
        "original_name": "Vapor Pressure",
        "value": "1.26E-10 mm Hg",
        "links": [],
        "cross_references": []
      }
    },
    "diseases_processes_and_activities_linked_to_this_agent": {
      "other_information": {
        "original_name": "Other Information",
        "value": "No other related information on this agent was found.",
        "links": [],
        "cross_references": []
      }
    }
  },
  "cross_references": [
    {
      "type": "name_match",
      "text": "benzene",
      "confidence": 1.0,
      "uuid": "b05124de-5f34-4c14-8f04-ccb20c3780d9",
      "name": "Benzene",
      "url": "https://haz-map.com/Agents/5",
      "category": "agents"
    },
    {
      "type": "name_match",
      "text": "propionic acid",
      "confidence": 1.0,
      "uuid": "519c4d0a-ac6f-4f79-a08f-47ebc278e0b4",
      "name": "Propionic acid",
      "url": "https://haz-map.com/Agents/609",
      "category": "agents"
    },
    {
      "type": "name_match",
      "text": "mica",
      "confidence": 1.0,
      "uuid": "433f26f1-c399-4596-b179-ce3843cfd465",
      "name": "Mica",
      "url": "https://haz-map.com/Agents/621",
      "category": "agents"
    },
    {
      "type": "name_match",
      "text": "hydrocinnamic acid",
      "confidence": 1.0,
      "uuid": "28fc8081-c387-4095-b941-c137a15eb862",
      "name": "Hydrocinnamic acid",
      "url": "https://haz-map.com/Agents/10825",
      "category": "agents"
    },
    {
      "type": "name_match",
      "text": "alanine",
      "confidence": 1.0,
      "uuid": "0829012c-76c4-4cb5-91ac-cacb73278dc5",
      "name": "Alanine",
      "url": "https://haz-map.com/Agents/11406",
      "category": "agents"
    },
    {
      "type": "name_match",
      "text": "cinnamic acid",
      "confidence": 1.0,
      "uuid": "36c7cc13-9a22-4833-a693-400904298b8e",
      "name": "Cinnamic acid",
      "url": "https://haz-map.com/Agents/13034",
      "category": "agents"
    },
    {
      "type": "name_match",
      "text": "phenylalanine",
      "confidence": 1.0,
      "uuid": "8be416e5-4a8c-41fd-bcc7-d2a9217599fb",
      "name": "Phenylalanine",
      "url": "https://haz-map.com/Agents/16561",
      "category": "agents"
    },
    {
      "type": "name_match",
      "text": "tyrosine",
      "confidence": 1.0,
      "uuid": "f9f78e9e-985b-45af-8557-02c83fa04d59",
      "name": "Tyrosine",
      "url": "https://haz-map.com/Agents/18489",
      "category": "agents"
    }
  ],
  "all_links": [
    {
      "text": "Search PubMed",
      "url": "https://www.ncbi.nlm.nih.gov/pubmed?term=Tyrosine%20AND%20human%5Bmh%5D%20AND%20%28Occupational%20Diseases%20%5Bmh%5D%20OR%20Occupational%20Exposure%20%5Bmh%5D%29%20%20AND%20%28tox%5Bsb%5D%29&cmd=search"
    }
  ]
}