{
  "metadata": {
    "scraped_from": "https://haz-map.com/Agents/9229",
    "entity_name": "Trifluoroacetic anhydride",
    "category": "agents",
    "uuid": "fa46d9bd-f424-4348-847b-1e80d076c61d",
    "scraped_at": "2025-07-23T20:33:55.331130"
  },
  "parsed_at": "2025-07-24T00:59:54.872855",
  "title": "Trifluoroacetic anhydride",
  "sections": {
    "general": {
      "agent_name": {
        "original_name": "Agent Name",
        "value": "Trifluoroacetic anhydride",
        "links": [],
        "cross_references": [
          {
            "type": "name_match",
            "text": "acetic anhydride",
            "confidence": 1.0,
            "uuid": "d999416b-bca8-4a34-926c-407efd386923",
            "name": "Acetic anhydride",
            "url": "https://haz-map.com/Agents/208",
            "category": "agents"
          },
          {
            "type": "name_match",
            "text": "trifluoroacetic anhydride",
            "confidence": 1.0,
            "uuid": "fa46d9bd-f424-4348-847b-1e80d076c61d",
            "name": "Trifluoroacetic anhydride",
            "url": "https://haz-map.com/Agents/9229",
            "category": "agents"
          }
        ]
      },
      "cas_number": {
        "original_name": "CAS Number",
        "value": "407-25-0",
        "links": [],
        "cross_references": []
      },
      "formula": {
        "original_name": "Formula",
        "value": "C4-F6-O3",
        "links": [],
        "cross_references": []
      },
      "major_category": {
        "original_name": "Major Category",
        "value": "Other Classes",
        "links": [],
        "cross_references": []
      },
      "synonyms": {
        "original_name": "Synonyms",
        "value": "Anhydrid kyseliny trifluoroctove [Czech]; Bis(trifluoroacetic) anhydride; Hexafluoroacetic anhydride; Perfluoroacetic anhydride; Trifluoroacetic acid anhydride; Trifluoroacetyl anhydride; Acetic acid, 2,2,2-trifluoro-, 1,1'-anhydride; Acetic acid, trifluoro-, anhydride; [ChemIDplus] UN3265",
        "links": [],
        "cross_references": [
          {
            "type": "name_match",
            "text": "acetic acid",
            "confidence": 1.0,
            "uuid": "0905c6e4-df84-4895-a92d-658819239bbd",
            "name": "Acetic acid",
            "url": "https://haz-map.com/Agents/207",
            "category": "agents"
          },
          {
            "type": "name_match",
            "text": "acetic anhydride",
            "confidence": 1.0,
            "uuid": "d999416b-bca8-4a34-926c-407efd386923",
            "name": "Acetic anhydride",
            "url": "https://haz-map.com/Agents/208",
            "category": "agents"
          },
          {
            "type": "name_match",
            "text": "trifluoroacetic acid",
            "confidence": 1.0,
            "uuid": "fbe6e865-a4ae-4f8f-8aa9-1aa6260b3337",
            "name": "Trifluoroacetic acid",
            "url": "https://haz-map.com/Agents/1436",
            "category": "agents"
          },
          {
            "type": "name_match",
            "text": "fluoroacetic acid",
            "confidence": 1.0,
            "uuid": "74fe781f-35f7-42fc-8ae5-9900d893b1a9",
            "name": "Fluoroacetic acid",
            "url": "https://haz-map.com/Agents/5348",
            "category": "agents"
          }
        ]
      },
      "category": {
        "original_name": "Category",
        "value": "Acid Anhydrides, Other",
        "links": [],
        "cross_references": [
          {
            "type": "name_match",
            "text": "acid anhydrides",
            "confidence": 1.0,
            "uuid": "541f6a39-e623-4b95-8854-3d5fe27fdeca",
            "name": "ACID ANHYDRIDES",
            "url": "https://haz-map.com/Agents/744",
            "category": "agents"
          }
        ]
      },
      "description": {
        "original_name": "Description",
        "value": "Colorless liquid; [MSDSonline]",
        "links": [],
        "cross_references": []
      },
      "comments": {
        "original_name": "Comments",
        "value": "Corrosive to skin; [eChemPortal: ERMA] Reacts with water; A corrosive substance that can cause injury to the skin, eyes, and respiratory tract; Inhalation may cause chemical pneumonitis; [MSDSonline]",
        "links": [],
        "cross_references": [
          {
            "type": "name_match",
            "text": "mica",
            "confidence": 1.0,
            "uuid": "433f26f1-c399-4596-b179-ce3843cfd465",
            "name": "Mica",
            "url": "https://haz-map.com/Agents/621",
            "category": "agents"
          },
          {
            "type": "name_match",
            "text": "water",
            "confidence": 1.0,
            "uuid": "6f2a7557-dfd2-49bc-9b4b-a93cd8e225d4",
            "name": "Water",
            "url": "https://haz-map.com/Agents/18668",
            "category": "agents"
          }
        ]
      },
      "biomedical_references": {
        "original_name": "Biomedical References",
        "value": "Search PubMed",
        "links": [
          {
            "text": "Search PubMed",
            "url": "https://www.ncbi.nlm.nih.gov/pubmed?term=Trifluoroacetic+anhydride%20AND%20human%5Bmh%5D%20AND%20%28Occupational%20Diseases%20%5Bmh%5D%20OR%20Occupational%20Exposure%20%5Bmh%5D%29%20%20AND%20%28tox%5Bsb%5D%29&cmd=search"
          }
        ],
        "cross_references": []
      }
    },
    "exposure_assessment": {
      "vapor_pressure": {
        "original_name": "Vapor Pressure",
        "value": "41.2 mm Hg",
        "links": [],
        "cross_references": []
      },
      "explanatory_notes": {
        "original_name": "Explanatory Notes",
        "value": "The Guide in the Emergency Response Guidebook is for \"Corrosive liquid, acidic, organic, n.o.s.\"",
        "links": [],
        "cross_references": []
      }
    },
    "adverse_effects": {
      "toxic_pneumonitis": {
        "original_name": "Toxic Pneumonitis",
        "value": "Yes",
        "links": [],
        "cross_references": []
      },
      "dermatotoxin": {
        "original_name": "Dermatotoxin",
        "value": "Skin burns",
        "links": [],
        "cross_references": [
          {
            "type": "name_match",
            "text": "burn",
            "confidence": 1.0,
            "uuid": "63665de5-6376-4918-8dbf-4c10c4d63837",
            "name": "burn",
            "url": "https://haz-map.com/Findings/204",
            "category": "findings"
          }
        ]
      }
    },
    "diseases_processes_and_activities_linked_to_this_agent": {
      "other_information": {
        "original_name": "Other Information",
        "value": "No other related information on this agent was found.",
        "links": [],
        "cross_references": []
      }
    }
  },
  "cross_references": [
    {
      "type": "name_match",
      "text": "burn",
      "confidence": 1.0,
      "uuid": "63665de5-6376-4918-8dbf-4c10c4d63837",
      "name": "burn",
      "url": "https://haz-map.com/Findings/204",
      "category": "findings"
    },
    {
      "type": "name_match",
      "text": "acetic acid",
      "confidence": 1.0,
      "uuid": "0905c6e4-df84-4895-a92d-658819239bbd",
      "name": "Acetic acid",
      "url": "https://haz-map.com/Agents/207",
      "category": "agents"
    },
    {
      "type": "name_match",
      "text": "acetic anhydride",
      "confidence": 1.0,
      "uuid": "d999416b-bca8-4a34-926c-407efd386923",
      "name": "Acetic anhydride",
      "url": "https://haz-map.com/Agents/208",
      "category": "agents"
    },
    {
      "type": "name_match",
      "text": "mica",
      "confidence": 1.0,
      "uuid": "433f26f1-c399-4596-b179-ce3843cfd465",
      "name": "Mica",
      "url": "https://haz-map.com/Agents/621",
      "category": "agents"
    },
    {
      "type": "name_match",
      "text": "acid anhydrides",
      "confidence": 1.0,
      "uuid": "541f6a39-e623-4b95-8854-3d5fe27fdeca",
      "name": "ACID ANHYDRIDES",
      "url": "https://haz-map.com/Agents/744",
      "category": "agents"
    },
    {
      "type": "name_match",
      "text": "trifluoroacetic acid",
      "confidence": 1.0,
      "uuid": "fbe6e865-a4ae-4f8f-8aa9-1aa6260b3337",
      "name": "Trifluoroacetic acid",
      "url": "https://haz-map.com/Agents/1436",
      "category": "agents"
    },
    {
      "type": "name_match",
      "text": "fluoroacetic acid",
      "confidence": 1.0,
      "uuid": "74fe781f-35f7-42fc-8ae5-9900d893b1a9",
      "name": "Fluoroacetic acid",
      "url": "https://haz-map.com/Agents/5348",
      "category": "agents"
    },
    {
      "type": "name_match",
      "text": "trifluoroacetic anhydride",
      "confidence": 1.0,
      "uuid": "fa46d9bd-f424-4348-847b-1e80d076c61d",
      "name": "Trifluoroacetic anhydride",
      "url": "https://haz-map.com/Agents/9229",
      "category": "agents"
    },
    {
      "type": "name_match",
      "text": "water",
      "confidence": 1.0,
      "uuid": "6f2a7557-dfd2-49bc-9b4b-a93cd8e225d4",
      "name": "Water",
      "url": "https://haz-map.com/Agents/18668",
      "category": "agents"
    }
  ],
  "all_links": [
    {
      "text": "Search PubMed",
      "url": "https://www.ncbi.nlm.nih.gov/pubmed?term=Trifluoroacetic+anhydride%20AND%20human%5Bmh%5D%20AND%20%28Occupational%20Diseases%20%5Bmh%5D%20OR%20Occupational%20Exposure%20%5Bmh%5D%29%20%20AND%20%28tox%5Bsb%5D%29&cmd=search"
    }
  ]
}