{
  "metadata": {
    "scraped_from": "https://haz-map.com/Agents/19787",
    "entity_name": "3-Fluorobenzyl chloride",
    "category": "agents",
    "uuid": "fad606d1-f992-42e7-917d-397094a02ae2",
    "scraped_at": "2025-07-23T22:13:02.985562"
  },
  "parsed_at": "2025-07-24T01:19:15.744468",
  "title": "3-Fluorobenzyl chloride",
  "sections": {
    "general": {
      "agent_name": {
        "original_name": "Agent Name",
        "value": "3-Fluorobenzyl chloride",
        "links": [],
        "cross_references": [
          {
            "type": "name_match",
            "text": "benzyl chloride",
            "confidence": 1.0,
            "uuid": "2a21cd31-c5bb-492a-bc67-cc1db16f1507",
            "name": "Benzyl chloride",
            "url": "https://haz-map.com/Agents/305",
            "category": "agents"
          },
          {
            "type": "name_match",
            "text": "3-fluorobenzyl chloride",
            "confidence": 1.0,
            "uuid": "fad606d1-f992-42e7-917d-397094a02ae2",
            "name": "3-Fluorobenzyl chloride",
            "url": "https://haz-map.com/Agents/19787",
            "category": "agents"
          }
        ]
      },
      "cas_number": {
        "original_name": "CAS Number",
        "value": "456-42-8",
        "links": [],
        "cross_references": []
      },
      "formula": {
        "original_name": "Formula",
        "value": "C7-H6-Cl-F",
        "links": [],
        "cross_references": []
      },
      "major_category": {
        "original_name": "Major Category",
        "value": "Other Classes",
        "links": [],
        "cross_references": []
      },
      "synonyms": {
        "original_name": "Synonyms",
        "value": "1-(Chloromethyl)-3-fluorobenzene; alpha-Chloro-3-fluorotoluene; alpha-Chloro-m-fluorotoluene; m-Fluorobenzyl chloride; Benzene, 1-(chloromethyl)-3-fluoro-; Toluene, alpha-chloro-m-fluoro- (8CI); [ChemIDplus] UN2920",
        "links": [],
        "cross_references": [
          {
            "type": "name_match",
            "text": "benzene",
            "confidence": 1.0,
            "uuid": "b05124de-5f34-4c14-8f04-ccb20c3780d9",
            "name": "Benzene",
            "url": "https://haz-map.com/Agents/5",
            "category": "agents"
          },
          {
            "type": "name_match",
            "text": "toluene",
            "confidence": 1.0,
            "uuid": "0a34d5de-e924-4c47-aff5-7ae8e48c6772",
            "name": "Toluene",
            "url": "https://haz-map.com/Agents/83",
            "category": "agents"
          },
          {
            "type": "name_match",
            "text": "benzyl chloride",
            "confidence": 1.0,
            "uuid": "2a21cd31-c5bb-492a-bc67-cc1db16f1507",
            "name": "Benzyl chloride",
            "url": "https://haz-map.com/Agents/305",
            "category": "agents"
          },
          {
            "type": "name_match",
            "text": "fluorobenzene",
            "confidence": 1.0,
            "uuid": "c1a78196-9690-457b-a16d-9ca478f8d65b",
            "name": "Fluorobenzene",
            "url": "https://haz-map.com/Agents/13894",
            "category": "agents"
          },
          {
            "type": "name_match",
            "text": "m-fluorotoluene",
            "confidence": 1.0,
            "uuid": "df5e42d2-c487-47c2-94ec-bc929941b984",
            "name": "m-Fluorotoluene",
            "url": "https://haz-map.com/Agents/15642",
            "category": "agents"
          }
        ]
      },
      "category": {
        "original_name": "Category",
        "value": "Halogenated Monoaromatics",
        "links": [],
        "cross_references": []
      },
      "description": {
        "original_name": "Description",
        "value": "Colorless liquid with a pungent odor; [Alfa Aesar MSDS]",
        "links": [],
        "cross_references": []
      },
      "comments": {
        "original_name": "Comments",
        "value": "Causes burns and lachrymation; Inhalation may cause corrosive injuries to upper respiratory tract and lungs; [Alfa Aesar MSDS]",
        "links": [],
        "cross_references": [
          {
            "type": "name_match",
            "text": "burn",
            "confidence": 1.0,
            "uuid": "63665de5-6376-4918-8dbf-4c10c4d63837",
            "name": "burn",
            "url": "https://haz-map.com/Findings/204",
            "category": "findings"
          }
        ]
      },
      "biomedical_references": {
        "original_name": "Biomedical References",
        "value": "Search PubMed",
        "links": [
          {
            "text": "Search PubMed",
            "url": "https://www.ncbi.nlm.nih.gov/pubmed?term=3-Fluorobenzyl+chloride%20AND%20human%5Bmh%5D%20AND%20%28Occupational%20Diseases%20%5Bmh%5D%20OR%20Occupational%20Exposure%20%5Bmh%5D%29%20%20AND%20%28tox%5Bsb%5D%29&cmd=search"
          }
        ],
        "cross_references": []
      }
    },
    "exposure_assessment": {
      "vapor_pressure": {
        "original_name": "Vapor Pressure",
        "value": "0.994 mm Hg",
        "links": [],
        "cross_references": []
      },
      "explanatory_notes": {
        "original_name": "Explanatory Notes",
        "value": "The Guide in the Emergency Response Guidebook is for \"Corrosive liquid, flammable, n.o.s.\"",
        "links": [],
        "cross_references": []
      }
    },
    "adverse_effects": {
      "lachrymator": {
        "original_name": "Lachrymator",
        "value": "Yes",
        "links": [],
        "cross_references": []
      },
      "toxic_pneumonitis": {
        "original_name": "Toxic Pneumonitis",
        "value": "Yes",
        "links": [],
        "cross_references": []
      },
      "dermatotoxin": {
        "original_name": "Dermatotoxin",
        "value": "Skin burns",
        "links": [],
        "cross_references": [
          {
            "type": "name_match",
            "text": "burn",
            "confidence": 1.0,
            "uuid": "63665de5-6376-4918-8dbf-4c10c4d63837",
            "name": "burn",
            "url": "https://haz-map.com/Findings/204",
            "category": "findings"
          }
        ]
      }
    },
    "diseases_processes_and_activities_linked_to_this_agent": {
      "other_information": {
        "original_name": "Other Information",
        "value": "No other related information on this agent was found.",
        "links": [],
        "cross_references": []
      }
    }
  },
  "cross_references": [
    {
      "type": "name_match",
      "text": "burn",
      "confidence": 1.0,
      "uuid": "63665de5-6376-4918-8dbf-4c10c4d63837",
      "name": "burn",
      "url": "https://haz-map.com/Findings/204",
      "category": "findings"
    },
    {
      "type": "name_match",
      "text": "benzene",
      "confidence": 1.0,
      "uuid": "b05124de-5f34-4c14-8f04-ccb20c3780d9",
      "name": "Benzene",
      "url": "https://haz-map.com/Agents/5",
      "category": "agents"
    },
    {
      "type": "name_match",
      "text": "toluene",
      "confidence": 1.0,
      "uuid": "0a34d5de-e924-4c47-aff5-7ae8e48c6772",
      "name": "Toluene",
      "url": "https://haz-map.com/Agents/83",
      "category": "agents"
    },
    {
      "type": "name_match",
      "text": "benzyl chloride",
      "confidence": 1.0,
      "uuid": "2a21cd31-c5bb-492a-bc67-cc1db16f1507",
      "name": "Benzyl chloride",
      "url": "https://haz-map.com/Agents/305",
      "category": "agents"
    },
    {
      "type": "name_match",
      "text": "fluorobenzene",
      "confidence": 1.0,
      "uuid": "c1a78196-9690-457b-a16d-9ca478f8d65b",
      "name": "Fluorobenzene",
      "url": "https://haz-map.com/Agents/13894",
      "category": "agents"
    },
    {
      "type": "name_match",
      "text": "m-fluorotoluene",
      "confidence": 1.0,
      "uuid": "df5e42d2-c487-47c2-94ec-bc929941b984",
      "name": "m-Fluorotoluene",
      "url": "https://haz-map.com/Agents/15642",
      "category": "agents"
    },
    {
      "type": "name_match",
      "text": "3-fluorobenzyl chloride",
      "confidence": 1.0,
      "uuid": "fad606d1-f992-42e7-917d-397094a02ae2",
      "name": "3-Fluorobenzyl chloride",
      "url": "https://haz-map.com/Agents/19787",
      "category": "agents"
    }
  ],
  "all_links": [
    {
      "text": "Search PubMed",
      "url": "https://www.ncbi.nlm.nih.gov/pubmed?term=3-Fluorobenzyl+chloride%20AND%20human%5Bmh%5D%20AND%20%28Occupational%20Diseases%20%5Bmh%5D%20OR%20Occupational%20Exposure%20%5Bmh%5D%29%20%20AND%20%28tox%5Bsb%5D%29&cmd=search"
    }
  ]
}