{
  "metadata": {
    "scraped_from": "https://haz-map.com/Agents/3593",
    "entity_name": "alpha-Terpineol",
    "category": "agents",
    "uuid": "faf912a9-0b6e-4edc-8c5d-232f280681a6",
    "scraped_at": "2025-07-23T19:31:11.097792"
  },
  "parsed_at": "2025-07-24T00:57:20.910901",
  "title": "alpha-Terpineol",
  "sections": {
    "general": {
      "agent_name": {
        "original_name": "Agent Name",
        "value": "alpha-Terpineol",
        "links": [],
        "cross_references": [
          {
            "type": "name_match",
            "text": "alpha-terpineol",
            "confidence": 1.0,
            "uuid": "faf912a9-0b6e-4edc-8c5d-232f280681a6",
            "name": "alpha-Terpineol",
            "url": "https://haz-map.com/Agents/3593",
            "category": "agents"
          },
          {
            "type": "name_match",
            "text": "terpineol",
            "confidence": 1.0,
            "uuid": "9873daac-c5e9-4146-b0ca-3b81fd714f37",
            "name": "Terpineol",
            "url": "https://haz-map.com/Agents/17895",
            "category": "agents"
          }
        ]
      },
      "cas_number": {
        "original_name": "CAS Number",
        "value": "98-55-5",
        "links": [],
        "cross_references": []
      },
      "formula": {
        "original_name": "Formula",
        "value": "C10-H18-O",
        "links": [],
        "cross_references": []
      },
      "major_category": {
        "original_name": "Major Category",
        "value": "Biological Agents",
        "links": [],
        "cross_references": []
      },
      "synonyms": {
        "original_name": "Synonyms",
        "value": "1-Menthene-8-ol; 1-p-Menthen-8-ol; 2-(4-Methyl-3-cyclohexenyl)-2-propanol; 3-Cyclohexene-1-methanol, alpha,alpha,4-trimethyl-; PC 593; Terpenol; Terpineol 350; Terpineol schlechthin; alpha,alpha,4-Trimethyl-3-cyclohexene-1-methanol; alpha-Terpineol (natural); p-Menth-1-en-8-ol; [ChemIDplus]",
        "links": [],
        "cross_references": [
          {
            "type": "name_match",
            "text": "cyclohexene",
            "confidence": 1.0,
            "uuid": "899603b1-ebcd-41d9-a67b-1e8d7d4eee3f",
            "name": "Cyclohexene",
            "url": "https://haz-map.com/Agents/1173",
            "category": "agents"
          },
          {
            "type": "name_match",
            "text": "ht",
            "confidence": 1.0,
            "uuid": "764df367-8d53-4a11-81a2-31ccfe122a8d",
            "name": "HT",
            "url": "https://haz-map.com/Agents/2168",
            "category": "agents"
          },
          {
            "type": "name_match",
            "text": "alpha-terpineol",
            "confidence": 1.0,
            "uuid": "faf912a9-0b6e-4edc-8c5d-232f280681a6",
            "name": "alpha-Terpineol",
            "url": "https://haz-map.com/Agents/3593",
            "category": "agents"
          },
          {
            "type": "name_match",
            "text": "hexene",
            "confidence": 1.0,
            "uuid": "592a6801-2d0b-441f-b3f6-6d67971256b7",
            "name": "Hexene",
            "url": "https://haz-map.com/Agents/5534",
            "category": "agents"
          },
          {
            "type": "name_match",
            "text": "terpineol",
            "confidence": 1.0,
            "uuid": "9873daac-c5e9-4146-b0ca-3b81fd714f37",
            "name": "Terpineol",
            "url": "https://haz-map.com/Agents/17895",
            "category": "agents"
          },
          {
            "type": "name_match",
            "text": "3-cyclohexene-1-methanol",
            "confidence": 1.0,
            "uuid": "8663efa2-11d4-4009-b454-d3fe16f1eab8",
            "name": "3-Cyclohexene-1-methanol",
            "url": "https://haz-map.com/Agents/19782",
            "category": "agents"
          }
        ]
      },
      "category": {
        "original_name": "Category",
        "value": "Wood Dusts & Extracts",
        "links": [],
        "cross_references": []
      },
      "description": {
        "original_name": "Description",
        "value": "White solid with an odor of lilac; [HSDB] Some forms are liquid; [Merck Index] White low melting solid; mp = 31-32 deg C; [MSDSonline]",
        "links": [],
        "cross_references": []
      },
      "sourcesuses": {
        "original_name": "Sources/Uses",
        "value": "A major ingredient of pine oil disinfectants; Used as a fragrance in perfumes and soaps, fat denaturant for soap manufacturing, synthetic flavoring agent, organic solvent, antioxidant, and antiseptic; [HSDB]",
        "links": [],
        "cross_references": [
          {
            "type": "name_match",
            "text": "pine oil",
            "confidence": 1.0,
            "uuid": "45254f73-ffac-475e-86d2-3438e4a0b1ae",
            "name": "Pine oil",
            "url": "https://haz-map.com/Agents/9468",
            "category": "agents"
          }
        ]
      },
      "comments": {
        "original_name": "Comments",
        "value": "Histopathological changes observed in lungs of horses surviving IV injection; Moderately irritating to rabbit skin; Skin sensitization reported in two patients, but no positive reactions in volunteers or guinea pigs; Terpineols: Eye and mucous membrane irritants and CNS depressants; Emergency treatment: \"Pine oil\"; [HSDB] Included in list of \"established contact allergens in humans\"; [EC: Scientific Committee on Consumer Safety: Fragrance allergens in cosmetic products (2011)] Severely irritating to skin of mice and mildly irritating to rabbit skin; Causes flaccid paralysis, somnolence, and ataxia in oral studies of rats at >2900 mg/kg; Changes to liver and dehydrogenase levels observed in intermittent 30-day feeding study of rats; [RTECS] Safe when used as a flavoring agent in food; [JECFA] No information available on reproduction or lactation effects; [REPROTOX]",
        "links": [],
        "cross_references": [
          {
            "type": "name_match",
            "text": "hydrogen",
            "confidence": 1.0,
            "uuid": "e2d9645f-5559-4d88-b820-fc4710c154f2",
            "name": "Hydrogen",
            "url": "https://haz-map.com/Agents/1070",
            "category": "agents"
          },
          {
            "type": "name_match",
            "text": "irritants",
            "confidence": 1.0,
            "uuid": "9d2b9572-8c3e-48a4-ac68-63d6e2eb6f49",
            "name": "Irritants",
            "url": "https://haz-map.com/Agents/2063",
            "category": "agents"
          },
          {
            "type": "name_match",
            "text": "pine oil",
            "confidence": 1.0,
            "uuid": "45254f73-ffac-475e-86d2-3438e4a0b1ae",
            "name": "Pine oil",
            "url": "https://haz-map.com/Agents/9468",
            "category": "agents"
          },
          {
            "type": "name_match",
            "text": "terpineol",
            "confidence": 1.0,
            "uuid": "9873daac-c5e9-4146-b0ca-3b81fd714f37",
            "name": "Terpineol",
            "url": "https://haz-map.com/Agents/17895",
            "category": "agents"
          }
        ]
      },
      "biomedical_references": {
        "original_name": "Biomedical References",
        "value": "Search PubMed",
        "links": [
          {
            "text": "Search PubMed",
            "url": "https://www.ncbi.nlm.nih.gov/pubmed?term=alpha-Terpineol%20AND%20human%5Bmh%5D%20AND%20%28Occupational%20Diseases%20%5Bmh%5D%20OR%20Occupational%20Exposure%20%5Bmh%5D%29%20%20AND%20%28tox%5Bsb%5D%29&cmd=search"
          }
        ],
        "cross_references": []
      }
    },
    "exposure_assessment": {
      "vapor_pressure": {
        "original_name": "Vapor Pressure",
        "value": "0.0423 mm Hg",
        "links": [],
        "cross_references": []
      },
      "explanatory_notes": {
        "original_name": "Explanatory Notes",
        "value": "VP from ChemIDplus;",
        "links": [],
        "cross_references": []
      }
    },
    "adverse_effects": {
      "skin_sensitizer": {
        "original_name": "Skin Sensitizer",
        "value": "Yes",
        "links": [],
        "cross_references": []
      },
      "neurotoxin": {
        "original_name": "Neurotoxin",
        "value": "Acute solvent syndrome",
        "links": [],
        "cross_references": []
      },
      "hepatotoxin": {
        "original_name": "Hepatotoxin",
        "value": "Hepatoxic (a) from occupational exposure (secondary effect) or (b) in animal studies or in humans after ingestion",
        "links": [],
        "cross_references": []
      }
    },
    "diseases_processes_and_activities_linked_to_this_agent": {
      "diseases": {
        "original_name": "Diseases",
        "value": "Occupational diseases associated with exposure to this agent: Contact dermatitis, allergic Solvents, acute toxic effect",
        "links": [
          {
            "text": "Contact dermatitis, allergic",
            "url": "https://haz-map.com/Diseases/18"
          },
          {
            "text": "Solvents, acute toxic effect",
            "url": "https://haz-map.com/Diseases/326"
          }
        ],
        "cross_references": [
          {
            "type": "url_match",
            "text": "Contact dermatitis, allergic",
            "url": "https://haz-map.com/Diseases/18",
            "confidence": 1.0,
            "uuid": "c9499de0-9aa1-41bf-8753-cd5b28a63e29",
            "name": "Contact dermatitis, allergic",
            "category": "diseases"
          },
          {
            "type": "url_match",
            "text": "Solvents, acute toxic effect",
            "url": "https://haz-map.com/Diseases/326",
            "confidence": 1.0,
            "uuid": "581e90e3-9d0c-45f0-aa6c-3468c28da129",
            "name": "Solvents, acute toxic effect",
            "category": "diseases"
          },
          {
            "type": "name_match",
            "text": "dermatitis",
            "confidence": 1.0,
            "uuid": "fe9c05f2-b19f-4ceb-ac7a-ffb7d7a0cae0",
            "name": "dermatitis",
            "url": "https://haz-map.com/Findings/59",
            "category": "findings"
          }
        ]
      },
      "processes": {
        "original_name": "Processes",
        "value": "Industrial Processes with risk of exposure: Using Disinfectants or Biocides",
        "links": [
          {
            "text": "Using Disinfectants or Biocides",
            "url": "https://haz-map.com/Processes/167"
          }
        ],
        "cross_references": [
          {
            "type": "url_match",
            "text": "Using Disinfectants or Biocides",
            "url": "https://haz-map.com/Processes/167",
            "confidence": 1.0,
            "uuid": "7accb745-ad60-4ef8-9039-8ac4febb8fd8",
            "name": "Using Disinfectants or Biocides",
            "category": "processes"
          }
        ]
      }
    }
  },
  "cross_references": [
    {
      "type": "url_match",
      "text": "Contact dermatitis, allergic",
      "url": "https://haz-map.com/Diseases/18",
      "confidence": 1.0,
      "uuid": "c9499de0-9aa1-41bf-8753-cd5b28a63e29",
      "name": "Contact dermatitis, allergic",
      "category": "diseases"
    },
    {
      "type": "url_match",
      "text": "Solvents, acute toxic effect",
      "url": "https://haz-map.com/Diseases/326",
      "confidence": 1.0,
      "uuid": "581e90e3-9d0c-45f0-aa6c-3468c28da129",
      "name": "Solvents, acute toxic effect",
      "category": "diseases"
    },
    {
      "type": "url_match",
      "text": "Using Disinfectants or Biocides",
      "url": "https://haz-map.com/Processes/167",
      "confidence": 1.0,
      "uuid": "7accb745-ad60-4ef8-9039-8ac4febb8fd8",
      "name": "Using Disinfectants or Biocides",
      "category": "processes"
    },
    {
      "type": "name_match",
      "text": "dermatitis",
      "confidence": 1.0,
      "uuid": "fe9c05f2-b19f-4ceb-ac7a-ffb7d7a0cae0",
      "name": "dermatitis",
      "url": "https://haz-map.com/Findings/59",
      "category": "findings"
    },
    {
      "type": "name_match",
      "text": "hydrogen",
      "confidence": 1.0,
      "uuid": "e2d9645f-5559-4d88-b820-fc4710c154f2",
      "name": "Hydrogen",
      "url": "https://haz-map.com/Agents/1070",
      "category": "agents"
    },
    {
      "type": "name_match",
      "text": "cyclohexene",
      "confidence": 1.0,
      "uuid": "899603b1-ebcd-41d9-a67b-1e8d7d4eee3f",
      "name": "Cyclohexene",
      "url": "https://haz-map.com/Agents/1173",
      "category": "agents"
    },
    {
      "type": "name_match",
      "text": "irritants",
      "confidence": 1.0,
      "uuid": "9d2b9572-8c3e-48a4-ac68-63d6e2eb6f49",
      "name": "Irritants",
      "url": "https://haz-map.com/Agents/2063",
      "category": "agents"
    },
    {
      "type": "name_match",
      "text": "ht",
      "confidence": 1.0,
      "uuid": "764df367-8d53-4a11-81a2-31ccfe122a8d",
      "name": "HT",
      "url": "https://haz-map.com/Agents/2168",
      "category": "agents"
    },
    {
      "type": "name_match",
      "text": "alpha-terpineol",
      "confidence": 1.0,
      "uuid": "faf912a9-0b6e-4edc-8c5d-232f280681a6",
      "name": "alpha-Terpineol",
      "url": "https://haz-map.com/Agents/3593",
      "category": "agents"
    },
    {
      "type": "name_match",
      "text": "hexene",
      "confidence": 1.0,
      "uuid": "592a6801-2d0b-441f-b3f6-6d67971256b7",
      "name": "Hexene",
      "url": "https://haz-map.com/Agents/5534",
      "category": "agents"
    },
    {
      "type": "name_match",
      "text": "pine oil",
      "confidence": 1.0,
      "uuid": "45254f73-ffac-475e-86d2-3438e4a0b1ae",
      "name": "Pine oil",
      "url": "https://haz-map.com/Agents/9468",
      "category": "agents"
    },
    {
      "type": "name_match",
      "text": "terpineol",
      "confidence": 1.0,
      "uuid": "9873daac-c5e9-4146-b0ca-3b81fd714f37",
      "name": "Terpineol",
      "url": "https://haz-map.com/Agents/17895",
      "category": "agents"
    },
    {
      "type": "name_match",
      "text": "3-cyclohexene-1-methanol",
      "confidence": 1.0,
      "uuid": "8663efa2-11d4-4009-b454-d3fe16f1eab8",
      "name": "3-Cyclohexene-1-methanol",
      "url": "https://haz-map.com/Agents/19782",
      "category": "agents"
    }
  ],
  "all_links": [
    {
      "text": "Search PubMed",
      "url": "https://www.ncbi.nlm.nih.gov/pubmed?term=alpha-Terpineol%20AND%20human%5Bmh%5D%20AND%20%28Occupational%20Diseases%20%5Bmh%5D%20OR%20Occupational%20Exposure%20%5Bmh%5D%29%20%20AND%20%28tox%5Bsb%5D%29&cmd=search"
    },
    {
      "text": "Contact dermatitis, allergic",
      "url": "https://haz-map.com/Diseases/18"
    },
    {
      "text": "Solvents, acute toxic effect",
      "url": "https://haz-map.com/Diseases/326"
    },
    {
      "text": "Using Disinfectants or Biocides",
      "url": "https://haz-map.com/Processes/167"
    }
  ]
}