{
  "metadata": {
    "scraped_from": "https://haz-map.com/Agents/10188",
    "entity_name": "1H-Indazole",
    "category": "agents",
    "uuid": "fb2122ca-32ab-4e0d-a3be-d91cd7fe0f8f",
    "scraped_at": "2025-07-23T20:45:12.726732"
  },
  "parsed_at": "2025-07-24T01:03:42.255603",
  "title": "1H-Indazole",
  "sections": {
    "general": {
      "agent_name": {
        "original_name": "Agent Name",
        "value": "1H-Indazole",
        "links": [],
        "cross_references": [
          {
            "type": "name_match",
            "text": "1h-indazole",
            "confidence": 1.0,
            "uuid": "fb2122ca-32ab-4e0d-a3be-d91cd7fe0f8f",
            "name": "1H-Indazole",
            "url": "https://haz-map.com/Agents/10188",
            "category": "agents"
          }
        ]
      },
      "cas_number": {
        "original_name": "CAS Number",
        "value": "271-44-3",
        "links": [],
        "cross_references": []
      },
      "formula": {
        "original_name": "Formula",
        "value": "C7-H6-N2",
        "links": [],
        "cross_references": []
      },
      "major_category": {
        "original_name": "Major Category",
        "value": "Nitrogen Compounds",
        "links": [],
        "cross_references": [
          {
            "type": "name_match",
            "text": "nitrogen",
            "confidence": 1.0,
            "uuid": "db5e90a9-06d2-45b9-8b81-f345a89b0bc0",
            "name": "Nitrogen",
            "url": "https://haz-map.com/Agents/1072",
            "category": "agents"
          }
        ]
      },
      "synonyms": {
        "original_name": "Synonyms",
        "value": "1,2-Diazaindene; 1H-Benzopyrazole; 2-Azaindole; Indazole; Isoindazole; [ChemIDplus] Benzopyrazole; [Merck Index]",
        "links": [],
        "cross_references": [
          {
            "type": "name_match",
            "text": "indene",
            "confidence": 1.0,
            "uuid": "abe76b78-2986-4d49-b6e5-d1ce49774b99",
            "name": "Indene",
            "url": "https://haz-map.com/Agents/520",
            "category": "agents"
          },
          {
            "type": "name_match",
            "text": "indole",
            "confidence": 1.0,
            "uuid": "9c93731a-de8c-47f7-94f9-bfba35edd847",
            "name": "Indole",
            "url": "https://haz-map.com/Agents/5628",
            "category": "agents"
          },
          {
            "type": "name_match",
            "text": "pyrazole",
            "confidence": 1.0,
            "uuid": "fb421227-9ca1-4832-91a0-448287f10e92",
            "name": "Pyrazole",
            "url": "https://haz-map.com/Agents/17016",
            "category": "agents"
          }
        ]
      },
      "category": {
        "original_name": "Category",
        "value": "Other Nitrogen Rings",
        "links": [],
        "cross_references": [
          {
            "type": "name_match",
            "text": "nitrogen",
            "confidence": 1.0,
            "uuid": "db5e90a9-06d2-45b9-8b81-f345a89b0bc0",
            "name": "Nitrogen",
            "url": "https://haz-map.com/Agents/1072",
            "category": "agents"
          }
        ]
      },
      "description": {
        "original_name": "Description",
        "value": "Solid; [Merck Index] White crystalline powder; [Alfa Aesar MSDS]",
        "links": [],
        "cross_references": [
          {
            "type": "fuzzy_match",
            "text": "crystalline",
            "matched_name": "Silica, crystalline",
            "confidence": 0.7061403508771931,
            "uuid": "f920e8a2-46df-41b7-af8d-0368a777251e",
            "category": "agents",
            "url": "https://haz-map.com/Agents/427"
          }
        ]
      },
      "comments": {
        "original_name": "Comments",
        "value": "May cause irritation; [Alfa Aesar MSDS] See \"Benzydamine hydrochloride.\"",
        "links": [],
        "cross_references": [
          {
            "type": "name_match",
            "text": "benzydamine hydrochloride",
            "confidence": 1.0,
            "uuid": "c31148c5-6da5-4308-9123-53a563c61871",
            "name": "Benzydamine hydrochloride",
            "url": "https://haz-map.com/Agents/1266",
            "category": "agents"
          }
        ]
      },
      "biomedical_references": {
        "original_name": "Biomedical References",
        "value": "Search PubMed",
        "links": [
          {
            "text": "Search PubMed",
            "url": "https://www.ncbi.nlm.nih.gov/pubmed?term=1H-Indazole%20AND%20human%5Bmh%5D%20AND%20%28Occupational%20Diseases%20%5Bmh%5D%20OR%20Occupational%20Exposure%20%5Bmh%5D%29%20%20AND%20%28tox%5Bsb%5D%29&cmd=search"
          }
        ],
        "cross_references": []
      }
    },
    "exposure_assessment": {
      "vapor_pressure": {
        "original_name": "Vapor Pressure",
        "value": "0.00148 mm Hg",
        "links": [],
        "cross_references": []
      },
      "explanatory_notes": {
        "original_name": "Explanatory Notes",
        "value": "VP from ChemIDplus;",
        "links": [],
        "cross_references": []
      }
    },
    "diseases_processes_and_activities_linked_to_this_agent": {
      "other_information": {
        "original_name": "Other Information",
        "value": "No other related information on this agent was found.",
        "links": [],
        "cross_references": []
      }
    }
  },
  "cross_references": [
    {
      "type": "name_match",
      "text": "indene",
      "confidence": 1.0,
      "uuid": "abe76b78-2986-4d49-b6e5-d1ce49774b99",
      "name": "Indene",
      "url": "https://haz-map.com/Agents/520",
      "category": "agents"
    },
    {
      "type": "name_match",
      "text": "nitrogen",
      "confidence": 1.0,
      "uuid": "db5e90a9-06d2-45b9-8b81-f345a89b0bc0",
      "name": "Nitrogen",
      "url": "https://haz-map.com/Agents/1072",
      "category": "agents"
    },
    {
      "type": "name_match",
      "text": "benzydamine hydrochloride",
      "confidence": 1.0,
      "uuid": "c31148c5-6da5-4308-9123-53a563c61871",
      "name": "Benzydamine hydrochloride",
      "url": "https://haz-map.com/Agents/1266",
      "category": "agents"
    },
    {
      "type": "name_match",
      "text": "indole",
      "confidence": 1.0,
      "uuid": "9c93731a-de8c-47f7-94f9-bfba35edd847",
      "name": "Indole",
      "url": "https://haz-map.com/Agents/5628",
      "category": "agents"
    },
    {
      "type": "name_match",
      "text": "1h-indazole",
      "confidence": 1.0,
      "uuid": "fb2122ca-32ab-4e0d-a3be-d91cd7fe0f8f",
      "name": "1H-Indazole",
      "url": "https://haz-map.com/Agents/10188",
      "category": "agents"
    },
    {
      "type": "name_match",
      "text": "pyrazole",
      "confidence": 1.0,
      "uuid": "fb421227-9ca1-4832-91a0-448287f10e92",
      "name": "Pyrazole",
      "url": "https://haz-map.com/Agents/17016",
      "category": "agents"
    },
    {
      "type": "fuzzy_match",
      "text": "crystalline",
      "matched_name": "Silica, crystalline",
      "confidence": 0.7061403508771931,
      "uuid": "f920e8a2-46df-41b7-af8d-0368a777251e",
      "category": "agents",
      "url": "https://haz-map.com/Agents/427"
    }
  ],
  "all_links": [
    {
      "text": "Search PubMed",
      "url": "https://www.ncbi.nlm.nih.gov/pubmed?term=1H-Indazole%20AND%20human%5Bmh%5D%20AND%20%28Occupational%20Diseases%20%5Bmh%5D%20OR%20Occupational%20Exposure%20%5Bmh%5D%29%20%20AND%20%28tox%5Bsb%5D%29&cmd=search"
    }
  ]
}