{
  "metadata": {
    "scraped_from": "https://haz-map.com/Agents/17016",
    "entity_name": "Pyrazole",
    "category": "agents",
    "uuid": "fb421227-9ca1-4832-91a0-448287f10e92",
    "scraped_at": "2025-07-23T21:42:37.118582"
  },
  "parsed_at": "2025-07-24T01:12:04.071755",
  "title": "Pyrazole",
  "sections": {
    "general": {
      "agent_name": {
        "original_name": "Agent Name",
        "value": "Pyrazole",
        "links": [],
        "cross_references": [
          {
            "type": "name_match",
            "text": "pyrazole",
            "confidence": 1.0,
            "uuid": "fb421227-9ca1-4832-91a0-448287f10e92",
            "name": "Pyrazole",
            "url": "https://haz-map.com/Agents/17016",
            "category": "agents"
          }
        ]
      },
      "cas_number": {
        "original_name": "CAS Number",
        "value": "288-13-1",
        "links": [],
        "cross_references": []
      },
      "formula": {
        "original_name": "Formula",
        "value": "C3-H4-N2",
        "links": [],
        "cross_references": []
      },
      "major_category": {
        "original_name": "Major Category",
        "value": "Nitrogen Compounds",
        "links": [],
        "cross_references": [
          {
            "type": "name_match",
            "text": "nitrogen",
            "confidence": 1.0,
            "uuid": "db5e90a9-06d2-45b9-8b81-f345a89b0bc0",
            "name": "Nitrogen",
            "url": "https://haz-map.com/Agents/1072",
            "category": "agents"
          }
        ]
      },
      "synonyms": {
        "original_name": "Synonyms",
        "value": "1,2-Diazole; 1H-Pyrazole; [ChemIDplus]",
        "links": [],
        "cross_references": [
          {
            "type": "name_match",
            "text": "pyrazole",
            "confidence": 1.0,
            "uuid": "fb421227-9ca1-4832-91a0-448287f10e92",
            "name": "Pyrazole",
            "url": "https://haz-map.com/Agents/17016",
            "category": "agents"
          }
        ]
      },
      "category": {
        "original_name": "Category",
        "value": "Pyrazoles",
        "links": [],
        "cross_references": [
          {
            "type": "name_match",
            "text": "pyrazole",
            "confidence": 1.0,
            "uuid": "fb421227-9ca1-4832-91a0-448287f10e92",
            "name": "Pyrazole",
            "url": "https://haz-map.com/Agents/17016",
            "category": "agents"
          }
        ]
      },
      "description": {
        "original_name": "Description",
        "value": "Solid with an odor like pyridine; [Merck Index] Colorless crystalline solid; [Sigma-Aldrich MSDS]",
        "links": [],
        "cross_references": [
          {
            "type": "name_match",
            "text": "pyridine",
            "confidence": 1.0,
            "uuid": "a2d916a4-844b-4df6-9be5-868b2b364d71",
            "name": "Pyridine",
            "url": "https://haz-map.com/Agents/616",
            "category": "agents"
          },
          {
            "type": "fuzzy_match",
            "text": "crystalline",
            "matched_name": "Silica, crystalline",
            "confidence": 0.7061403508771931,
            "uuid": "f920e8a2-46df-41b7-af8d-0368a777251e",
            "category": "agents",
            "url": "https://haz-map.com/Agents/427"
          }
        ]
      },
      "sourcesuses": {
        "original_name": "Sources/Uses",
        "value": "Used as a chelating agent and in organic synthesis; [Merck Index]",
        "links": [],
        "cross_references": []
      },
      "comments": {
        "original_name": "Comments",
        "value": "Equivocal evidence of teratogenicity in mice; Teratogenic effects observed in intraperitoneal study of rats (route of administration not relevant to humans); [REPROTOX] Causes zonal hepatitis and coma in oral lethal-dose studies of rats; [RTECS] A skin and strong eye irritant; Harmful by ingestion; Teratogenicity observed in rats; [Sigma-Aldrich MSDS]",
        "links": [],
        "cross_references": [
          {
            "type": "name_match",
            "text": "hepatitis a",
            "confidence": 1.0,
            "uuid": "09b2d371-e32a-4123-81c0-51e314e04e32",
            "name": "Hepatitis A",
            "url": "https://haz-map.com/Diseases/184",
            "category": "diseases"
          }
        ]
      },
      "biomedical_references": {
        "original_name": "Biomedical References",
        "value": "Search PubMed",
        "links": [
          {
            "text": "Search PubMed",
            "url": "https://www.ncbi.nlm.nih.gov/pubmed?term=Pyrazole%20AND%20human%5Bmh%5D%20AND%20%28Occupational%20Diseases%20%5Bmh%5D%20OR%20Occupational%20Exposure%20%5Bmh%5D%29%20%20AND%20%28tox%5Bsb%5D%29&cmd=search"
          }
        ],
        "cross_references": []
      }
    },
    "exposure_assessment": {
      "vapor_pressure": {
        "original_name": "Vapor Pressure",
        "value": "1.19 mm Hg",
        "links": [],
        "cross_references": []
      }
    },
    "adverse_effects": {
      "hepatotoxin": {
        "original_name": "Hepatotoxin",
        "value": "Hepatoxic (a) from occupational exposure (secondary effect) or (b) in animal studies or in humans after ingestion",
        "links": [],
        "cross_references": []
      }
    },
    "diseases_processes_and_activities_linked_to_this_agent": {
      "other_information": {
        "original_name": "Other Information",
        "value": "No other related information on this agent was found.",
        "links": [],
        "cross_references": []
      }
    }
  },
  "cross_references": [
    {
      "type": "name_match",
      "text": "hepatitis a",
      "confidence": 1.0,
      "uuid": "09b2d371-e32a-4123-81c0-51e314e04e32",
      "name": "Hepatitis A",
      "url": "https://haz-map.com/Diseases/184",
      "category": "diseases"
    },
    {
      "type": "name_match",
      "text": "pyridine",
      "confidence": 1.0,
      "uuid": "a2d916a4-844b-4df6-9be5-868b2b364d71",
      "name": "Pyridine",
      "url": "https://haz-map.com/Agents/616",
      "category": "agents"
    },
    {
      "type": "name_match",
      "text": "nitrogen",
      "confidence": 1.0,
      "uuid": "db5e90a9-06d2-45b9-8b81-f345a89b0bc0",
      "name": "Nitrogen",
      "url": "https://haz-map.com/Agents/1072",
      "category": "agents"
    },
    {
      "type": "name_match",
      "text": "pyrazole",
      "confidence": 1.0,
      "uuid": "fb421227-9ca1-4832-91a0-448287f10e92",
      "name": "Pyrazole",
      "url": "https://haz-map.com/Agents/17016",
      "category": "agents"
    },
    {
      "type": "fuzzy_match",
      "text": "crystalline",
      "matched_name": "Silica, crystalline",
      "confidence": 0.7061403508771931,
      "uuid": "f920e8a2-46df-41b7-af8d-0368a777251e",
      "category": "agents",
      "url": "https://haz-map.com/Agents/427"
    }
  ],
  "all_links": [
    {
      "text": "Search PubMed",
      "url": "https://www.ncbi.nlm.nih.gov/pubmed?term=Pyrazole%20AND%20human%5Bmh%5D%20AND%20%28Occupational%20Diseases%20%5Bmh%5D%20OR%20Occupational%20Exposure%20%5Bmh%5D%29%20%20AND%20%28tox%5Bsb%5D%29&cmd=search"
    }
  ]
}