{
  "metadata": {
    "scraped_from": "https://haz-map.com/Agents/2682",
    "entity_name": "1,1,1-Tribromo-2-methyl-2-propanol",
    "category": "agents",
    "uuid": "fbfbd0f1-b0b1-499f-a083-16590921f2a1",
    "scraped_at": "2025-07-23T19:17:30.956192"
  },
  "parsed_at": "2025-07-24T00:51:43.134548",
  "title": "1,1,1-Tribromo-2-methyl-2-propanol",
  "sections": {
    "general": {
      "agent_name": {
        "original_name": "Agent Name",
        "value": "1,1,1-Tribromo-2-methyl-2-propanol",
        "links": [],
        "cross_references": [
          {
            "type": "name_match",
            "text": "1,1,1-tribromo-2-methyl-2-propanol",
            "confidence": 1.0,
            "uuid": "fbfbd0f1-b0b1-499f-a083-16590921f2a1",
            "name": "1,1,1-Tribromo-2-methyl-2-propanol",
            "url": "https://haz-map.com/Agents/2682",
            "category": "agents"
          }
        ]
      },
      "cas_number": {
        "original_name": "CAS Number",
        "value": "76-08-4",
        "links": [],
        "cross_references": []
      },
      "formula": {
        "original_name": "Formula",
        "value": "C4-H7-Br3-O",
        "links": [],
        "cross_references": []
      },
      "major_category": {
        "original_name": "Major Category",
        "value": "Other Classes",
        "links": [],
        "cross_references": []
      },
      "synonyms": {
        "original_name": "Synonyms",
        "value": "2-Propanol, 1,1,1-tribromo-2-methyl-; 2-Tribromomethyl-2-propanol; Acetonbromoform; Acetone-bromoform; Brometon; Brometone; Bromobutanol; Tribromo-tert-butyl alcohol; [ChemIDplus]",
        "links": [],
        "cross_references": [
          {
            "type": "name_match",
            "text": "acetone",
            "confidence": 1.0,
            "uuid": "31b7bdae-eb37-44cc-9c56-b6dfc1908d64",
            "name": "Acetone",
            "url": "https://haz-map.com/Agents/138",
            "category": "agents"
          },
          {
            "type": "name_match",
            "text": "bromoform",
            "confidence": 1.0,
            "uuid": "e73421d2-2e12-4253-b8a7-d3b7e20e3bb2",
            "name": "Bromoform",
            "url": "https://haz-map.com/Agents/317",
            "category": "agents"
          },
          {
            "type": "name_match",
            "text": "tert-butyl alcohol",
            "confidence": 1.0,
            "uuid": "3facdaaf-7c66-440f-928e-9a5dededdbb7",
            "name": "tert-Butyl alcohol",
            "url": "https://haz-map.com/Agents/327",
            "category": "agents"
          }
        ]
      },
      "category": {
        "original_name": "Category",
        "value": "Halogenated Alcohols",
        "links": [],
        "cross_references": []
      },
      "description": {
        "original_name": "Description",
        "value": "White solid with a camphor-like odor; [HSDB]",
        "links": [],
        "cross_references": []
      },
      "sourcesuses": {
        "original_name": "Sources/Uses",
        "value": "Used as modifier in polymerization of vinyl chloride and in other organic synthesis; [HSDB]",
        "links": [],
        "cross_references": [
          {
            "type": "name_match",
            "text": "vinyl chloride",
            "confidence": 1.0,
            "uuid": "7b74b11d-1ba5-4dde-8d86-ed88645b5ce1",
            "name": "Vinyl chloride",
            "url": "https://haz-map.com/Agents/15",
            "category": "agents"
          }
        ]
      },
      "comments": {
        "original_name": "Comments",
        "value": "\"Abuse may lead to habituation or addiction.\" [HSDB] See \"1-Chloro-2-propanol\" and \"1-Bromo-2-propanol.\"",
        "links": [],
        "cross_references": [
          {
            "type": "name_match",
            "text": "lead",
            "confidence": 1.0,
            "uuid": "24246eba-13d7-456a-a142-ceae0f1df43f",
            "name": "Lead",
            "url": "https://haz-map.com/Agents/10",
            "category": "agents"
          },
          {
            "type": "name_match",
            "text": "1-bromo-2-propanol",
            "confidence": 1.0,
            "uuid": "e763461a-062c-498a-95ab-83377ffbd17a",
            "name": "1-Bromo-2-propanol",
            "url": "https://haz-map.com/Agents/1386",
            "category": "agents"
          },
          {
            "type": "name_match",
            "text": "1-chloro-2-propanol",
            "confidence": 1.0,
            "uuid": "3e820ec5-6b33-472a-a625-b789ef396833",
            "name": "1-Chloro-2-propanol",
            "url": "https://haz-map.com/Agents/1649",
            "category": "agents"
          }
        ]
      },
      "biomedical_references": {
        "original_name": "Biomedical References",
        "value": "Search PubMed",
        "links": [
          {
            "text": "Search PubMed",
            "url": "https://www.ncbi.nlm.nih.gov/pubmed?term=1%2c1%2c1-Tribromo-2-methyl-2-propanol%20AND%20human%5Bmh%5D%20AND%20%28Occupational%20Diseases%20%5Bmh%5D%20OR%20Occupational%20Exposure%20%5Bmh%5D%29%20%20AND%20%28tox%5Bsb%5D%29&cmd=search"
          }
        ],
        "cross_references": []
      }
    },
    "exposure_assessment": {
      "vapor_pressure": {
        "original_name": "Vapor Pressure",
        "value": "0.00111 mm Hg",
        "links": [],
        "cross_references": []
      },
      "explanatory_notes": {
        "original_name": "Explanatory Notes",
        "value": "VP from ChemIDplus;",
        "links": [],
        "cross_references": []
      }
    },
    "adverse_effects": {
      "neurotoxin": {
        "original_name": "Neurotoxin",
        "value": "Acute solvent syndrome",
        "links": [],
        "cross_references": []
      }
    },
    "diseases_processes_and_activities_linked_to_this_agent": {
      "diseases": {
        "original_name": "Diseases",
        "value": "Occupational diseases associated with exposure to this agent: Solvents, acute toxic effect",
        "links": [
          {
            "text": "Solvents, acute toxic effect",
            "url": "https://haz-map.com/Diseases/326"
          }
        ],
        "cross_references": [
          {
            "type": "url_match",
            "text": "Solvents, acute toxic effect",
            "url": "https://haz-map.com/Diseases/326",
            "confidence": 1.0,
            "uuid": "581e90e3-9d0c-45f0-aa6c-3468c28da129",
            "name": "Solvents, acute toxic effect",
            "category": "diseases"
          }
        ]
      }
    }
  },
  "cross_references": [
    {
      "type": "url_match",
      "text": "Solvents, acute toxic effect",
      "url": "https://haz-map.com/Diseases/326",
      "confidence": 1.0,
      "uuid": "581e90e3-9d0c-45f0-aa6c-3468c28da129",
      "name": "Solvents, acute toxic effect",
      "category": "diseases"
    },
    {
      "type": "name_match",
      "text": "lead",
      "confidence": 1.0,
      "uuid": "24246eba-13d7-456a-a142-ceae0f1df43f",
      "name": "Lead",
      "url": "https://haz-map.com/Agents/10",
      "category": "agents"
    },
    {
      "type": "name_match",
      "text": "vinyl chloride",
      "confidence": 1.0,
      "uuid": "7b74b11d-1ba5-4dde-8d86-ed88645b5ce1",
      "name": "Vinyl chloride",
      "url": "https://haz-map.com/Agents/15",
      "category": "agents"
    },
    {
      "type": "name_match",
      "text": "acetone",
      "confidence": 1.0,
      "uuid": "31b7bdae-eb37-44cc-9c56-b6dfc1908d64",
      "name": "Acetone",
      "url": "https://haz-map.com/Agents/138",
      "category": "agents"
    },
    {
      "type": "name_match",
      "text": "bromoform",
      "confidence": 1.0,
      "uuid": "e73421d2-2e12-4253-b8a7-d3b7e20e3bb2",
      "name": "Bromoform",
      "url": "https://haz-map.com/Agents/317",
      "category": "agents"
    },
    {
      "type": "name_match",
      "text": "tert-butyl alcohol",
      "confidence": 1.0,
      "uuid": "3facdaaf-7c66-440f-928e-9a5dededdbb7",
      "name": "tert-Butyl alcohol",
      "url": "https://haz-map.com/Agents/327",
      "category": "agents"
    },
    {
      "type": "name_match",
      "text": "1-bromo-2-propanol",
      "confidence": 1.0,
      "uuid": "e763461a-062c-498a-95ab-83377ffbd17a",
      "name": "1-Bromo-2-propanol",
      "url": "https://haz-map.com/Agents/1386",
      "category": "agents"
    },
    {
      "type": "name_match",
      "text": "1-chloro-2-propanol",
      "confidence": 1.0,
      "uuid": "3e820ec5-6b33-472a-a625-b789ef396833",
      "name": "1-Chloro-2-propanol",
      "url": "https://haz-map.com/Agents/1649",
      "category": "agents"
    },
    {
      "type": "name_match",
      "text": "1,1,1-tribromo-2-methyl-2-propanol",
      "confidence": 1.0,
      "uuid": "fbfbd0f1-b0b1-499f-a083-16590921f2a1",
      "name": "1,1,1-Tribromo-2-methyl-2-propanol",
      "url": "https://haz-map.com/Agents/2682",
      "category": "agents"
    }
  ],
  "all_links": [
    {
      "text": "Search PubMed",
      "url": "https://www.ncbi.nlm.nih.gov/pubmed?term=1%2c1%2c1-Tribromo-2-methyl-2-propanol%20AND%20human%5Bmh%5D%20AND%20%28Occupational%20Diseases%20%5Bmh%5D%20OR%20Occupational%20Exposure%20%5Bmh%5D%29%20%20AND%20%28tox%5Bsb%5D%29&cmd=search"
    },
    {
      "text": "Solvents, acute toxic effect",
      "url": "https://haz-map.com/Diseases/326"
    }
  ]
}