{
  "metadata": {
    "scraped_from": "https://haz-map.com/Agents/19599",
    "entity_name": "2-Ethylanthraquinone",
    "category": "agents",
    "uuid": "fc8a398a-73de-4dca-a8d9-4260ca5fefb2",
    "scraped_at": "2025-07-23T22:09:15.123971"
  },
  "parsed_at": "2025-07-24T00:57:59.982565",
  "title": "2-Ethylanthraquinone",
  "sections": {
    "general": {
      "agent_name": {
        "original_name": "Agent Name",
        "value": "2-Ethylanthraquinone",
        "links": [],
        "cross_references": [
          {
            "type": "name_match",
            "text": "quinone",
            "confidence": 1.0,
            "uuid": "d01e66c3-ad06-4707-8d42-3c6655001c1a",
            "name": "Quinone",
            "url": "https://haz-map.com/Agents/303",
            "category": "agents"
          },
          {
            "type": "name_match",
            "text": "anthraquinone",
            "confidence": 1.0,
            "uuid": "953f43e3-2275-41f0-9f8e-f5764f83b717",
            "name": "Anthraquinone",
            "url": "https://haz-map.com/Agents/3713",
            "category": "agents"
          },
          {
            "type": "name_match",
            "text": "2-ethylanthraquinone",
            "confidence": 1.0,
            "uuid": "fc8a398a-73de-4dca-a8d9-4260ca5fefb2",
            "name": "2-Ethylanthraquinone",
            "url": "https://haz-map.com/Agents/19599",
            "category": "agents"
          }
        ]
      },
      "cas_number": {
        "original_name": "CAS Number",
        "value": "84-51-5",
        "links": [],
        "cross_references": []
      },
      "formula": {
        "original_name": "Formula",
        "value": "C16-H12-O2",
        "links": [],
        "cross_references": []
      },
      "major_category": {
        "original_name": "Major Category",
        "value": "Dyes",
        "links": [],
        "cross_references": []
      },
      "synonyms": {
        "original_name": "Synonyms",
        "value": "2-Ethyl-9,10-anthraquinone; Anthraquinone, 2-ethyl-; beta-Ethylanthraquinone; 9,10-Anthracenedione, 2-ethyl-; [ChemIDplus] 2-Ethyl-9,10-anthracenedione; 2-Ethylanthrachinon; 2-Ethylantrachinon; 2-ETIL-9,10-ANTRACENDIONE; [IUCLID]",
        "links": [],
        "cross_references": [
          {
            "type": "name_match",
            "text": "quinone",
            "confidence": 1.0,
            "uuid": "d01e66c3-ad06-4707-8d42-3c6655001c1a",
            "name": "Quinone",
            "url": "https://haz-map.com/Agents/303",
            "category": "agents"
          },
          {
            "type": "name_match",
            "text": "anthraquinone",
            "confidence": 1.0,
            "uuid": "953f43e3-2275-41f0-9f8e-f5764f83b717",
            "name": "Anthraquinone",
            "url": "https://haz-map.com/Agents/3713",
            "category": "agents"
          },
          {
            "type": "name_match",
            "text": "anthracene",
            "confidence": 1.0,
            "uuid": "f11a62e4-1e69-4f6d-a8b7-240c9de086ff",
            "name": "Anthracene",
            "url": "https://haz-map.com/Agents/7821",
            "category": "agents"
          }
        ]
      },
      "category": {
        "original_name": "Category",
        "value": "Anthraquinone Dyes",
        "links": [],
        "cross_references": [
          {
            "type": "name_match",
            "text": "quinone",
            "confidence": 1.0,
            "uuid": "d01e66c3-ad06-4707-8d42-3c6655001c1a",
            "name": "Quinone",
            "url": "https://haz-map.com/Agents/303",
            "category": "agents"
          },
          {
            "type": "name_match",
            "text": "anthraquinone",
            "confidence": 1.0,
            "uuid": "953f43e3-2275-41f0-9f8e-f5764f83b717",
            "name": "Anthraquinone",
            "url": "https://haz-map.com/Agents/3713",
            "category": "agents"
          }
        ]
      },
      "description": {
        "original_name": "Description",
        "value": "Yellow microcrystalline powder; [Acros Organics MSDS]",
        "links": [],
        "cross_references": [
          {
            "type": "fuzzy_match",
            "text": "crystalline",
            "matched_name": "Silica, crystalline",
            "confidence": 0.7061403508771931,
            "uuid": "f920e8a2-46df-41b7-af8d-0368a777251e",
            "category": "agents",
            "url": "https://haz-map.com/Agents/427"
          }
        ]
      },
      "sourcesuses": {
        "original_name": "Sources/Uses",
        "value": "Used in the chemical and paints-lacquers-varnishes industries; Used as a coloring agent, intermediate, and process regulator; [IUCLID] Used as a reactive processing aid in hydrogen peroxide production; [ECHA REACH Registrations]",
        "links": [],
        "cross_references": [
          {
            "type": "name_match",
            "text": "hydrogen peroxide",
            "confidence": 1.0,
            "uuid": "7bb77192-848e-464d-b9bf-df9eaa7f36d2",
            "name": "Hydrogen peroxide",
            "url": "https://haz-map.com/Agents/515",
            "category": "agents"
          },
          {
            "type": "name_match",
            "text": "mica",
            "confidence": 1.0,
            "uuid": "433f26f1-c399-4596-b179-ce3843cfd465",
            "name": "Mica",
            "url": "https://haz-map.com/Agents/621",
            "category": "agents"
          },
          {
            "type": "name_match",
            "text": "hydrogen",
            "confidence": 1.0,
            "uuid": "e2d9645f-5559-4d88-b820-fc4710c154f2",
            "name": "Hydrogen",
            "url": "https://haz-map.com/Agents/1070",
            "category": "agents"
          }
        ]
      },
      "comments": {
        "original_name": "Comments",
        "value": "Prolonged or repeated oral exposure may cause damage to the hematological system and spleen; [ECHA REACH Registrations] Not a skin or eye irritant in rabbits; No mortalities in rats exposed to saturated atmosphere at 20 degrees C for 8 hours; [IUCLID] A 28-day oral study of rats produced decreased erythrocyte and hematocrit values, hemosiderosis in the spleen, and extramedullary hematopoiesis with NOEL's of less than 10 mg/kg/day for males and 10 mg/kg/day for females; [JECDB] May cause irritation; [Acros Organics MSDS] See \"1-Amino-2-methylanthraquinone.\"",
        "links": [],
        "cross_references": [
          {
            "type": "name_match",
            "text": "quinone",
            "confidence": 1.0,
            "uuid": "d01e66c3-ad06-4707-8d42-3c6655001c1a",
            "name": "Quinone",
            "url": "https://haz-map.com/Agents/303",
            "category": "agents"
          },
          {
            "type": "name_match",
            "text": "tali",
            "confidence": 1.0,
            "uuid": "8c3a0f99-2143-4122-b539-ec5cc49596b0",
            "name": "Tali",
            "url": "https://haz-map.com/Agents/1128",
            "category": "agents"
          },
          {
            "type": "name_match",
            "text": "1-amino-2-methylanthraquinone",
            "confidence": 1.0,
            "uuid": "8e231a01-b3cf-486b-b17e-678710e96cf3",
            "name": "1-Amino-2-methylanthraquinone",
            "url": "https://haz-map.com/Agents/2842",
            "category": "agents"
          },
          {
            "type": "name_match",
            "text": "anthraquinone",
            "confidence": 1.0,
            "uuid": "953f43e3-2275-41f0-9f8e-f5764f83b717",
            "name": "Anthraquinone",
            "url": "https://haz-map.com/Agents/3713",
            "category": "agents"
          }
        ]
      },
      "biomedical_references": {
        "original_name": "Biomedical References",
        "value": "Search PubMed",
        "links": [
          {
            "text": "Search PubMed",
            "url": "https://www.ncbi.nlm.nih.gov/pubmed?term=2-Ethylanthraquinone%20AND%20human%5Bmh%5D%20AND%20%28Occupational%20Diseases%20%5Bmh%5D%20OR%20Occupational%20Exposure%20%5Bmh%5D%29%20%20AND%20%28tox%5Bsb%5D%29&cmd=search"
          }
        ],
        "cross_references": []
      }
    },
    "exposure_assessment": {
      "vapor_pressure": {
        "original_name": "Vapor Pressure",
        "value": "1.02E-06 mm Hg",
        "links": [],
        "cross_references": []
      }
    },
    "diseases_processes_and_activities_linked_to_this_agent": {
      "processes": {
        "original_name": "Processes",
        "value": "Industrial Processes with risk of exposure: Painting (Pigments, Binders, and Biocides)",
        "links": [
          {
            "text": "Painting (Pigments, Binders, and Biocides)",
            "url": "https://haz-map.com/Processes/145"
          }
        ],
        "cross_references": [
          {
            "type": "url_match",
            "text": "Painting (Pigments, Binders, and Biocides)",
            "url": "https://haz-map.com/Processes/145",
            "confidence": 1.0,
            "uuid": "25867878-e178-4c21-906f-d392d86b76de",
            "name": "Painting (Pigments, Binders, and Biocides)",
            "category": "processes"
          },
          {
            "type": "name_match",
            "text": "painting",
            "confidence": 1.0,
            "uuid": "19816ce9-9edf-4a86-8e64-b0cbf7dcf520",
            "name": "Painting",
            "url": "https://haz-map.com/Activities/9",
            "category": "activities"
          }
        ]
      }
    }
  },
  "cross_references": [
    {
      "type": "url_match",
      "text": "Painting (Pigments, Binders, and Biocides)",
      "url": "https://haz-map.com/Processes/145",
      "confidence": 1.0,
      "uuid": "25867878-e178-4c21-906f-d392d86b76de",
      "name": "Painting (Pigments, Binders, and Biocides)",
      "category": "processes"
    },
    {
      "type": "name_match",
      "text": "painting",
      "confidence": 1.0,
      "uuid": "19816ce9-9edf-4a86-8e64-b0cbf7dcf520",
      "name": "Painting",
      "url": "https://haz-map.com/Activities/9",
      "category": "activities"
    },
    {
      "type": "name_match",
      "text": "quinone",
      "confidence": 1.0,
      "uuid": "d01e66c3-ad06-4707-8d42-3c6655001c1a",
      "name": "Quinone",
      "url": "https://haz-map.com/Agents/303",
      "category": "agents"
    },
    {
      "type": "name_match",
      "text": "hydrogen peroxide",
      "confidence": 1.0,
      "uuid": "7bb77192-848e-464d-b9bf-df9eaa7f36d2",
      "name": "Hydrogen peroxide",
      "url": "https://haz-map.com/Agents/515",
      "category": "agents"
    },
    {
      "type": "name_match",
      "text": "mica",
      "confidence": 1.0,
      "uuid": "433f26f1-c399-4596-b179-ce3843cfd465",
      "name": "Mica",
      "url": "https://haz-map.com/Agents/621",
      "category": "agents"
    },
    {
      "type": "name_match",
      "text": "hydrogen",
      "confidence": 1.0,
      "uuid": "e2d9645f-5559-4d88-b820-fc4710c154f2",
      "name": "Hydrogen",
      "url": "https://haz-map.com/Agents/1070",
      "category": "agents"
    },
    {
      "type": "name_match",
      "text": "tali",
      "confidence": 1.0,
      "uuid": "8c3a0f99-2143-4122-b539-ec5cc49596b0",
      "name": "Tali",
      "url": "https://haz-map.com/Agents/1128",
      "category": "agents"
    },
    {
      "type": "name_match",
      "text": "1-amino-2-methylanthraquinone",
      "confidence": 1.0,
      "uuid": "8e231a01-b3cf-486b-b17e-678710e96cf3",
      "name": "1-Amino-2-methylanthraquinone",
      "url": "https://haz-map.com/Agents/2842",
      "category": "agents"
    },
    {
      "type": "name_match",
      "text": "anthraquinone",
      "confidence": 1.0,
      "uuid": "953f43e3-2275-41f0-9f8e-f5764f83b717",
      "name": "Anthraquinone",
      "url": "https://haz-map.com/Agents/3713",
      "category": "agents"
    },
    {
      "type": "name_match",
      "text": "anthracene",
      "confidence": 1.0,
      "uuid": "f11a62e4-1e69-4f6d-a8b7-240c9de086ff",
      "name": "Anthracene",
      "url": "https://haz-map.com/Agents/7821",
      "category": "agents"
    },
    {
      "type": "name_match",
      "text": "2-ethylanthraquinone",
      "confidence": 1.0,
      "uuid": "fc8a398a-73de-4dca-a8d9-4260ca5fefb2",
      "name": "2-Ethylanthraquinone",
      "url": "https://haz-map.com/Agents/19599",
      "category": "agents"
    },
    {
      "type": "fuzzy_match",
      "text": "crystalline",
      "matched_name": "Silica, crystalline",
      "confidence": 0.7061403508771931,
      "uuid": "f920e8a2-46df-41b7-af8d-0368a777251e",
      "category": "agents",
      "url": "https://haz-map.com/Agents/427"
    }
  ],
  "all_links": [
    {
      "text": "Search PubMed",
      "url": "https://www.ncbi.nlm.nih.gov/pubmed?term=2-Ethylanthraquinone%20AND%20human%5Bmh%5D%20AND%20%28Occupational%20Diseases%20%5Bmh%5D%20OR%20Occupational%20Exposure%20%5Bmh%5D%29%20%20AND%20%28tox%5Bsb%5D%29&cmd=search"
    },
    {
      "text": "Painting (Pigments, Binders, and Biocides)",
      "url": "https://haz-map.com/Processes/145"
    }
  ]
}