{
  "metadata": {
    "scraped_from": "https://haz-map.com/Agents/10190",
    "entity_name": "1H-Pyrazole, 1-methyl-",
    "category": "agents",
    "uuid": "fcdd65c0-d9c5-408b-a54d-c610936d0646",
    "scraped_at": "2025-07-23T20:45:15.297340"
  },
  "parsed_at": "2025-07-24T01:13:12.543716",
  "title": "1H-Pyrazole, 1-methyl-",
  "sections": {
    "general": {
      "agent_name": {
        "original_name": "Agent Name",
        "value": "1H-Pyrazole, 1-methyl-",
        "links": [],
        "cross_references": [
          {
            "type": "name_match",
            "text": "1h-pyrazole, 1-methyl-",
            "confidence": 1.0,
            "uuid": "fcdd65c0-d9c5-408b-a54d-c610936d0646",
            "name": "1H-Pyrazole, 1-methyl-",
            "url": "https://haz-map.com/Agents/10190",
            "category": "agents"
          },
          {
            "type": "name_match",
            "text": "pyrazole",
            "confidence": 1.0,
            "uuid": "fb421227-9ca1-4832-91a0-448287f10e92",
            "name": "Pyrazole",
            "url": "https://haz-map.com/Agents/17016",
            "category": "agents"
          }
        ]
      },
      "cas_number": {
        "original_name": "CAS Number",
        "value": "930-36-9",
        "links": [],
        "cross_references": []
      },
      "formula": {
        "original_name": "Formula",
        "value": "C4-H6-N2",
        "links": [],
        "cross_references": []
      },
      "major_category": {
        "original_name": "Major Category",
        "value": "Nitrogen Compounds",
        "links": [],
        "cross_references": [
          {
            "type": "name_match",
            "text": "nitrogen",
            "confidence": 1.0,
            "uuid": "db5e90a9-06d2-45b9-8b81-f345a89b0bc0",
            "name": "Nitrogen",
            "url": "https://haz-map.com/Agents/1072",
            "category": "agents"
          }
        ]
      },
      "synonyms": {
        "original_name": "Synonyms",
        "value": "1-Methyl-1H-pyrazole; [ChemIDplus] 1-Methylpyrazole; [Alfa Aesar MSDS] UN1993",
        "links": [],
        "cross_references": [
          {
            "type": "name_match",
            "text": "pyrazole",
            "confidence": 1.0,
            "uuid": "fb421227-9ca1-4832-91a0-448287f10e92",
            "name": "Pyrazole",
            "url": "https://haz-map.com/Agents/17016",
            "category": "agents"
          }
        ]
      },
      "category": {
        "original_name": "Category",
        "value": "Pyrazoles",
        "links": [],
        "cross_references": [
          {
            "type": "name_match",
            "text": "pyrazole",
            "confidence": 1.0,
            "uuid": "fb421227-9ca1-4832-91a0-448287f10e92",
            "name": "Pyrazole",
            "url": "https://haz-map.com/Agents/17016",
            "category": "agents"
          }
        ]
      },
      "description": {
        "original_name": "Description",
        "value": "Colorless liquid with a pungent odor; [Alfa Aesar MSDS]",
        "links": [],
        "cross_references": []
      },
      "comments": {
        "original_name": "Comments",
        "value": "A skin and strong eye irritant; [Alfa Aesar MSDS] See \"Pyrazole.\"",
        "links": [],
        "cross_references": [
          {
            "type": "name_match",
            "text": "pyrazole",
            "confidence": 1.0,
            "uuid": "fb421227-9ca1-4832-91a0-448287f10e92",
            "name": "Pyrazole",
            "url": "https://haz-map.com/Agents/17016",
            "category": "agents"
          }
        ]
      },
      "biomedical_references": {
        "original_name": "Biomedical References",
        "value": "Search PubMed",
        "links": [
          {
            "text": "Search PubMed",
            "url": "https://www.ncbi.nlm.nih.gov/pubmed?term=1H-Pyrazole%2c+1-methyl-%26%23160%3b%20AND%20human%5Bmh%5D%20AND%20%28Occupational%20Diseases%20%5Bmh%5D%20OR%20Occupational%20Exposure%20%5Bmh%5D%29%20%20AND%20%28tox%5Bsb%5D%29&cmd=search"
          }
        ],
        "cross_references": []
      }
    },
    "exposure_assessment": {
      "vapor_pressure": {
        "original_name": "Vapor Pressure",
        "value": "17.1 mm Hg",
        "links": [],
        "cross_references": []
      },
      "explanatory_notes": {
        "original_name": "Explanatory Notes",
        "value": "The Guide in the Emergency Response Guidebook is for \"Flammable liquid, n.o.s.\"",
        "links": [],
        "cross_references": []
      }
    },
    "diseases_processes_and_activities_linked_to_this_agent": {
      "other_information": {
        "original_name": "Other Information",
        "value": "No other related information on this agent was found.",
        "links": [],
        "cross_references": []
      }
    }
  },
  "cross_references": [
    {
      "type": "name_match",
      "text": "nitrogen",
      "confidence": 1.0,
      "uuid": "db5e90a9-06d2-45b9-8b81-f345a89b0bc0",
      "name": "Nitrogen",
      "url": "https://haz-map.com/Agents/1072",
      "category": "agents"
    },
    {
      "type": "name_match",
      "text": "1h-pyrazole, 1-methyl-",
      "confidence": 1.0,
      "uuid": "fcdd65c0-d9c5-408b-a54d-c610936d0646",
      "name": "1H-Pyrazole, 1-methyl-",
      "url": "https://haz-map.com/Agents/10190",
      "category": "agents"
    },
    {
      "type": "name_match",
      "text": "pyrazole",
      "confidence": 1.0,
      "uuid": "fb421227-9ca1-4832-91a0-448287f10e92",
      "name": "Pyrazole",
      "url": "https://haz-map.com/Agents/17016",
      "category": "agents"
    }
  ],
  "all_links": [
    {
      "text": "Search PubMed",
      "url": "https://www.ncbi.nlm.nih.gov/pubmed?term=1H-Pyrazole%2c+1-methyl-%26%23160%3b%20AND%20human%5Bmh%5D%20AND%20%28Occupational%20Diseases%20%5Bmh%5D%20OR%20Occupational%20Exposure%20%5Bmh%5D%29%20%20AND%20%28tox%5Bsb%5D%29&cmd=search"
    }
  ]
}