{
  "metadata": {
    "scraped_from": "https://haz-map.com/Agents/9933",
    "entity_name": "Morin",
    "category": "agents",
    "uuid": "fce4adcc-4265-4f5f-8f8c-903d2c08f942",
    "scraped_at": "2025-07-23T20:43:14.231578"
  },
  "parsed_at": "2025-07-24T01:12:20.214359",
  "title": "Morin",
  "sections": {
    "general": {
      "agent_name": {
        "original_name": "Agent Name",
        "value": "Morin",
        "links": [],
        "cross_references": [
          {
            "type": "name_match",
            "text": "morin",
            "confidence": 1.0,
            "uuid": "fce4adcc-4265-4f5f-8f8c-903d2c08f942",
            "name": "Morin",
            "url": "https://haz-map.com/Agents/9933",
            "category": "agents"
          }
        ]
      },
      "cas_number": {
        "original_name": "CAS Number",
        "value": "480-16-0",
        "links": [],
        "cross_references": []
      },
      "formula": {
        "original_name": "Formula",
        "value": "C15-H10-O7",
        "links": [],
        "cross_references": []
      },
      "major_category": {
        "original_name": "Major Category",
        "value": "Biological Agents",
        "links": [],
        "cross_references": []
      },
      "synonyms": {
        "original_name": "Synonyms",
        "value": "2',3,4',5,7-Pentahydroxyflavone; 2',4',3,5,7-Pentahydroxyflavone; 2',4',5,7-Tetrahydroxyflavan-3-ol; 2'-Hydroxypelargidenolon 1522; 3,5,7,2',4'-Pentahydroxyflavone; 3,5,7,2',4'-Pentahydroxyflavonol; 4H-1-Benzopyran-4-one, 2-(2,4-dihydroxyphenyl)-3,5,7-trihydroxy-; Al-Morin; Aurantica; Bois d'arc [French]; Bois d,Arc; C.I. 75660; C.I. Natural Yellow 11; C.I. Natural Yellow 11 (VAN); C.I. Natural Yellow 8; Calico Yellow; Osage Orange; Osage Orange Crystals; Osage Orange Extract; Toxylon Pomiferum; Zlut prirodni 11 [Czech]; Flavone, 2',3,4',5,7-pentahydroxy-; [ChemIDplus]",
        "links": [],
        "cross_references": [
          {
            "type": "name_match",
            "text": "2,4-d",
            "confidence": 1.0,
            "uuid": "bed35f54-2d93-4ffd-a3ee-723ab365faf1",
            "name": "2,4-D",
            "url": "https://haz-map.com/Agents/389",
            "category": "agents"
          },
          {
            "type": "name_match",
            "text": "morin",
            "confidence": 1.0,
            "uuid": "fce4adcc-4265-4f5f-8f8c-903d2c08f942",
            "name": "Morin",
            "url": "https://haz-map.com/Agents/9933",
            "category": "agents"
          }
        ]
      },
      "category": {
        "original_name": "Category",
        "value": "Wood Dusts & Extracts",
        "links": [],
        "cross_references": []
      },
      "description": {
        "original_name": "Description",
        "value": "Solid; [Merck Index] Yellow powder; [Aldrich MSDS]",
        "links": [],
        "cross_references": []
      },
      "sourcesuses": {
        "original_name": "Sources/Uses",
        "value": "Found in the wood of old fustic and Osage orange trees; Used as a reagent for metal salts and as a textile dye; [Merck Index] Permitted for use as an inert ingredient in non-food pesticide products; [EPA]",
        "links": [],
        "cross_references": []
      },
      "comments": {
        "original_name": "Comments",
        "value": "Causes changes in blood and urine in acute oral toxic-dose studies of rats; Causes changes in organ weights, liver enzymes, and renal tubules in 13-week oral studies of rats; [RTECS] May cause irritation; Toxic by ingestion; [Aldrich MSDS]",
        "links": [],
        "cross_references": [
          {
            "type": "name_match",
            "text": "enzymes",
            "confidence": 1.0,
            "uuid": "fe84a5f3-127f-4a3f-bd93-9a905dddee93",
            "name": "ENZYMES",
            "url": "https://haz-map.com/Agents/741",
            "category": "agents"
          },
          {
            "type": "name_match",
            "text": "ht",
            "confidence": 1.0,
            "uuid": "764df367-8d53-4a11-81a2-31ccfe122a8d",
            "name": "HT",
            "url": "https://haz-map.com/Agents/2168",
            "category": "agents"
          }
        ]
      },
      "biomedical_references": {
        "original_name": "Biomedical References",
        "value": "Search PubMed",
        "links": [
          {
            "text": "Search PubMed",
            "url": "https://www.ncbi.nlm.nih.gov/pubmed?term=Morin%20AND%20human%5Bmh%5D%20AND%20%28Occupational%20Diseases%20%5Bmh%5D%20OR%20Occupational%20Exposure%20%5Bmh%5D%29%20%20AND%20%28tox%5Bsb%5D%29&cmd=search"
          }
        ],
        "cross_references": []
      }
    },
    "exposure_assessment": {
      "vapor_pressure": {
        "original_name": "Vapor Pressure",
        "value": "2.81E-14 mm Hg",
        "links": [],
        "cross_references": []
      }
    },
    "adverse_effects": {
      "hepatotoxin": {
        "original_name": "Hepatotoxin",
        "value": "Hepatoxic (a) from occupational exposure (secondary effect) or (b) in animal studies or in humans after ingestion",
        "links": [],
        "cross_references": []
      }
    },
    "diseases_processes_and_activities_linked_to_this_agent": {
      "processes": {
        "original_name": "Processes",
        "value": "Industrial Processes with risk of exposure: Textiles (Printing, Dyeing, or Finishing)",
        "links": [
          {
            "text": "Textiles (Printing, Dyeing, or Finishing)",
            "url": "https://haz-map.com/Processes/235"
          }
        ],
        "cross_references": []
      }
    }
  },
  "cross_references": [
    {
      "type": "name_match",
      "text": "2,4-d",
      "confidence": 1.0,
      "uuid": "bed35f54-2d93-4ffd-a3ee-723ab365faf1",
      "name": "2,4-D",
      "url": "https://haz-map.com/Agents/389",
      "category": "agents"
    },
    {
      "type": "name_match",
      "text": "enzymes",
      "confidence": 1.0,
      "uuid": "fe84a5f3-127f-4a3f-bd93-9a905dddee93",
      "name": "ENZYMES",
      "url": "https://haz-map.com/Agents/741",
      "category": "agents"
    },
    {
      "type": "name_match",
      "text": "ht",
      "confidence": 1.0,
      "uuid": "764df367-8d53-4a11-81a2-31ccfe122a8d",
      "name": "HT",
      "url": "https://haz-map.com/Agents/2168",
      "category": "agents"
    },
    {
      "type": "name_match",
      "text": "morin",
      "confidence": 1.0,
      "uuid": "fce4adcc-4265-4f5f-8f8c-903d2c08f942",
      "name": "Morin",
      "url": "https://haz-map.com/Agents/9933",
      "category": "agents"
    }
  ],
  "all_links": [
    {
      "text": "Search PubMed",
      "url": "https://www.ncbi.nlm.nih.gov/pubmed?term=Morin%20AND%20human%5Bmh%5D%20AND%20%28Occupational%20Diseases%20%5Bmh%5D%20OR%20Occupational%20Exposure%20%5Bmh%5D%29%20%20AND%20%28tox%5Bsb%5D%29&cmd=search"
    },
    {
      "text": "Textiles (Printing, Dyeing, or Finishing)",
      "url": "https://haz-map.com/Processes/235"
    }
  ]
}