{
  "metadata": {
    "scraped_from": "https://haz-map.com/Agents/19907",
    "entity_name": "Trifluoromethanesulfonyl chloride",
    "category": "agents",
    "uuid": "fd63cd71-0e9c-45aa-8176-b50d79796f54",
    "scraped_at": "2025-07-23T22:15:06.755910"
  },
  "parsed_at": "2025-07-24T00:53:00.601827",
  "title": "Trifluoromethanesulfonyl chloride",
  "sections": {
    "general": {
      "agent_name": {
        "original_name": "Agent Name",
        "value": "Trifluoromethanesulfonyl chloride",
        "links": [],
        "cross_references": [
          {
            "type": "name_match",
            "text": "methane",
            "confidence": 1.0,
            "uuid": "5018bf73-24be-4353-8643-c351d5f52186",
            "name": "Methane",
            "url": "https://haz-map.com/Agents/1074",
            "category": "agents"
          },
          {
            "type": "name_match",
            "text": "ethane",
            "confidence": 1.0,
            "uuid": "5162cc8c-dfb9-4060-81ac-38a8cec7f9dd",
            "name": "Ethane",
            "url": "https://haz-map.com/Agents/1075",
            "category": "agents"
          },
          {
            "type": "name_match",
            "text": "trifluoromethane",
            "confidence": 1.0,
            "uuid": "296989b6-c9a5-49ac-bccd-41b72547b13d",
            "name": "Trifluoromethane",
            "url": "https://haz-map.com/Agents/1538",
            "category": "agents"
          },
          {
            "type": "name_match",
            "text": "ethanesulfonyl chloride",
            "confidence": 1.0,
            "uuid": "7ef1cdfb-15da-4096-93ec-b72cd7e38973",
            "name": "Ethanesulfonyl chloride",
            "url": "https://haz-map.com/Agents/5144",
            "category": "agents"
          },
          {
            "type": "name_match",
            "text": "fluoromethane",
            "confidence": 1.0,
            "uuid": "c299ba98-15e9-4c6a-a5c2-5efb3b88eb71",
            "name": "Fluoromethane",
            "url": "https://haz-map.com/Agents/8543",
            "category": "agents"
          },
          {
            "type": "name_match",
            "text": "trifluoromethanesulfonyl chloride",
            "confidence": 1.0,
            "uuid": "fd63cd71-0e9c-45aa-8176-b50d79796f54",
            "name": "Trifluoromethanesulfonyl chloride",
            "url": "https://haz-map.com/Agents/19907",
            "category": "agents"
          }
        ]
      },
      "cas_number": {
        "original_name": "CAS Number",
        "value": "421-83-0",
        "links": [],
        "cross_references": []
      },
      "formula": {
        "original_name": "Formula",
        "value": "C-Cl-F3-O2-S",
        "links": [],
        "cross_references": []
      },
      "major_category": {
        "original_name": "Major Category",
        "value": "Toxic Gases & Vapors",
        "links": [],
        "cross_references": []
      },
      "synonyms": {
        "original_name": "Synonyms",
        "value": "Trifluoromethanesulphonyl chloride; [ChemIDplus] Triflyl chloride; [Sigma-Aldrich MSDS] UN3265",
        "links": [],
        "cross_references": [
          {
            "type": "name_match",
            "text": "methane",
            "confidence": 1.0,
            "uuid": "5018bf73-24be-4353-8643-c351d5f52186",
            "name": "Methane",
            "url": "https://haz-map.com/Agents/1074",
            "category": "agents"
          },
          {
            "type": "name_match",
            "text": "ethane",
            "confidence": 1.0,
            "uuid": "5162cc8c-dfb9-4060-81ac-38a8cec7f9dd",
            "name": "Ethane",
            "url": "https://haz-map.com/Agents/1075",
            "category": "agents"
          },
          {
            "type": "name_match",
            "text": "trifluoromethane",
            "confidence": 1.0,
            "uuid": "296989b6-c9a5-49ac-bccd-41b72547b13d",
            "name": "Trifluoromethane",
            "url": "https://haz-map.com/Agents/1538",
            "category": "agents"
          },
          {
            "type": "name_match",
            "text": "fluoromethane",
            "confidence": 1.0,
            "uuid": "c299ba98-15e9-4c6a-a5c2-5efb3b88eb71",
            "name": "Fluoromethane",
            "url": "https://haz-map.com/Agents/8543",
            "category": "agents"
          }
        ]
      },
      "category": {
        "original_name": "Category",
        "value": "Acid Halides",
        "links": [],
        "cross_references": []
      },
      "description": {
        "original_name": "Description",
        "value": "Clear light yellow liquid; Boiling point = 29-32 deg C; [Sigma-Aldrich MSDS]",
        "links": [],
        "cross_references": [
          {
            "type": "name_match",
            "text": "ht",
            "confidence": 1.0,
            "uuid": "764df367-8d53-4a11-81a2-31ccfe122a8d",
            "name": "HT",
            "url": "https://haz-map.com/Agents/2168",
            "category": "agents"
          }
        ]
      },
      "comments": {
        "original_name": "Comments",
        "value": "Reacts violently with water; Causes burns and lachrymation; Inhalation may cause corrosive injuries to upper respiratory tract and lungs; [Sigma-Aldrich MSDS]",
        "links": [],
        "cross_references": [
          {
            "type": "name_match",
            "text": "burn",
            "confidence": 1.0,
            "uuid": "63665de5-6376-4918-8dbf-4c10c4d63837",
            "name": "burn",
            "url": "https://haz-map.com/Findings/204",
            "category": "findings"
          },
          {
            "type": "name_match",
            "text": "water",
            "confidence": 1.0,
            "uuid": "6f2a7557-dfd2-49bc-9b4b-a93cd8e225d4",
            "name": "Water",
            "url": "https://haz-map.com/Agents/18668",
            "category": "agents"
          }
        ]
      },
      "biomedical_references": {
        "original_name": "Biomedical References",
        "value": "Search PubMed",
        "links": [
          {
            "text": "Search PubMed",
            "url": "https://www.ncbi.nlm.nih.gov/pubmed?term=Trifluoromethanesulfonyl+chloride%20AND%20human%5Bmh%5D%20AND%20%28Occupational%20Diseases%20%5Bmh%5D%20OR%20Occupational%20Exposure%20%5Bmh%5D%29%20%20AND%20%28tox%5Bsb%5D%29&cmd=search"
          }
        ],
        "cross_references": []
      }
    },
    "exposure_assessment": {
      "vapor_pressure": {
        "original_name": "Vapor Pressure",
        "value": "535.6 mm Hg",
        "links": [],
        "cross_references": []
      },
      "explanatory_notes": {
        "original_name": "Explanatory Notes",
        "value": "The Guide in the Emergency Response Guidebook is for \"Corrosive liquid, acidic, organic, n.o.s.\"",
        "links": [],
        "cross_references": []
      }
    },
    "adverse_effects": {
      "lachrymator": {
        "original_name": "Lachrymator",
        "value": "Yes",
        "links": [],
        "cross_references": []
      },
      "toxic_pneumonitis": {
        "original_name": "Toxic Pneumonitis",
        "value": "Yes",
        "links": [],
        "cross_references": []
      },
      "dermatotoxin": {
        "original_name": "Dermatotoxin",
        "value": "Skin burns",
        "links": [],
        "cross_references": [
          {
            "type": "name_match",
            "text": "burn",
            "confidence": 1.0,
            "uuid": "63665de5-6376-4918-8dbf-4c10c4d63837",
            "name": "burn",
            "url": "https://haz-map.com/Findings/204",
            "category": "findings"
          }
        ]
      }
    },
    "diseases_processes_and_activities_linked_to_this_agent": {
      "other_information": {
        "original_name": "Other Information",
        "value": "No other related information on this agent was found.",
        "links": [],
        "cross_references": []
      }
    }
  },
  "cross_references": [
    {
      "type": "name_match",
      "text": "burn",
      "confidence": 1.0,
      "uuid": "63665de5-6376-4918-8dbf-4c10c4d63837",
      "name": "burn",
      "url": "https://haz-map.com/Findings/204",
      "category": "findings"
    },
    {
      "type": "name_match",
      "text": "methane",
      "confidence": 1.0,
      "uuid": "5018bf73-24be-4353-8643-c351d5f52186",
      "name": "Methane",
      "url": "https://haz-map.com/Agents/1074",
      "category": "agents"
    },
    {
      "type": "name_match",
      "text": "ethane",
      "confidence": 1.0,
      "uuid": "5162cc8c-dfb9-4060-81ac-38a8cec7f9dd",
      "name": "Ethane",
      "url": "https://haz-map.com/Agents/1075",
      "category": "agents"
    },
    {
      "type": "name_match",
      "text": "trifluoromethane",
      "confidence": 1.0,
      "uuid": "296989b6-c9a5-49ac-bccd-41b72547b13d",
      "name": "Trifluoromethane",
      "url": "https://haz-map.com/Agents/1538",
      "category": "agents"
    },
    {
      "type": "name_match",
      "text": "ht",
      "confidence": 1.0,
      "uuid": "764df367-8d53-4a11-81a2-31ccfe122a8d",
      "name": "HT",
      "url": "https://haz-map.com/Agents/2168",
      "category": "agents"
    },
    {
      "type": "name_match",
      "text": "ethanesulfonyl chloride",
      "confidence": 1.0,
      "uuid": "7ef1cdfb-15da-4096-93ec-b72cd7e38973",
      "name": "Ethanesulfonyl chloride",
      "url": "https://haz-map.com/Agents/5144",
      "category": "agents"
    },
    {
      "type": "name_match",
      "text": "fluoromethane",
      "confidence": 1.0,
      "uuid": "c299ba98-15e9-4c6a-a5c2-5efb3b88eb71",
      "name": "Fluoromethane",
      "url": "https://haz-map.com/Agents/8543",
      "category": "agents"
    },
    {
      "type": "name_match",
      "text": "water",
      "confidence": 1.0,
      "uuid": "6f2a7557-dfd2-49bc-9b4b-a93cd8e225d4",
      "name": "Water",
      "url": "https://haz-map.com/Agents/18668",
      "category": "agents"
    },
    {
      "type": "name_match",
      "text": "trifluoromethanesulfonyl chloride",
      "confidence": 1.0,
      "uuid": "fd63cd71-0e9c-45aa-8176-b50d79796f54",
      "name": "Trifluoromethanesulfonyl chloride",
      "url": "https://haz-map.com/Agents/19907",
      "category": "agents"
    }
  ],
  "all_links": [
    {
      "text": "Search PubMed",
      "url": "https://www.ncbi.nlm.nih.gov/pubmed?term=Trifluoromethanesulfonyl+chloride%20AND%20human%5Bmh%5D%20AND%20%28Occupational%20Diseases%20%5Bmh%5D%20OR%20Occupational%20Exposure%20%5Bmh%5D%29%20%20AND%20%28tox%5Bsb%5D%29&cmd=search"
    }
  ]
}