{
  "metadata": {
    "scraped_from": "https://haz-map.com/Agents/3053",
    "entity_name": "2'-Methyl-4-dimethylaminoazobenzene",
    "category": "agents",
    "uuid": "fd7ebc26-dab7-4b44-ac3c-01ebadb41783",
    "scraped_at": "2025-07-23T19:23:21.649877"
  },
  "parsed_at": "2025-07-24T01:17:50.695007",
  "title": "2'-Methyl-4-dimethylaminoazobenzene",
  "sections": {
    "general": {
      "agent_name": {
        "original_name": "Agent Name",
        "value": "2'-Methyl-4-dimethylaminoazobenzene",
        "links": [],
        "cross_references": [
          {
            "type": "name_match",
            "text": "benzene",
            "confidence": 1.0,
            "uuid": "b05124de-5f34-4c14-8f04-ccb20c3780d9",
            "name": "Benzene",
            "url": "https://haz-map.com/Agents/5",
            "category": "agents"
          },
          {
            "type": "name_match",
            "text": "4-dimethylaminoazobenzene",
            "confidence": 1.0,
            "uuid": "dadf0d93-0e72-4695-8b6c-a125f8fece58",
            "name": "4-Dimethylaminoazobenzene",
            "url": "https://haz-map.com/Agents/282",
            "category": "agents"
          },
          {
            "type": "name_match",
            "text": "2'-methyl-4-dimethylaminoazobenzene",
            "confidence": 1.0,
            "uuid": "fd7ebc26-dab7-4b44-ac3c-01ebadb41783",
            "name": "2'-Methyl-4-dimethylaminoazobenzene",
            "url": "https://haz-map.com/Agents/3053",
            "category": "agents"
          },
          {
            "type": "name_match",
            "text": "azobenzene",
            "confidence": 1.0,
            "uuid": "e1a05c98-d051-4091-8654-3bf45ff3ecbf",
            "name": "Azobenzene",
            "url": "https://haz-map.com/Agents/3789",
            "category": "agents"
          }
        ]
      },
      "cas_number": {
        "original_name": "CAS Number",
        "value": "3731-39-3",
        "links": [],
        "cross_references": []
      },
      "formula": {
        "original_name": "Formula",
        "value": "C15-H17-N3",
        "links": [],
        "cross_references": []
      },
      "major_category": {
        "original_name": "Major Category",
        "value": "Dyes",
        "links": [],
        "cross_references": []
      },
      "synonyms": {
        "original_name": "Synonyms",
        "value": "2'-Methyl-p-dimethylaminoazobenzene; 2-Methyl-N,N-dimethyl-4-aminoazobenzene; 4-Dimethylamino-2'-methylazobenzene; Aniline, N,N-dimethyl-4-(o-tolylazo)-; Aniline, N,N-dimethyl-p-(2'-methylphenylazo)-; Aniline, N,N-dimethyl-p-(o-tolylazo)-; Azobenzene, 4-(dimethylamino)-2'-methyl-; Benzenamine, N,N-dimethyl-4-((2-methylphenyl)azo)-; N,N-Dimethyl-p-((o-tolyl)azo)aniline; o'-Methyl-p-dimethylaminoazobenzene; [ChemIDplus]",
        "links": [],
        "cross_references": [
          {
            "type": "name_match",
            "text": "benzene",
            "confidence": 1.0,
            "uuid": "b05124de-5f34-4c14-8f04-ccb20c3780d9",
            "name": "Benzene",
            "url": "https://haz-map.com/Agents/5",
            "category": "agents"
          },
          {
            "type": "name_match",
            "text": "aniline",
            "confidence": 1.0,
            "uuid": "e4932692-8d9c-4a98-8c5c-81e55b12aedf",
            "name": "Aniline",
            "url": "https://haz-map.com/Agents/296",
            "category": "agents"
          },
          {
            "type": "name_match",
            "text": "azobenzene",
            "confidence": 1.0,
            "uuid": "e1a05c98-d051-4091-8654-3bf45ff3ecbf",
            "name": "Azobenzene",
            "url": "https://haz-map.com/Agents/3789",
            "category": "agents"
          }
        ]
      },
      "category": {
        "original_name": "Category",
        "value": "Azo Dyes",
        "links": [],
        "cross_references": []
      },
      "description": {
        "original_name": "Description",
        "value": "Red or red-orange solid; [CAMEO] Orange solid; [Avocado MSDS]",
        "links": [],
        "cross_references": []
      },
      "comments": {
        "original_name": "Comments",
        "value": "Seven-week feeding study of rats produced no changes to liver; Emergency treatment: Methemoglobinemia; [HSDB] Dust may be explosive in air; [CAMEO] See \"4-Dimethylaminoazobenzene.\"",
        "links": [],
        "cross_references": [
          {
            "type": "name_match",
            "text": "benzene",
            "confidence": 1.0,
            "uuid": "b05124de-5f34-4c14-8f04-ccb20c3780d9",
            "name": "Benzene",
            "url": "https://haz-map.com/Agents/5",
            "category": "agents"
          },
          {
            "type": "name_match",
            "text": "4-dimethylaminoazobenzene",
            "confidence": 1.0,
            "uuid": "dadf0d93-0e72-4695-8b6c-a125f8fece58",
            "name": "4-Dimethylaminoazobenzene",
            "url": "https://haz-map.com/Agents/282",
            "category": "agents"
          },
          {
            "type": "name_match",
            "text": "azobenzene",
            "confidence": 1.0,
            "uuid": "e1a05c98-d051-4091-8654-3bf45ff3ecbf",
            "name": "Azobenzene",
            "url": "https://haz-map.com/Agents/3789",
            "category": "agents"
          },
          {
            "type": "name_match",
            "text": "methemoglobin",
            "confidence": 1.0,
            "uuid": "afb7ebf5-d2a3-4e60-8d2e-3a19456344ee",
            "name": "Methemoglobin",
            "url": "https://haz-map.com/Agents/15467",
            "category": "agents"
          },
          {
            "type": "fuzzy_match",
            "text": "methemoglobinemia",
            "matched_name": "Methemoglobinemia, acute",
            "confidence": 0.7208333333333333,
            "uuid": "473a44bd-cf11-4710-a769-e8e2b25ba317",
            "category": "diseases",
            "url": "https://haz-map.com/Diseases/210"
          }
        ]
      },
      "biomedical_references": {
        "original_name": "Biomedical References",
        "value": "Search PubMed",
        "links": [
          {
            "text": "Search PubMed",
            "url": "https://www.ncbi.nlm.nih.gov/pubmed?term=2%26%2339%3b-Methyl-4-dimethylaminoazobenzene%20AND%20human%5Bmh%5D%20AND%20%28Occupational%20Diseases%20%5Bmh%5D%20OR%20Occupational%20Exposure%20%5Bmh%5D%29%20%20AND%20%28tox%5Bsb%5D%29&cmd=search"
          }
        ],
        "cross_references": []
      }
    },
    "exposure_assessment": {
      "vapor_pressure": {
        "original_name": "Vapor Pressure",
        "value": "8E-07 mm Hg",
        "links": [],
        "cross_references": []
      }
    },
    "adverse_effects": {
      "methemoglobinemia": {
        "original_name": "Methemoglobinemia",
        "value": "MetHgb is secondary toxic effect",
        "links": [],
        "cross_references": []
      }
    },
    "diseases_processes_and_activities_linked_to_this_agent": {
      "other_information": {
        "original_name": "Other Information",
        "value": "No other related information on this agent was found.",
        "links": [],
        "cross_references": []
      }
    }
  },
  "cross_references": [
    {
      "type": "name_match",
      "text": "benzene",
      "confidence": 1.0,
      "uuid": "b05124de-5f34-4c14-8f04-ccb20c3780d9",
      "name": "Benzene",
      "url": "https://haz-map.com/Agents/5",
      "category": "agents"
    },
    {
      "type": "name_match",
      "text": "4-dimethylaminoazobenzene",
      "confidence": 1.0,
      "uuid": "dadf0d93-0e72-4695-8b6c-a125f8fece58",
      "name": "4-Dimethylaminoazobenzene",
      "url": "https://haz-map.com/Agents/282",
      "category": "agents"
    },
    {
      "type": "name_match",
      "text": "aniline",
      "confidence": 1.0,
      "uuid": "e4932692-8d9c-4a98-8c5c-81e55b12aedf",
      "name": "Aniline",
      "url": "https://haz-map.com/Agents/296",
      "category": "agents"
    },
    {
      "type": "name_match",
      "text": "2'-methyl-4-dimethylaminoazobenzene",
      "confidence": 1.0,
      "uuid": "fd7ebc26-dab7-4b44-ac3c-01ebadb41783",
      "name": "2'-Methyl-4-dimethylaminoazobenzene",
      "url": "https://haz-map.com/Agents/3053",
      "category": "agents"
    },
    {
      "type": "name_match",
      "text": "azobenzene",
      "confidence": 1.0,
      "uuid": "e1a05c98-d051-4091-8654-3bf45ff3ecbf",
      "name": "Azobenzene",
      "url": "https://haz-map.com/Agents/3789",
      "category": "agents"
    },
    {
      "type": "name_match",
      "text": "methemoglobin",
      "confidence": 1.0,
      "uuid": "afb7ebf5-d2a3-4e60-8d2e-3a19456344ee",
      "name": "Methemoglobin",
      "url": "https://haz-map.com/Agents/15467",
      "category": "agents"
    },
    {
      "type": "fuzzy_match",
      "text": "methemoglobinemia",
      "matched_name": "Methemoglobinemia, acute",
      "confidence": 0.7208333333333333,
      "uuid": "473a44bd-cf11-4710-a769-e8e2b25ba317",
      "category": "diseases",
      "url": "https://haz-map.com/Diseases/210"
    }
  ],
  "all_links": [
    {
      "text": "Search PubMed",
      "url": "https://www.ncbi.nlm.nih.gov/pubmed?term=2%26%2339%3b-Methyl-4-dimethylaminoazobenzene%20AND%20human%5Bmh%5D%20AND%20%28Occupational%20Diseases%20%5Bmh%5D%20OR%20Occupational%20Exposure%20%5Bmh%5D%29%20%20AND%20%28tox%5Bsb%5D%29&cmd=search"
    }
  ]
}