{
  "metadata": {
    "scraped_from": "https://haz-map.com/Agents/10669",
    "entity_name": "2-Heptadecyl-2-imidazoline-1-ethanol",
    "category": "agents",
    "uuid": "fdf30480-7c2e-40ee-807b-08f59fc3d063",
    "scraped_at": "2025-07-23T20:50:57.528796"
  },
  "parsed_at": "2025-07-24T00:54:29.163046",
  "title": "2-Heptadecyl-2-imidazoline-1-ethanol",
  "sections": {
    "general": {
      "agent_name": {
        "original_name": "Agent Name",
        "value": "2-Heptadecyl-2-imidazoline-1-ethanol",
        "links": [],
        "cross_references": [
          {
            "type": "name_match",
            "text": "2-heptadecyl-2-imidazoline-1-ethanol",
            "confidence": 1.0,
            "uuid": "fdf30480-7c2e-40ee-807b-08f59fc3d063",
            "name": "2-Heptadecyl-2-imidazoline-1-ethanol",
            "url": "https://haz-map.com/Agents/10669",
            "category": "agents"
          }
        ]
      },
      "cas_number": {
        "original_name": "CAS Number",
        "value": "95-19-2",
        "links": [],
        "cross_references": []
      },
      "formula": {
        "original_name": "Formula",
        "value": "C22-H44-N2-O",
        "links": [],
        "cross_references": []
      },
      "major_category": {
        "original_name": "Major Category",
        "value": "Nitrogen Compounds",
        "links": [],
        "cross_references": [
          {
            "type": "name_match",
            "text": "nitrogen",
            "confidence": 1.0,
            "uuid": "db5e90a9-06d2-45b9-8b81-f345a89b0bc0",
            "name": "Nitrogen",
            "url": "https://haz-map.com/Agents/1072",
            "category": "agents"
          }
        ]
      },
      "synonyms": {
        "original_name": "Synonyms",
        "value": "Stearyl hydroxyethyl imidazoline; 1-(2-Hydroxyethyl)-2-heptadecyl-2-imidazoline; 1-(Hydroxyethyl)-2-(heptadecyl)imidazoline; 1-(beta-Hydroxethyl)-2-heptadecylimidazoline; 1-Hydroxyethyl-2-heptadecyl glyoxalidine; 2-Heptadecyl-1-hydroxyethylimidazoline; 2-Heptadecyl-3-hydroxyethylimidazoline; 2-Imidazoline, 2-heptadecyl-1-hydroxyethyl-; Amine 225; Casamine SH; Crodazoline O; Fungacide 337; Fungicide 337; Stearic acid, aminoethylethanolamine amide-imidazoline; 1H-Imidazole-1-ethanol, 2-heptadecyl-4,5-dihydro-; 2-(2-Heptadecyl-2-imidazolin-1-yl)ethanol; 2-Heptadecyl-1-(2-hydroxyethyl)-2-imidazoline; 2-Imidazoline-1-ethanol, 2-heptadecyl-; 1-(2-Hydroxyethyl)-2-(heptadecyl)imidazoline; [ChemIDplus]",
        "links": [],
        "cross_references": [
          {
            "type": "name_match",
            "text": "glyoxal",
            "confidence": 1.0,
            "uuid": "2b9e6427-9bb5-4761-a203-976d2bf6ac36",
            "name": "Glyoxal",
            "url": "https://haz-map.com/Agents/98",
            "category": "agents"
          },
          {
            "type": "name_match",
            "text": "ethanolamine",
            "confidence": 1.0,
            "uuid": "16354994-9346-496d-9e19-23d8a4473ab4",
            "name": "Ethanolamine",
            "url": "https://haz-map.com/Agents/288",
            "category": "agents"
          },
          {
            "type": "name_match",
            "text": "tea",
            "confidence": 1.0,
            "uuid": "773409e5-ac1a-4c9e-9470-9667ca82091c",
            "name": "Tea",
            "url": "https://haz-map.com/Agents/878",
            "category": "agents"
          },
          {
            "type": "name_match",
            "text": "fungi",
            "confidence": 1.0,
            "uuid": "e0d489cb-bfee-4aee-b665-999c017268a2",
            "name": "Fungi",
            "url": "https://haz-map.com/Agents/1988",
            "category": "agents"
          },
          {
            "type": "name_match",
            "text": "stearic acid",
            "confidence": 1.0,
            "uuid": "bca9cb9c-5b13-46e3-ab28-e8e0d566876e",
            "name": "Stearic acid",
            "url": "https://haz-map.com/Agents/7203",
            "category": "agents"
          },
          {
            "type": "name_match",
            "text": "imidazole",
            "confidence": 1.0,
            "uuid": "c328c03e-2b26-487b-8c01-799a91dd318e",
            "name": "Imidazole",
            "url": "https://haz-map.com/Agents/18775",
            "category": "agents"
          }
        ]
      },
      "category": {
        "original_name": "Category",
        "value": "Imidazoles",
        "links": [],
        "cross_references": [
          {
            "type": "name_match",
            "text": "imidazole",
            "confidence": 1.0,
            "uuid": "c328c03e-2b26-487b-8c01-799a91dd318e",
            "name": "Imidazole",
            "url": "https://haz-map.com/Agents/18775",
            "category": "agents"
          }
        ]
      },
      "description": {
        "original_name": "Description",
        "value": "Cream colored solid; [CAMEO]",
        "links": [],
        "cross_references": []
      },
      "sourcesuses": {
        "original_name": "Sources/Uses",
        "value": "Permitted for use as an inert ingredient in non-food pesticide products; [EPA]",
        "links": [],
        "cross_references": []
      },
      "comments": {
        "original_name": "Comments",
        "value": "Causes somnolence, chronic pulmonary edema, and diarrhea in oral lethal-dose studies of rats; [RTECS] See \"1-(2-Hydroxyethyl)-2-undecylimidazoline.\"",
        "links": [],
        "cross_references": [
          {
            "type": "name_match",
            "text": "diarrhea",
            "confidence": 1.0,
            "uuid": "001ae7b5-5f3c-42c2-bc33-81e7581abd53",
            "name": "diarrhea",
            "url": "https://haz-map.com/Findings/15",
            "category": "findings"
          },
          {
            "type": "name_match",
            "text": "pulmonary edema",
            "confidence": 1.0,
            "uuid": "ee39114e-c922-40fd-9588-a532de404962",
            "name": "pulmonary edema",
            "url": "https://haz-map.com/Findings/186",
            "category": "findings"
          },
          {
            "type": "name_match",
            "text": "1-(2-hydroxyethyl)-2-undecylimidazoline",
            "confidence": 1.0,
            "uuid": "50b7e4b7-230b-46e0-b228-27fcaebfbbe1",
            "name": "1-(2-Hydroxyethyl)-2-undecylimidazoline",
            "url": "https://haz-map.com/Agents/2837",
            "category": "agents"
          }
        ]
      },
      "biomedical_references": {
        "original_name": "Biomedical References",
        "value": "Search PubMed",
        "links": [
          {
            "text": "Search PubMed",
            "url": "https://www.ncbi.nlm.nih.gov/pubmed?term=2-Heptadecyl-2-imidazoline-1-ethanol%20AND%20human%5Bmh%5D%20AND%20%28Occupational%20Diseases%20%5Bmh%5D%20OR%20Occupational%20Exposure%20%5Bmh%5D%29%20%20AND%20%28tox%5Bsb%5D%29&cmd=search"
          }
        ],
        "cross_references": []
      }
    },
    "exposure_assessment": {
      "vapor_pressure": {
        "original_name": "Vapor Pressure",
        "value": "3.02E-10 mm Hg",
        "links": [],
        "cross_references": []
      }
    },
    "diseases_processes_and_activities_linked_to_this_agent": {
      "other_information": {
        "original_name": "Other Information",
        "value": "No other related information on this agent was found.",
        "links": [],
        "cross_references": []
      }
    }
  },
  "cross_references": [
    {
      "type": "name_match",
      "text": "diarrhea",
      "confidence": 1.0,
      "uuid": "001ae7b5-5f3c-42c2-bc33-81e7581abd53",
      "name": "diarrhea",
      "url": "https://haz-map.com/Findings/15",
      "category": "findings"
    },
    {
      "type": "name_match",
      "text": "pulmonary edema",
      "confidence": 1.0,
      "uuid": "ee39114e-c922-40fd-9588-a532de404962",
      "name": "pulmonary edema",
      "url": "https://haz-map.com/Findings/186",
      "category": "findings"
    },
    {
      "type": "name_match",
      "text": "glyoxal",
      "confidence": 1.0,
      "uuid": "2b9e6427-9bb5-4761-a203-976d2bf6ac36",
      "name": "Glyoxal",
      "url": "https://haz-map.com/Agents/98",
      "category": "agents"
    },
    {
      "type": "name_match",
      "text": "ethanolamine",
      "confidence": 1.0,
      "uuid": "16354994-9346-496d-9e19-23d8a4473ab4",
      "name": "Ethanolamine",
      "url": "https://haz-map.com/Agents/288",
      "category": "agents"
    },
    {
      "type": "name_match",
      "text": "tea",
      "confidence": 1.0,
      "uuid": "773409e5-ac1a-4c9e-9470-9667ca82091c",
      "name": "Tea",
      "url": "https://haz-map.com/Agents/878",
      "category": "agents"
    },
    {
      "type": "name_match",
      "text": "nitrogen",
      "confidence": 1.0,
      "uuid": "db5e90a9-06d2-45b9-8b81-f345a89b0bc0",
      "name": "Nitrogen",
      "url": "https://haz-map.com/Agents/1072",
      "category": "agents"
    },
    {
      "type": "name_match",
      "text": "fungi",
      "confidence": 1.0,
      "uuid": "e0d489cb-bfee-4aee-b665-999c017268a2",
      "name": "Fungi",
      "url": "https://haz-map.com/Agents/1988",
      "category": "agents"
    },
    {
      "type": "name_match",
      "text": "1-(2-hydroxyethyl)-2-undecylimidazoline",
      "confidence": 1.0,
      "uuid": "50b7e4b7-230b-46e0-b228-27fcaebfbbe1",
      "name": "1-(2-Hydroxyethyl)-2-undecylimidazoline",
      "url": "https://haz-map.com/Agents/2837",
      "category": "agents"
    },
    {
      "type": "name_match",
      "text": "stearic acid",
      "confidence": 1.0,
      "uuid": "bca9cb9c-5b13-46e3-ab28-e8e0d566876e",
      "name": "Stearic acid",
      "url": "https://haz-map.com/Agents/7203",
      "category": "agents"
    },
    {
      "type": "name_match",
      "text": "2-heptadecyl-2-imidazoline-1-ethanol",
      "confidence": 1.0,
      "uuid": "fdf30480-7c2e-40ee-807b-08f59fc3d063",
      "name": "2-Heptadecyl-2-imidazoline-1-ethanol",
      "url": "https://haz-map.com/Agents/10669",
      "category": "agents"
    },
    {
      "type": "name_match",
      "text": "imidazole",
      "confidence": 1.0,
      "uuid": "c328c03e-2b26-487b-8c01-799a91dd318e",
      "name": "Imidazole",
      "url": "https://haz-map.com/Agents/18775",
      "category": "agents"
    }
  ],
  "all_links": [
    {
      "text": "Search PubMed",
      "url": "https://www.ncbi.nlm.nih.gov/pubmed?term=2-Heptadecyl-2-imidazoline-1-ethanol%20AND%20human%5Bmh%5D%20AND%20%28Occupational%20Diseases%20%5Bmh%5D%20OR%20Occupational%20Exposure%20%5Bmh%5D%29%20%20AND%20%28tox%5Bsb%5D%29&cmd=search"
    }
  ]
}