{
  "metadata": {
    "scraped_from": "https://haz-map.com/Agents/14850",
    "entity_name": "Imazapyr isopropylamine salt",
    "category": "agents",
    "uuid": "fe221647-8fd1-4ff1-8510-9f29bfe54c72",
    "scraped_at": "2025-07-23T21:26:52.107921"
  },
  "parsed_at": "2025-07-24T00:59:47.153519",
  "title": "Imazapyr isopropylamine salt",
  "sections": {
    "general": {
      "agent_name": {
        "original_name": "Agent Name",
        "value": "Imazapyr isopropylamine salt",
        "links": [],
        "cross_references": [
          {
            "type": "name_match",
            "text": "isopropylamine",
            "confidence": 1.0,
            "uuid": "43316e6a-7cdf-4441-abad-b64fd8b0dd71",
            "name": "Isopropylamine",
            "url": "https://haz-map.com/Agents/223",
            "category": "agents"
          },
          {
            "type": "name_match",
            "text": "imazapyr",
            "confidence": 1.0,
            "uuid": "de9df938-4b07-4c2b-97ca-a9323e85a797",
            "name": "Imazapyr",
            "url": "https://haz-map.com/Agents/5608",
            "category": "agents"
          },
          {
            "type": "name_match",
            "text": "imazapyr isopropylamine salt",
            "confidence": 1.0,
            "uuid": "fe221647-8fd1-4ff1-8510-9f29bfe54c72",
            "name": "Imazapyr isopropylamine salt",
            "url": "https://haz-map.com/Agents/14850",
            "category": "agents"
          }
        ]
      },
      "cas_number": {
        "original_name": "CAS Number",
        "value": "81510-83-0",
        "links": [],
        "cross_references": []
      },
      "formula": {
        "original_name": "Formula",
        "value": "C13-H15-N3-O3.C3-H9-N",
        "links": [],
        "cross_references": []
      },
      "major_category": {
        "original_name": "Major Category",
        "value": "Pesticides",
        "links": [],
        "cross_references": []
      },
      "synonyms": {
        "original_name": "Synonyms",
        "value": "AC 252,925; AC 925; Arsenal; Arsenal 2; Arsenal S; CL 252,925; Chopper; Imazapyr plus isopropylamine; Imazapyr, isopropylamine salt; Imazapyr-isopropylammonium; Stalker; 3-Pyridinecarboxylic acid, 2-(4,5-dihydro-4-methyl-4-(1-methylethyl)-5-oxo-1H-imidazol-2-yl)-, compd. with 2-propanamine (1:1); 2-(4,5-Dihydro-4-methyl-4-(1-methylethyl)-5-oxo-1H-imidazol-2-yl)-3-pyridinecarboxylic acid, monoisopropylamine; [ChemIDplus] AC-252925; CL-252925; [Merck Index] 2-(4,5-Dihydro-4-methyl-4-(1-methylethyl)-5-oxo-1H-imidazol-2-yl)-3-pyridinecarboxylic acid, salt with 2-propanamine; Isopropylamine salt of Imazapyr; [BASF MSDS]",
        "links": [],
        "cross_references": [
          {
            "type": "name_match",
            "text": "isopropylamine",
            "confidence": 1.0,
            "uuid": "43316e6a-7cdf-4441-abad-b64fd8b0dd71",
            "name": "Isopropylamine",
            "url": "https://haz-map.com/Agents/223",
            "category": "agents"
          },
          {
            "type": "name_match",
            "text": "pyridine",
            "confidence": 1.0,
            "uuid": "a2d916a4-844b-4df6-9be5-868b2b364d71",
            "name": "Pyridine",
            "url": "https://haz-map.com/Agents/616",
            "category": "agents"
          },
          {
            "type": "name_match",
            "text": "imazapyr",
            "confidence": 1.0,
            "uuid": "de9df938-4b07-4c2b-97ca-a9323e85a797",
            "name": "Imazapyr",
            "url": "https://haz-map.com/Agents/5608",
            "category": "agents"
          }
        ]
      },
      "category": {
        "original_name": "Category",
        "value": "Herbicides, Imidazolinone",
        "links": [],
        "cross_references": [
          {
            "type": "name_match",
            "text": "herbicides",
            "confidence": 1.0,
            "uuid": "195f29ae-3f15-47c5-836d-0a9791db3fc1",
            "name": "HERBICIDES",
            "url": "https://haz-map.com/Agents/703",
            "category": "agents"
          }
        ]
      },
      "description": {
        "original_name": "Description",
        "value": "Melting point = 160-180 deg C; [Merck Index] 46.9% Inerts: Clear green liquid with an ammoniacal odor; [BASF MSDS]",
        "links": [],
        "cross_references": [
          {
            "type": "name_match",
            "text": "ammonia",
            "confidence": 1.0,
            "uuid": "4a9ab845-a2cc-47e0-ab5c-e53693380800",
            "name": "Ammonia",
            "url": "https://haz-map.com/Agents/291",
            "category": "agents"
          }
        ]
      },
      "sourcesuses": {
        "original_name": "Sources/Uses",
        "value": "Used as non-selective, pre- and post-emergent herbicide for use on corn, grass, and a variety of commercial, recreational, and residential sites; [Reference #1]",
        "links": [],
        "cross_references": []
      },
      "comments": {
        "original_name": "Comments",
        "value": "Can cause irreversible eye injury; [Reference #1] See \"Imazapyr.\"",
        "links": [],
        "cross_references": [
          {
            "type": "name_match",
            "text": "imazapyr",
            "confidence": 1.0,
            "uuid": "de9df938-4b07-4c2b-97ca-a9323e85a797",
            "name": "Imazapyr",
            "url": "https://haz-map.com/Agents/5608",
            "category": "agents"
          }
        ]
      },
      "reference_link_1": {
        "original_name": "Reference Link #1",
        "value": "EPA Pesticide Chemical Search",
        "links": [
          {
            "text": "EPA Pesticide Chemical Search",
            "url": "https://iaspub.epa.gov/apex/pesticides/f?p=CHEMICALSEARCH:1:"
          }
        ],
        "cross_references": [
          {
            "type": "name_match",
            "text": "mica",
            "confidence": 1.0,
            "uuid": "433f26f1-c399-4596-b179-ce3843cfd465",
            "name": "Mica",
            "url": "https://haz-map.com/Agents/621",
            "category": "agents"
          }
        ]
      },
      "biomedical_references": {
        "original_name": "Biomedical References",
        "value": "Search PubMed",
        "links": [
          {
            "text": "Search PubMed",
            "url": "https://www.ncbi.nlm.nih.gov/pubmed?term=Imazapyr+isopropylamine+salt%20AND%20human%5Bmh%5D%20AND%20%28Occupational%20Diseases%20%5Bmh%5D%20OR%20Occupational%20Exposure%20%5Bmh%5D%29%20%20AND%20%28tox%5Bsb%5D%29&cmd=search"
          }
        ],
        "cross_references": []
      }
    },
    "diseases_processes_and_activities_linked_to_this_agent": {
      "processes": {
        "original_name": "Processes",
        "value": "Industrial Processes with risk of exposure: Farming (Pesticides)",
        "links": [
          {
            "text": "Farming (Pesticides)",
            "url": "https://haz-map.com/Processes/218"
          }
        ],
        "cross_references": [
          {
            "type": "url_match",
            "text": "Farming (Pesticides)",
            "url": "https://haz-map.com/Processes/218",
            "confidence": 1.0,
            "uuid": "cf1e5815-c9bb-4917-82a5-391848170b7e",
            "name": "Farming (Pesticides)",
            "category": "processes"
          }
        ]
      }
    }
  },
  "cross_references": [
    {
      "type": "url_match",
      "text": "Farming (Pesticides)",
      "url": "https://haz-map.com/Processes/218",
      "confidence": 1.0,
      "uuid": "cf1e5815-c9bb-4917-82a5-391848170b7e",
      "name": "Farming (Pesticides)",
      "category": "processes"
    },
    {
      "type": "name_match",
      "text": "isopropylamine",
      "confidence": 1.0,
      "uuid": "43316e6a-7cdf-4441-abad-b64fd8b0dd71",
      "name": "Isopropylamine",
      "url": "https://haz-map.com/Agents/223",
      "category": "agents"
    },
    {
      "type": "name_match",
      "text": "ammonia",
      "confidence": 1.0,
      "uuid": "4a9ab845-a2cc-47e0-ab5c-e53693380800",
      "name": "Ammonia",
      "url": "https://haz-map.com/Agents/291",
      "category": "agents"
    },
    {
      "type": "name_match",
      "text": "pyridine",
      "confidence": 1.0,
      "uuid": "a2d916a4-844b-4df6-9be5-868b2b364d71",
      "name": "Pyridine",
      "url": "https://haz-map.com/Agents/616",
      "category": "agents"
    },
    {
      "type": "name_match",
      "text": "mica",
      "confidence": 1.0,
      "uuid": "433f26f1-c399-4596-b179-ce3843cfd465",
      "name": "Mica",
      "url": "https://haz-map.com/Agents/621",
      "category": "agents"
    },
    {
      "type": "name_match",
      "text": "herbicides",
      "confidence": 1.0,
      "uuid": "195f29ae-3f15-47c5-836d-0a9791db3fc1",
      "name": "HERBICIDES",
      "url": "https://haz-map.com/Agents/703",
      "category": "agents"
    },
    {
      "type": "name_match",
      "text": "imazapyr",
      "confidence": 1.0,
      "uuid": "de9df938-4b07-4c2b-97ca-a9323e85a797",
      "name": "Imazapyr",
      "url": "https://haz-map.com/Agents/5608",
      "category": "agents"
    },
    {
      "type": "name_match",
      "text": "imazapyr isopropylamine salt",
      "confidence": 1.0,
      "uuid": "fe221647-8fd1-4ff1-8510-9f29bfe54c72",
      "name": "Imazapyr isopropylamine salt",
      "url": "https://haz-map.com/Agents/14850",
      "category": "agents"
    }
  ],
  "all_links": [
    {
      "text": "EPA Pesticide Chemical Search",
      "url": "https://iaspub.epa.gov/apex/pesticides/f?p=CHEMICALSEARCH:1:"
    },
    {
      "text": "Search PubMed",
      "url": "https://www.ncbi.nlm.nih.gov/pubmed?term=Imazapyr+isopropylamine+salt%20AND%20human%5Bmh%5D%20AND%20%28Occupational%20Diseases%20%5Bmh%5D%20OR%20Occupational%20Exposure%20%5Bmh%5D%29%20%20AND%20%28tox%5Bsb%5D%29&cmd=search"
    },
    {
      "text": "Farming (Pesticides)",
      "url": "https://haz-map.com/Processes/218"
    }
  ]
}