{
  "metadata": {
    "scraped_from": "https://haz-map.com/Agents/2922",
    "entity_name": "1-Tetracosanol",
    "category": "agents",
    "uuid": "fe5d25b5-c9af-40b8-98e1-7fce32974f05",
    "scraped_at": "2025-07-23T19:21:02.323135"
  },
  "parsed_at": "2025-07-24T00:55:19.631820",
  "title": "1-Tetracosanol",
  "sections": {
    "general": {
      "agent_name": {
        "original_name": "Agent Name",
        "value": "1-Tetracosanol",
        "links": [],
        "cross_references": [
          {
            "type": "name_match",
            "text": "1-tetracosanol",
            "confidence": 1.0,
            "uuid": "fe5d25b5-c9af-40b8-98e1-7fce32974f05",
            "name": "1-Tetracosanol",
            "url": "https://haz-map.com/Agents/2922",
            "category": "agents"
          }
        ]
      },
      "cas_number": {
        "original_name": "CAS Number",
        "value": "506-51-4",
        "links": [],
        "cross_references": []
      },
      "formula": {
        "original_name": "Formula",
        "value": "C24-H50-O",
        "links": [],
        "cross_references": []
      },
      "major_category": {
        "original_name": "Major Category",
        "value": "Other Classes",
        "links": [],
        "cross_references": []
      },
      "synonyms": {
        "original_name": "Synonyms",
        "value": "Lignoceric alcohol; Lignocerol; Lignoceryl alcohol; Tetracosyl alcohol; n-Tetracosanol; Tetracosanol; [ChemIDplus]",
        "links": [],
        "cross_references": []
      },
      "category": {
        "original_name": "Category",
        "value": "Alcohols and Polyols, Other",
        "links": [],
        "cross_references": []
      },
      "description": {
        "original_name": "Description",
        "value": "White powder; [MSDSonline]",
        "links": [],
        "cross_references": []
      },
      "sourcesuses": {
        "original_name": "Sources/Uses",
        "value": "Used as intermediates; Fatty alcohols with chain lengths >18 are used to prevent evaporation of water reservoirs during dry seasons; Naturally occurring in lanolin and green leaf composite samples; [HSDB]",
        "links": [],
        "cross_references": [
          {
            "type": "name_match",
            "text": "lanolin",
            "confidence": 1.0,
            "uuid": "bab29408-640b-4c00-a789-a9077f95b4de",
            "name": "Lanolin",
            "url": "https://haz-map.com/Agents/1011",
            "category": "agents"
          },
          {
            "type": "name_match",
            "text": "water",
            "confidence": 1.0,
            "uuid": "6f2a7557-dfd2-49bc-9b4b-a93cd8e225d4",
            "name": "Water",
            "url": "https://haz-map.com/Agents/18668",
            "category": "agents"
          }
        ]
      },
      "comments": {
        "original_name": "Comments",
        "value": "May cause irritation; [MSDSonline]",
        "links": [],
        "cross_references": []
      },
      "biomedical_references": {
        "original_name": "Biomedical References",
        "value": "Search PubMed",
        "links": [
          {
            "text": "Search PubMed",
            "url": "https://www.ncbi.nlm.nih.gov/pubmed?term=1-Tetracosanol%20AND%20human%5Bmh%5D%20AND%20%28Occupational%20Diseases%20%5Bmh%5D%20OR%20Occupational%20Exposure%20%5Bmh%5D%29%20%20AND%20%28tox%5Bsb%5D%29&cmd=search"
          }
        ],
        "cross_references": []
      }
    },
    "exposure_assessment": {
      "vapor_pressure": {
        "original_name": "Vapor Pressure",
        "value": "2.4E-09 mm Hg",
        "links": [],
        "cross_references": []
      }
    },
    "diseases_processes_and_activities_linked_to_this_agent": {
      "other_information": {
        "original_name": "Other Information",
        "value": "No other related information on this agent was found.",
        "links": [],
        "cross_references": []
      }
    }
  },
  "cross_references": [
    {
      "type": "name_match",
      "text": "lanolin",
      "confidence": 1.0,
      "uuid": "bab29408-640b-4c00-a789-a9077f95b4de",
      "name": "Lanolin",
      "url": "https://haz-map.com/Agents/1011",
      "category": "agents"
    },
    {
      "type": "name_match",
      "text": "1-tetracosanol",
      "confidence": 1.0,
      "uuid": "fe5d25b5-c9af-40b8-98e1-7fce32974f05",
      "name": "1-Tetracosanol",
      "url": "https://haz-map.com/Agents/2922",
      "category": "agents"
    },
    {
      "type": "name_match",
      "text": "water",
      "confidence": 1.0,
      "uuid": "6f2a7557-dfd2-49bc-9b4b-a93cd8e225d4",
      "name": "Water",
      "url": "https://haz-map.com/Agents/18668",
      "category": "agents"
    }
  ],
  "all_links": [
    {
      "text": "Search PubMed",
      "url": "https://www.ncbi.nlm.nih.gov/pubmed?term=1-Tetracosanol%20AND%20human%5Bmh%5D%20AND%20%28Occupational%20Diseases%20%5Bmh%5D%20OR%20Occupational%20Exposure%20%5Bmh%5D%29%20%20AND%20%28tox%5Bsb%5D%29&cmd=search"
    }
  ]
}