{
  "metadata": {
    "scraped_from": "https://haz-map.com/Agents/16965",
    "entity_name": "Propyl formate",
    "category": "agents",
    "uuid": "fe75da5d-6043-4300-9cc9-364039ad53ec",
    "scraped_at": "2025-07-23T21:42:21.884156"
  },
  "parsed_at": "2025-07-24T01:01:12.860101",
  "title": "Propyl formate",
  "sections": {
    "general": {
      "agent_name": {
        "original_name": "Agent Name",
        "value": "Propyl formate",
        "links": [],
        "cross_references": [
          {
            "type": "name_match",
            "text": "propyl formate",
            "confidence": 1.0,
            "uuid": "fe75da5d-6043-4300-9cc9-364039ad53ec",
            "name": "Propyl formate",
            "url": "https://haz-map.com/Agents/16965",
            "category": "agents"
          }
        ]
      },
      "cas_number": {
        "original_name": "CAS Number",
        "value": "110-74-7",
        "links": [],
        "cross_references": []
      },
      "formula": {
        "original_name": "Formula",
        "value": "C4-H8-O2",
        "links": [],
        "cross_references": []
      },
      "major_category": {
        "original_name": "Major Category",
        "value": "Solvents",
        "links": [],
        "cross_references": []
      },
      "synonyms": {
        "original_name": "Synonyms",
        "value": "Formiate de propyle [French]; Formic acid, propyl ester; Propyl formate; Propyl methanoate; Propylester kyseliny mravenci [Czech]; n-Propyl formate; Propyl formates; [ChemIDplus] Formiatos de propilo (Spanish DOT); [CAMEO] UN1281",
        "links": [],
        "cross_references": [
          {
            "type": "name_match",
            "text": "formic acid",
            "confidence": 1.0,
            "uuid": "5de50e8b-f1d4-40c0-a85a-79ed7fd08ea8",
            "name": "Formic acid",
            "url": "https://haz-map.com/Agents/497",
            "category": "agents"
          },
          {
            "type": "name_match",
            "text": "propyl formate",
            "confidence": 1.0,
            "uuid": "fe75da5d-6043-4300-9cc9-364039ad53ec",
            "name": "Propyl formate",
            "url": "https://haz-map.com/Agents/16965",
            "category": "agents"
          }
        ]
      },
      "category": {
        "original_name": "Category",
        "value": "Esters (<C12)",
        "links": [],
        "cross_references": []
      },
      "description": {
        "original_name": "Description",
        "value": "Colorless liquid with a pleasant odor; [Merck Index]",
        "links": [],
        "cross_references": []
      },
      "sourcesuses": {
        "original_name": "Sources/Uses",
        "value": "Used as flavoring agent or adjuvant; [FDA]",
        "links": [],
        "cross_references": []
      },
      "comments": {
        "original_name": "Comments",
        "value": "Causes somnolence in oral lethal-dose studies of rats and mice; [RTECS] Safe when used as a flavoring agent in food; [JECFA] An eye and respiratory tract irritant; Inhalation may have narcotic effects; [Alfa Aesar MSDS] See \"Ethyl formate.\"",
        "links": [],
        "cross_references": [
          {
            "type": "name_match",
            "text": "ethyl formate",
            "confidence": 1.0,
            "uuid": "28a01032-4463-4311-9ed0-6a27055aa332",
            "name": "Ethyl formate",
            "url": "https://haz-map.com/Agents/485",
            "category": "agents"
          }
        ]
      },
      "biomedical_references": {
        "original_name": "Biomedical References",
        "value": "Search PubMed",
        "links": [
          {
            "text": "Search PubMed",
            "url": "https://www.ncbi.nlm.nih.gov/pubmed?term=Propyl+formate%20AND%20human%5Bmh%5D%20AND%20%28Occupational%20Diseases%20%5Bmh%5D%20OR%20Occupational%20Exposure%20%5Bmh%5D%29%20%20AND%20%28tox%5Bsb%5D%29&cmd=search"
          }
        ],
        "cross_references": []
      }
    },
    "exposure_assessment": {
      "vapor_pressure": {
        "original_name": "Vapor Pressure",
        "value": "82.6 mm Hg",
        "links": [],
        "cross_references": []
      },
      "explanatory_notes": {
        "original_name": "Explanatory Notes",
        "value": "The Guide in the Emergency Response Guidebook is for \"Propyl formates.\"",
        "links": [],
        "cross_references": [
          {
            "type": "name_match",
            "text": "propyl formate",
            "confidence": 1.0,
            "uuid": "fe75da5d-6043-4300-9cc9-364039ad53ec",
            "name": "Propyl formate",
            "url": "https://haz-map.com/Agents/16965",
            "category": "agents"
          }
        ]
      },
      "nfpa": {
        "original_name": "NFPA",
        "value": "may ignite at ambient temp",
        "links": [],
        "cross_references": []
      }
    },
    "adverse_effects": {
      "neurotoxin": {
        "original_name": "Neurotoxin",
        "value": "Acute solvent syndrome",
        "links": [],
        "cross_references": []
      }
    },
    "diseases_processes_and_activities_linked_to_this_agent": {
      "diseases": {
        "original_name": "Diseases",
        "value": "Occupational diseases associated with exposure to this agent: Solvents, acute toxic effect",
        "links": [
          {
            "text": "Solvents, acute toxic effect",
            "url": "https://haz-map.com/Diseases/326"
          }
        ],
        "cross_references": [
          {
            "type": "url_match",
            "text": "Solvents, acute toxic effect",
            "url": "https://haz-map.com/Diseases/326",
            "confidence": 1.0,
            "uuid": "581e90e3-9d0c-45f0-aa6c-3468c28da129",
            "name": "Solvents, acute toxic effect",
            "category": "diseases"
          }
        ]
      }
    }
  },
  "cross_references": [
    {
      "type": "url_match",
      "text": "Solvents, acute toxic effect",
      "url": "https://haz-map.com/Diseases/326",
      "confidence": 1.0,
      "uuid": "581e90e3-9d0c-45f0-aa6c-3468c28da129",
      "name": "Solvents, acute toxic effect",
      "category": "diseases"
    },
    {
      "type": "name_match",
      "text": "ethyl formate",
      "confidence": 1.0,
      "uuid": "28a01032-4463-4311-9ed0-6a27055aa332",
      "name": "Ethyl formate",
      "url": "https://haz-map.com/Agents/485",
      "category": "agents"
    },
    {
      "type": "name_match",
      "text": "formic acid",
      "confidence": 1.0,
      "uuid": "5de50e8b-f1d4-40c0-a85a-79ed7fd08ea8",
      "name": "Formic acid",
      "url": "https://haz-map.com/Agents/497",
      "category": "agents"
    },
    {
      "type": "name_match",
      "text": "propyl formate",
      "confidence": 1.0,
      "uuid": "fe75da5d-6043-4300-9cc9-364039ad53ec",
      "name": "Propyl formate",
      "url": "https://haz-map.com/Agents/16965",
      "category": "agents"
    }
  ],
  "all_links": [
    {
      "text": "Search PubMed",
      "url": "https://www.ncbi.nlm.nih.gov/pubmed?term=Propyl+formate%20AND%20human%5Bmh%5D%20AND%20%28Occupational%20Diseases%20%5Bmh%5D%20OR%20Occupational%20Exposure%20%5Bmh%5D%29%20%20AND%20%28tox%5Bsb%5D%29&cmd=search"
    },
    {
      "text": "Solvents, acute toxic effect",
      "url": "https://haz-map.com/Diseases/326"
    }
  ]
}