{
  "metadata": {
    "scraped_from": "https://haz-map.com/Agents/17945",
    "entity_name": "Tetrapentylammonium iodide",
    "category": "agents",
    "uuid": "fec5ce5c-3cb5-4491-82af-8cb69a8f27f0",
    "scraped_at": "2025-07-23T21:51:03.542851"
  },
  "parsed_at": "2025-07-24T01:09:02.597635",
  "title": "Tetrapentylammonium iodide",
  "sections": {
    "general": {
      "agent_name": {
        "original_name": "Agent Name",
        "value": "Tetrapentylammonium iodide",
        "links": [],
        "cross_references": [
          {
            "type": "name_match",
            "text": "ammonium iodide",
            "confidence": 1.0,
            "uuid": "558eaebc-79d1-401c-b37c-9f8c648cbca6",
            "name": "Ammonium iodide",
            "url": "https://haz-map.com/Agents/3664",
            "category": "agents"
          },
          {
            "type": "name_match",
            "text": "tetrapentylammonium iodide",
            "confidence": 1.0,
            "uuid": "fec5ce5c-3cb5-4491-82af-8cb69a8f27f0",
            "name": "Tetrapentylammonium iodide",
            "url": "https://haz-map.com/Agents/17945",
            "category": "agents"
          }
        ]
      },
      "cas_number": {
        "original_name": "CAS Number",
        "value": "2498-20-6",
        "links": [],
        "cross_references": []
      },
      "formula": {
        "original_name": "Formula",
        "value": "C20-H44-N.I",
        "links": [],
        "cross_references": []
      },
      "major_category": {
        "original_name": "Major Category",
        "value": "Nitrogen Compounds",
        "links": [],
        "cross_references": [
          {
            "type": "name_match",
            "text": "nitrogen",
            "confidence": 1.0,
            "uuid": "db5e90a9-06d2-45b9-8b81-f345a89b0bc0",
            "name": "Nitrogen",
            "url": "https://haz-map.com/Agents/1072",
            "category": "agents"
          }
        ]
      },
      "synonyms": {
        "original_name": "Synonyms",
        "value": "1-Pentanaminium, N,N,N-tripentyl-, iodide; [ChemIDplus] Tetra-n-pentylammonium iodide; [Alfa Aesar MSDS]",
        "links": [],
        "cross_references": [
          {
            "type": "name_match",
            "text": "ammonium iodide",
            "confidence": 1.0,
            "uuid": "558eaebc-79d1-401c-b37c-9f8c648cbca6",
            "name": "Ammonium iodide",
            "url": "https://haz-map.com/Agents/3664",
            "category": "agents"
          }
        ]
      },
      "category": {
        "original_name": "Category",
        "value": "Quaternary Amines",
        "links": [],
        "cross_references": []
      },
      "description": {
        "original_name": "Description",
        "value": "Cream or light yellow hygroscopic powder; [Alfa Aesar MSDS]",
        "links": [],
        "cross_references": [
          {
            "type": "name_match",
            "text": "ht",
            "confidence": 1.0,
            "uuid": "764df367-8d53-4a11-81a2-31ccfe122a8d",
            "name": "HT",
            "url": "https://haz-map.com/Agents/2168",
            "category": "agents"
          }
        ]
      },
      "comments": {
        "original_name": "Comments",
        "value": "An irritant; [Alfa Aesar MSDS] See \"Iodine\" for the TLV of Iodides.",
        "links": [],
        "cross_references": [
          {
            "type": "name_match",
            "text": "iodine",
            "confidence": 1.0,
            "uuid": "7c3af5f1-9c8f-4194-ad3a-5c290dde98f7",
            "name": "Iodine",
            "url": "https://haz-map.com/Agents/522",
            "category": "agents"
          }
        ]
      },
      "biomedical_references": {
        "original_name": "Biomedical References",
        "value": "Search PubMed",
        "links": [
          {
            "text": "Search PubMed",
            "url": "https://www.ncbi.nlm.nih.gov/pubmed?term=Tetrapentylammonium+iodide%20AND%20human%5Bmh%5D%20AND%20%28Occupational%20Diseases%20%5Bmh%5D%20OR%20Occupational%20Exposure%20%5Bmh%5D%29%20%20AND%20%28tox%5Bsb%5D%29&cmd=search"
          }
        ],
        "cross_references": []
      }
    },
    "exposure_assessment": {
      "tlv_acgih": {
        "original_name": "TLV (ACGIH)",
        "value": "0.01 ppm, inhalable fraction and vapor (iodides)",
        "links": [],
        "cross_references": []
      },
      "vapor_pressure": {
        "original_name": "Vapor Pressure",
        "value": "8.51E-12 mm Hg",
        "links": [],
        "cross_references": []
      }
    },
    "diseases_processes_and_activities_linked_to_this_agent": {
      "other_information": {
        "original_name": "Other Information",
        "value": "No other related information on this agent was found.",
        "links": [],
        "cross_references": []
      }
    }
  },
  "cross_references": [
    {
      "type": "name_match",
      "text": "iodine",
      "confidence": 1.0,
      "uuid": "7c3af5f1-9c8f-4194-ad3a-5c290dde98f7",
      "name": "Iodine",
      "url": "https://haz-map.com/Agents/522",
      "category": "agents"
    },
    {
      "type": "name_match",
      "text": "nitrogen",
      "confidence": 1.0,
      "uuid": "db5e90a9-06d2-45b9-8b81-f345a89b0bc0",
      "name": "Nitrogen",
      "url": "https://haz-map.com/Agents/1072",
      "category": "agents"
    },
    {
      "type": "name_match",
      "text": "ht",
      "confidence": 1.0,
      "uuid": "764df367-8d53-4a11-81a2-31ccfe122a8d",
      "name": "HT",
      "url": "https://haz-map.com/Agents/2168",
      "category": "agents"
    },
    {
      "type": "name_match",
      "text": "ammonium iodide",
      "confidence": 1.0,
      "uuid": "558eaebc-79d1-401c-b37c-9f8c648cbca6",
      "name": "Ammonium iodide",
      "url": "https://haz-map.com/Agents/3664",
      "category": "agents"
    },
    {
      "type": "name_match",
      "text": "tetrapentylammonium iodide",
      "confidence": 1.0,
      "uuid": "fec5ce5c-3cb5-4491-82af-8cb69a8f27f0",
      "name": "Tetrapentylammonium iodide",
      "url": "https://haz-map.com/Agents/17945",
      "category": "agents"
    }
  ],
  "all_links": [
    {
      "text": "Search PubMed",
      "url": "https://www.ncbi.nlm.nih.gov/pubmed?term=Tetrapentylammonium+iodide%20AND%20human%5Bmh%5D%20AND%20%28Occupational%20Diseases%20%5Bmh%5D%20OR%20Occupational%20Exposure%20%5Bmh%5D%29%20%20AND%20%28tox%5Bsb%5D%29&cmd=search"
    }
  ]
}