{
  "metadata": {
    "scraped_from": "https://haz-map.com/Agents/21009",
    "entity_name": "Homovanillic acid",
    "category": "agents",
    "uuid": "fef7f7ce-f11e-478c-8e7e-6789355633fc",
    "scraped_at": "2025-07-23T22:36:07.198626"
  },
  "parsed_at": "2025-07-24T01:01:45.990646",
  "title": "Homovanillic acid",
  "sections": {
    "general": {
      "agent_name": {
        "original_name": "Agent Name",
        "value": "Homovanillic acid",
        "links": [],
        "cross_references": [
          {
            "type": "name_match",
            "text": "vanillic acid",
            "confidence": 1.0,
            "uuid": "5d78c8d8-b0e7-475c-9771-af9fa8c6e14e",
            "name": "Vanillic acid",
            "url": "https://haz-map.com/Agents/18621",
            "category": "agents"
          },
          {
            "type": "name_match",
            "text": "homovanillic acid",
            "confidence": 1.0,
            "uuid": "fef7f7ce-f11e-478c-8e7e-6789355633fc",
            "name": "Homovanillic acid",
            "url": "https://haz-map.com/Agents/21009",
            "category": "agents"
          }
        ]
      },
      "cas_number": {
        "original_name": "CAS Number",
        "value": "306-08-1",
        "links": [],
        "cross_references": []
      },
      "formula": {
        "original_name": "Formula",
        "value": "C9-H10-O4",
        "links": [],
        "cross_references": []
      },
      "major_category": {
        "original_name": "Major Category",
        "value": "Biological Agents",
        "links": [],
        "cross_references": []
      },
      "synonyms": {
        "original_name": "Synonyms",
        "value": "(4-Hydroxy-3-methoxyphenyl)acetic acid; 3-Methoxy-4-hydroxyphenylacetic acid; 4-Hydroxy-3-methoxybenzeneacetic acid; HMPA; HVA; Vanillacetic acid; 4-Hydroxy-3-methoxyphenylacetic acid; Acetic acid, (4-hydroxy-3-methoxyphenyl)- (8CI); Benzeneacetic acid, 4-hydroxy-3-methoxy-; [ChemIDplus] 4-Hydroxy-3-methoxy-alpha-toluic acid; [Merck Index]",
        "links": [],
        "cross_references": [
          {
            "type": "name_match",
            "text": "benzene",
            "confidence": 1.0,
            "uuid": "b05124de-5f34-4c14-8f04-ccb20c3780d9",
            "name": "Benzene",
            "url": "https://haz-map.com/Agents/5",
            "category": "agents"
          },
          {
            "type": "name_match",
            "text": "acetic acid",
            "confidence": 1.0,
            "uuid": "0905c6e4-df84-4895-a92d-658819239bbd",
            "name": "Acetic acid",
            "url": "https://haz-map.com/Agents/207",
            "category": "agents"
          },
          {
            "type": "name_match",
            "text": "phenylacetic acid",
            "confidence": 1.0,
            "uuid": "9fd56a07-b965-4725-89f1-49d42ccba118",
            "name": "Phenylacetic acid",
            "url": "https://haz-map.com/Agents/6638",
            "category": "agents"
          },
          {
            "type": "name_match",
            "text": "4-hydroxyphenylacetic acid",
            "confidence": 1.0,
            "uuid": "16847d82-6869-4506-aeb0-caafaead314c",
            "name": "4-Hydroxyphenylacetic acid",
            "url": "https://haz-map.com/Agents/11165",
            "category": "agents"
          },
          {
            "type": "name_match",
            "text": "3-methoxyphenylacetic acid",
            "confidence": 1.0,
            "uuid": "9c8f3327-7c93-4d78-b5c4-04934e919824",
            "name": "3-Methoxyphenylacetic acid",
            "url": "https://haz-map.com/Agents/19919",
            "category": "agents"
          }
        ]
      },
      "category": {
        "original_name": "Category",
        "value": "Other Biomolecules",
        "links": [],
        "cross_references": []
      },
      "description": {
        "original_name": "Description",
        "value": "White solid; [Merck Index] White to pale brown crystalline powder; [Alfa Aesar MSDS]",
        "links": [],
        "cross_references": [
          {
            "type": "fuzzy_match",
            "text": "crystalline",
            "matched_name": "Silica, crystalline",
            "confidence": 0.7061403508771931,
            "uuid": "f920e8a2-46df-41b7-af8d-0368a777251e",
            "category": "agents",
            "url": "https://haz-map.com/Agents/427"
          }
        ]
      },
      "sourcesuses": {
        "original_name": "Sources/Uses",
        "value": "A metabolite present in human urine; [Merck Index] \". . . a major catecholamine metabolite and is produced through out the body. It is used as a reagent to detect oxidative enzymes, and is associated with dopamine levels in the brain.\" [Wikipedia]",
        "links": [],
        "cross_references": [
          {
            "type": "name_match",
            "text": "catechol",
            "confidence": 1.0,
            "uuid": "f171132b-f7fb-42b9-ba76-091eb240fa4a",
            "name": "Catechol",
            "url": "https://haz-map.com/Agents/346",
            "category": "agents"
          },
          {
            "type": "name_match",
            "text": "enzymes",
            "confidence": 1.0,
            "uuid": "fe84a5f3-127f-4a3f-bd93-9a905dddee93",
            "name": "ENZYMES",
            "url": "https://haz-map.com/Agents/741",
            "category": "agents"
          }
        ]
      },
      "comments": {
        "original_name": "Comments",
        "value": "A skin, respiratory tract, and strong eye irritant; [Alfa Aesar MSDS]",
        "links": [],
        "cross_references": []
      },
      "biomedical_references": {
        "original_name": "Biomedical References",
        "value": "Search PubMed",
        "links": [
          {
            "text": "Search PubMed",
            "url": "https://www.ncbi.nlm.nih.gov/pubmed?term=Homovanillic+acid%20AND%20human%5Bmh%5D%20AND%20%28Occupational%20Diseases%20%5Bmh%5D%20OR%20Occupational%20Exposure%20%5Bmh%5D%29%20%20AND%20%28tox%5Bsb%5D%29&cmd=search"
          }
        ],
        "cross_references": []
      }
    },
    "exposure_assessment": {
      "vapor_pressure": {
        "original_name": "Vapor Pressure",
        "value": "8.23E-06 mm Hg",
        "links": [],
        "cross_references": []
      }
    },
    "diseases_processes_and_activities_linked_to_this_agent": {
      "other_information": {
        "original_name": "Other Information",
        "value": "No other related information on this agent was found.",
        "links": [],
        "cross_references": []
      }
    }
  },
  "cross_references": [
    {
      "type": "name_match",
      "text": "benzene",
      "confidence": 1.0,
      "uuid": "b05124de-5f34-4c14-8f04-ccb20c3780d9",
      "name": "Benzene",
      "url": "https://haz-map.com/Agents/5",
      "category": "agents"
    },
    {
      "type": "name_match",
      "text": "acetic acid",
      "confidence": 1.0,
      "uuid": "0905c6e4-df84-4895-a92d-658819239bbd",
      "name": "Acetic acid",
      "url": "https://haz-map.com/Agents/207",
      "category": "agents"
    },
    {
      "type": "name_match",
      "text": "catechol",
      "confidence": 1.0,
      "uuid": "f171132b-f7fb-42b9-ba76-091eb240fa4a",
      "name": "Catechol",
      "url": "https://haz-map.com/Agents/346",
      "category": "agents"
    },
    {
      "type": "name_match",
      "text": "enzymes",
      "confidence": 1.0,
      "uuid": "fe84a5f3-127f-4a3f-bd93-9a905dddee93",
      "name": "ENZYMES",
      "url": "https://haz-map.com/Agents/741",
      "category": "agents"
    },
    {
      "type": "name_match",
      "text": "phenylacetic acid",
      "confidence": 1.0,
      "uuid": "9fd56a07-b965-4725-89f1-49d42ccba118",
      "name": "Phenylacetic acid",
      "url": "https://haz-map.com/Agents/6638",
      "category": "agents"
    },
    {
      "type": "name_match",
      "text": "4-hydroxyphenylacetic acid",
      "confidence": 1.0,
      "uuid": "16847d82-6869-4506-aeb0-caafaead314c",
      "name": "4-Hydroxyphenylacetic acid",
      "url": "https://haz-map.com/Agents/11165",
      "category": "agents"
    },
    {
      "type": "name_match",
      "text": "vanillic acid",
      "confidence": 1.0,
      "uuid": "5d78c8d8-b0e7-475c-9771-af9fa8c6e14e",
      "name": "Vanillic acid",
      "url": "https://haz-map.com/Agents/18621",
      "category": "agents"
    },
    {
      "type": "name_match",
      "text": "3-methoxyphenylacetic acid",
      "confidence": 1.0,
      "uuid": "9c8f3327-7c93-4d78-b5c4-04934e919824",
      "name": "3-Methoxyphenylacetic acid",
      "url": "https://haz-map.com/Agents/19919",
      "category": "agents"
    },
    {
      "type": "name_match",
      "text": "homovanillic acid",
      "confidence": 1.0,
      "uuid": "fef7f7ce-f11e-478c-8e7e-6789355633fc",
      "name": "Homovanillic acid",
      "url": "https://haz-map.com/Agents/21009",
      "category": "agents"
    },
    {
      "type": "fuzzy_match",
      "text": "crystalline",
      "matched_name": "Silica, crystalline",
      "confidence": 0.7061403508771931,
      "uuid": "f920e8a2-46df-41b7-af8d-0368a777251e",
      "category": "agents",
      "url": "https://haz-map.com/Agents/427"
    }
  ],
  "all_links": [
    {
      "text": "Search PubMed",
      "url": "https://www.ncbi.nlm.nih.gov/pubmed?term=Homovanillic+acid%20AND%20human%5Bmh%5D%20AND%20%28Occupational%20Diseases%20%5Bmh%5D%20OR%20Occupational%20Exposure%20%5Bmh%5D%29%20%20AND%20%28tox%5Bsb%5D%29&cmd=search"
    }
  ]
}