{
  "metadata": {
    "scraped_from": "https://haz-map.com/Agents/5702",
    "entity_name": "2,4-D isooctyl ester",
    "category": "agents",
    "uuid": "ff04b86f-d059-4921-adc8-3aedea8fd5df",
    "scraped_at": "2025-07-23T19:55:15.540541"
  },
  "parsed_at": "2025-07-24T01:13:36.991603",
  "title": "2,4-D isooctyl ester",
  "sections": {
    "general": {
      "agent_name": {
        "original_name": "Agent Name",
        "value": "2,4-D isooctyl ester",
        "links": [],
        "cross_references": [
          {
            "type": "name_match",
            "text": "2,4-d",
            "confidence": 1.0,
            "uuid": "bed35f54-2d93-4ffd-a3ee-723ab365faf1",
            "name": "2,4-D",
            "url": "https://haz-map.com/Agents/389",
            "category": "agents"
          },
          {
            "type": "name_match",
            "text": "2,4-d isooctyl ester",
            "confidence": 1.0,
            "uuid": "ff04b86f-d059-4921-adc8-3aedea8fd5df",
            "name": "2,4-D isooctyl ester",
            "url": "https://haz-map.com/Agents/5702",
            "category": "agents"
          }
        ]
      },
      "cas_number": {
        "original_name": "CAS Number",
        "value": "25168-26-7",
        "links": [],
        "cross_references": []
      },
      "formula": {
        "original_name": "Formula",
        "value": "C16-H22-Cl2-O3",
        "links": [],
        "cross_references": []
      },
      "major_category": {
        "original_name": "Major Category",
        "value": "Pesticides",
        "links": [],
        "cross_references": []
      },
      "synonyms": {
        "original_name": "Synonyms",
        "value": "2,4-D esters; 2,4-D-(iso-octyl); 2,4-D-isoctyl; 2,4-Dichlorophenoxyacetic acid, isooctyl ester; Acetic acid, (2,4-dichlorophenoxy)-, isooctyl ester; Agro-D-Ester; Agroxone 5; Amchem Amine 2,4-D Low Volatile Ester Weed Killer; Amoco 2,4-D LV Ester; Chipman 2,4-D Gran 20; Chipman 2,4-D Low Volatile Ester 4L; Chipman 2,4-D Low Volatile Ester 6; Chipman 2,4-D Low Volatile Ester 6L; Ded-weed sulv amine; Diamond Shamrock LO-VOL 4D; Diamond Shamrock LO-VOL 6D; Esteron 6E Herbicide; Esteron GE; FS LV 400 Weed Killer; Farmco DLV-400 Special; Felco LV 400 Weed Killer; Felco Low Volatile Ester 600; Green Cross Roadside 2,4-D Low Volatile Weed Killer; Greever's 2,4-D Low Volatile Ester Weed Killer; Henry Field's Lawn Weed Killer; Herbate Ester 80; Isooctyl 2,4-dichlorophenoxyacetate; Isooctyl alcohol, (2,4-dichlorophenoxy)acetate; Isooktylester kyseliny 2,4-dichlorfenoxyoctove [Czech]; Line Rider LV-4D; Line Rider LV-6D; Miller's Lo Vol 4# 2,4-D; Monsanto 2,4-D Granular; Monsanto 2,4-D Low Volatile Ester; Naco LV-4D Weed Killer; Ortho 2,4-D LV Ester 4; Reed LV 2,4-D; Reed LV 400 2,4-D; Reed LV 600 2,4-D; Rhodia 2,4-D Low Volatile Ester 4L; Silvapron D; Stull's Low Volatile Weed Killer; Tobacco States Brand Ester 210; Visko-Rhap 2,4-D Low Volatile; Weedtrine-II; [ChemIDplus]",
        "links": [],
        "cross_references": [
          {
            "type": "name_match",
            "text": "acetic acid",
            "confidence": 1.0,
            "uuid": "0905c6e4-df84-4895-a92d-658819239bbd",
            "name": "Acetic acid",
            "url": "https://haz-map.com/Agents/207",
            "category": "agents"
          },
          {
            "type": "name_match",
            "text": "2,4-d",
            "confidence": 1.0,
            "uuid": "bed35f54-2d93-4ffd-a3ee-723ab365faf1",
            "name": "2,4-D",
            "url": "https://haz-map.com/Agents/389",
            "category": "agents"
          },
          {
            "type": "name_match",
            "text": "isooctyl alcohol",
            "confidence": 1.0,
            "uuid": "ee4740dc-b699-4818-96ef-202b348cf699",
            "name": "Isooctyl alcohol",
            "url": "https://haz-map.com/Agents/530",
            "category": "agents"
          },
          {
            "type": "name_match",
            "text": "dichlorophen",
            "confidence": 1.0,
            "uuid": "43441a9d-e8c4-49f1-8bbf-52d24da33df3",
            "name": "Dichlorophen",
            "url": "https://haz-map.com/Agents/1159",
            "category": "agents"
          },
          {
            "type": "name_match",
            "text": "diamond",
            "confidence": 1.0,
            "uuid": "dca3edf9-afa1-4c46-acfb-74f648ecb86b",
            "name": "Diamond",
            "url": "https://haz-map.com/Agents/13714",
            "category": "agents"
          }
        ]
      },
      "category": {
        "original_name": "Category",
        "value": "Herbicides, Chlorophenoxy",
        "links": [],
        "cross_references": [
          {
            "type": "name_match",
            "text": "herbicides",
            "confidence": 1.0,
            "uuid": "195f29ae-3f15-47c5-836d-0a9791db3fc1",
            "name": "HERBICIDES",
            "url": "https://haz-map.com/Agents/703",
            "category": "agents"
          }
        ]
      },
      "description": {
        "original_name": "Description",
        "value": "Yellow-brown liquid; [HSDB] Brown-yellow liquid; [MSDSonline]",
        "links": [],
        "cross_references": []
      },
      "sourcesuses": {
        "original_name": "Sources/Uses",
        "value": "2,4-D and derivatives: Used as herbicide for pastures, rangelands, cereals, corn, rice, nuts, turf, and aquatic, industrial, and commercial areas; [HSDB]",
        "links": [],
        "cross_references": [
          {
            "type": "name_match",
            "text": "2,4-d",
            "confidence": 1.0,
            "uuid": "bed35f54-2d93-4ffd-a3ee-723ab365faf1",
            "name": "2,4-D",
            "url": "https://haz-map.com/Agents/389",
            "category": "agents"
          }
        ]
      },
      "comments": {
        "original_name": "Comments",
        "value": "A skin and eye irritant; The esters of 2,4-D are hydrolyzed rapidly in the body to 2,4-D; Do not accumulate in mammals; Plasma half-life is about 1 day; Analysis of 2,4-D as esters and amine salts in 1982 found the esters more highly contaminated with dioxins; [HSDB] Now referred to as \"2,4-D 2-Ethylhexyl ester\", CAS# 1928-43-4; [EPA REDs] See \"2,3,7,8-Tetrachlorodibenzo-p-dioxin.\" See \"2,4D.\"",
        "links": [],
        "cross_references": [
          {
            "type": "name_match",
            "text": "2,4-d",
            "confidence": 1.0,
            "uuid": "bed35f54-2d93-4ffd-a3ee-723ab365faf1",
            "name": "2,4-D",
            "url": "https://haz-map.com/Agents/389",
            "category": "agents"
          },
          {
            "type": "name_match",
            "text": "2,3,7,8-tetrachlorodibenzo-p-dioxin",
            "confidence": 1.0,
            "uuid": "163dd479-9e9d-4fe3-87bc-9bb274c69bc1",
            "name": "2,3,7,8-Tetrachlorodibenzo-p-dioxin",
            "url": "https://haz-map.com/Agents/431",
            "category": "agents"
          },
          {
            "type": "name_match",
            "text": "dibenzo-p-dioxin",
            "confidence": 1.0,
            "uuid": "8bc7b9fd-d722-4be5-af1b-a8c4db467174",
            "name": "Dibenzo-p-dioxin",
            "url": "https://haz-map.com/Agents/4729",
            "category": "agents"
          },
          {
            "type": "name_match",
            "text": "2,4-d 2-ethylhexyl ester",
            "confidence": 1.0,
            "uuid": "d76ab21f-24b0-4339-8a2a-4fe89a39738a",
            "name": "2,4-D 2-Ethylhexyl ester",
            "url": "https://haz-map.com/Agents/5126",
            "category": "agents"
          },
          {
            "type": "name_match",
            "text": "tetrachlorodibenzo-p-dioxin",
            "confidence": 1.0,
            "uuid": "c540fc3f-af1e-43e1-a7ed-a72d9c5877b5",
            "name": "Tetrachlorodibenzo-p-dioxin",
            "url": "https://haz-map.com/Agents/7336",
            "category": "agents"
          }
        ]
      },
      "restricted": {
        "original_name": "Restricted",
        "value": "No longer registered as a pesticide for use in the US; [HSDB]",
        "links": [],
        "cross_references": []
      },
      "biomedical_references": {
        "original_name": "Biomedical References",
        "value": "Search PubMed",
        "links": [
          {
            "text": "Search PubMed",
            "url": "https://www.ncbi.nlm.nih.gov/pubmed?term=2%2c4-D+isooctyl+ester%20AND%20human%5Bmh%5D%20AND%20%28Occupational%20Diseases%20%5Bmh%5D%20OR%20Occupational%20Exposure%20%5Bmh%5D%29%20%20AND%20%28tox%5Bsb%5D%29&cmd=search"
          }
        ],
        "cross_references": []
      }
    },
    "exposure_assessment": {
      "vapor_pressure": {
        "original_name": "Vapor Pressure",
        "value": "7.06E-06 mm Hg",
        "links": [],
        "cross_references": []
      }
    },
    "adverse_effects": {
      "hepatotoxin": {
        "original_name": "Hepatotoxin",
        "value": "Hepatoxic (a) from occupational exposure (secondary effect) or (b) in animal studies or in humans after ingestion",
        "links": [],
        "cross_references": []
      }
    },
    "diseases_processes_and_activities_linked_to_this_agent": {
      "processes": {
        "original_name": "Processes",
        "value": "Industrial Processes with risk of exposure: Farming (Pesticides)",
        "links": [
          {
            "text": "Farming (Pesticides)",
            "url": "https://haz-map.com/Processes/218"
          }
        ],
        "cross_references": [
          {
            "type": "url_match",
            "text": "Farming (Pesticides)",
            "url": "https://haz-map.com/Processes/218",
            "confidence": 1.0,
            "uuid": "cf1e5815-c9bb-4917-82a5-391848170b7e",
            "name": "Farming (Pesticides)",
            "category": "processes"
          }
        ]
      }
    }
  },
  "cross_references": [
    {
      "type": "url_match",
      "text": "Farming (Pesticides)",
      "url": "https://haz-map.com/Processes/218",
      "confidence": 1.0,
      "uuid": "cf1e5815-c9bb-4917-82a5-391848170b7e",
      "name": "Farming (Pesticides)",
      "category": "processes"
    },
    {
      "type": "name_match",
      "text": "acetic acid",
      "confidence": 1.0,
      "uuid": "0905c6e4-df84-4895-a92d-658819239bbd",
      "name": "Acetic acid",
      "url": "https://haz-map.com/Agents/207",
      "category": "agents"
    },
    {
      "type": "name_match",
      "text": "2,4-d",
      "confidence": 1.0,
      "uuid": "bed35f54-2d93-4ffd-a3ee-723ab365faf1",
      "name": "2,4-D",
      "url": "https://haz-map.com/Agents/389",
      "category": "agents"
    },
    {
      "type": "name_match",
      "text": "2,3,7,8-tetrachlorodibenzo-p-dioxin",
      "confidence": 1.0,
      "uuid": "163dd479-9e9d-4fe3-87bc-9bb274c69bc1",
      "name": "2,3,7,8-Tetrachlorodibenzo-p-dioxin",
      "url": "https://haz-map.com/Agents/431",
      "category": "agents"
    },
    {
      "type": "name_match",
      "text": "isooctyl alcohol",
      "confidence": 1.0,
      "uuid": "ee4740dc-b699-4818-96ef-202b348cf699",
      "name": "Isooctyl alcohol",
      "url": "https://haz-map.com/Agents/530",
      "category": "agents"
    },
    {
      "type": "name_match",
      "text": "herbicides",
      "confidence": 1.0,
      "uuid": "195f29ae-3f15-47c5-836d-0a9791db3fc1",
      "name": "HERBICIDES",
      "url": "https://haz-map.com/Agents/703",
      "category": "agents"
    },
    {
      "type": "name_match",
      "text": "dichlorophen",
      "confidence": 1.0,
      "uuid": "43441a9d-e8c4-49f1-8bbf-52d24da33df3",
      "name": "Dichlorophen",
      "url": "https://haz-map.com/Agents/1159",
      "category": "agents"
    },
    {
      "type": "name_match",
      "text": "dibenzo-p-dioxin",
      "confidence": 1.0,
      "uuid": "8bc7b9fd-d722-4be5-af1b-a8c4db467174",
      "name": "Dibenzo-p-dioxin",
      "url": "https://haz-map.com/Agents/4729",
      "category": "agents"
    },
    {
      "type": "name_match",
      "text": "2,4-d 2-ethylhexyl ester",
      "confidence": 1.0,
      "uuid": "d76ab21f-24b0-4339-8a2a-4fe89a39738a",
      "name": "2,4-D 2-Ethylhexyl ester",
      "url": "https://haz-map.com/Agents/5126",
      "category": "agents"
    },
    {
      "type": "name_match",
      "text": "2,4-d isooctyl ester",
      "confidence": 1.0,
      "uuid": "ff04b86f-d059-4921-adc8-3aedea8fd5df",
      "name": "2,4-D isooctyl ester",
      "url": "https://haz-map.com/Agents/5702",
      "category": "agents"
    },
    {
      "type": "name_match",
      "text": "tetrachlorodibenzo-p-dioxin",
      "confidence": 1.0,
      "uuid": "c540fc3f-af1e-43e1-a7ed-a72d9c5877b5",
      "name": "Tetrachlorodibenzo-p-dioxin",
      "url": "https://haz-map.com/Agents/7336",
      "category": "agents"
    },
    {
      "type": "name_match",
      "text": "diamond",
      "confidence": 1.0,
      "uuid": "dca3edf9-afa1-4c46-acfb-74f648ecb86b",
      "name": "Diamond",
      "url": "https://haz-map.com/Agents/13714",
      "category": "agents"
    }
  ],
  "all_links": [
    {
      "text": "Search PubMed",
      "url": "https://www.ncbi.nlm.nih.gov/pubmed?term=2%2c4-D+isooctyl+ester%20AND%20human%5Bmh%5D%20AND%20%28Occupational%20Diseases%20%5Bmh%5D%20OR%20Occupational%20Exposure%20%5Bmh%5D%29%20%20AND%20%28tox%5Bsb%5D%29&cmd=search"
    },
    {
      "text": "Farming (Pesticides)",
      "url": "https://haz-map.com/Processes/218"
    }
  ]
}